/*--------------------------------*- C++ -*----------------------------------*\
| =========                 |                                                 |
| \\      /  F ield         | OpenFOAM: The Open Source CFD Toolbox           |
|  \\    /   O peration     | Version:  2.1.1                                 |
|   \\  /    A nd           | Web:      www.OpenFOAM.org                      |
|    \\/     M anipulation  |                                                 |
\*---------------------------------------------------------------------------*/
FoamFile
{
    version     2.0;
    format      ascii;
    class       volScalarField;
    location    "0.005";
    object      p;
}
// * * * * * * * * * * * * * * * * * * * * * * * * * * * * * * * * * * * * * //

dimensions      [0 2 -2 0 0 0 0];

internalField   nonuniform List<scalar> 
10339
(
0.0294139
0.0294141
0.0196447
0.0196544
0.019664
0.0196917
0.0197056
0.0197496
0.0197585
0.0198192
0.0198077
0.0198917
0.0198345
0.0199664
0.0198209
0.0200516
0.03079
0.0196544
0.0196639
0.0196732
0.0197002
0.0197137
0.0197562
0.0197647
0.0198245
0.0198141
0.0198965
0.0198379
0.0199679
0.019825
0.0200818
0.0311231
0.019664
0.0196731
0.0196825
0.0197087
0.0197223
0.0197631
0.0197728
0.0198277
0.0198223
0.0198911
0.0198538
0.0199438
0.0198623
0.0199667
0.0292499
0.0196917
0.0197001
0.0197086
0.0197326
0.0197456
0.0197826
0.019793
0.019842
0.0198374
0.019903
0.0198613
0.0199749
0.0198206
0.0201548
0.0320047
0.0197055
0.0197136
0.0197222
0.0197455
0.0197583
0.0197943
0.0198039
0.0198483
0.0198463
0.0198943
0.0198844
0.0199097
0.0199365
0.0361454
0.0262606
0.0197494
0.0197561
0.0197629
0.0197823
0.0197939
0.0198224
0.0198354
0.019866
0.0198725
0.0199024
0.0199202
0.0198989
0.0200722
0.0293964
0.0197576
0.0197649
0.0197725
0.0197923
0.019803
0.0198344
0.0198386
0.0198819
0.0198698
0.0199333
0.0198601
0.0199851
0.0376638
0.0253278
0.0198187
0.0198242
0.0198272
0.0198412
0.0198476
0.0198649
0.0198771
0.0198949
0.0199029
0.0199175
0.0198922
0.0200853
0.0304911
0.0198074
0.0198135
0.0198216
0.019837
0.0198475
0.0198761
0.019866
0.0199011
0.0199116
0.0199526
0.0199349
0.0378692
0.0269301
0.0198914
0.019896
0.0198904
0.0199022
0.0198938
0.0199025
0.0199324
0.0199166
0.0199516
0.0197806
0.0201708
0.0334461
0.0198343
0.0198374
0.019853
0.0198607
0.0198871
0.0199196
0.0198588
0.0198917
0.019933
0.0201725
0.0414639
0.0199662
0.0199674
0.0199429
0.0199729
0.0199023
0.0198963
0.0199836
0.0200833
0.0378682
0.0334375
0.0198207
0.0198245
0.0198614
0.0198193
0.0199336
0.0200701
0.037662
0.0304895
0.0269275
0.0200514
0.0200813
0.0199658
0.020153
0.0361435
0.0293946
0.0253261
0.0307907
0.031123
0.0292494
0.0320036
0.026259
0.0185288
0.0185412
0.0185546
0.0185878
0.0186076
0.0186589
0.0186743
0.0187431
0.0187384
0.0188288
0.0187764
0.0189135
0.0187684
0.0190023
0.0297428
0.0185412
0.0185527
0.0185656
0.0185979
0.0186172
0.0186671
0.0186826
0.0187501
0.018747
0.0188351
0.0187814
0.0189229
0.018766
0.0190315
0.0300758
0.0185545
0.0185655
0.0185781
0.0186092
0.0186283
0.0186762
0.0186925
0.0187552
0.0187575
0.0188307
0.0187977
0.0188911
0.0188111
0.0189182
0.0282023
0.0185878
0.0185978
0.0186092
0.0186376
0.0186555
0.0186989
0.0187152
0.0187716
0.0187741
0.0188445
0.0188049
0.0189237
0.0187677
0.0191077
0.0309575
0.0186074
0.018617
0.0186282
0.0186554
0.0186726
0.0187141
0.0187289
0.0187798
0.0187833
0.0188378
0.0188323
0.0188558
0.018887
0.035099
0.0252133
0.0186587
0.0186669
0.018676
0.0186987
0.0187139
0.0187468
0.0187638
0.018799
0.018807
0.0188443
0.0188667
0.0188479
0.0190237
0.0283489
0.0186739
0.0186823
0.0186921
0.0187147
0.0187284
0.0187634
0.0187712
0.0188177
0.0188081
0.0188783
0.0188072
0.0189352
0.0366168
0.0242802
0.0187427
0.0187497
0.0187547
0.0187711
0.0187792
0.0187983
0.0188167
0.0188358
0.0188477
0.0188633
0.0188416
0.0190381
0.0294438
0.0187381
0.0187465
0.0187569
0.0187735
0.0187828
0.0188069
0.0188071
0.018847
0.0188579
0.0189048
0.0188868
0.0368241
0.025883
0.0188285
0.0188347
0.0188301
0.0188438
0.0188371
0.0188437
0.0188774
0.0188629
0.018903
0.0187304
0.0191341
0.0324035
0.0187761
0.018781
0.018797
0.0188041
0.0188314
0.0188658
0.0188062
0.0188408
0.0188835
0.0191144
0.0404219
0.0189133
0.0189226
0.0188904
0.0189225
0.0188537
0.0188463
0.018934
0.0190366
0.0368257
0.0324003
0.0187682
0.0187655
0.0188103
0.0187666
0.0188853
0.0190221
0.0366154
0.0294425
0.0258812
0.0190021
0.0190311
0.0189174
0.0191066
0.0350975
0.0283474
0.0242787
0.0297436
0.0300757
0.0282019
0.0309567
0.0252119
0.0174045
0.0174188
0.0174366
0.0174766
0.017503
0.0175632
0.017586
0.0176633
0.0176629
0.0177652
0.0177192
0.017863
0.0177198
0.0179585
0.0286991
0.0174188
0.0174328
0.0174499
0.0174886
0.0175144
0.017573
0.0175958
0.0176714
0.0176723
0.0177723
0.0177242
0.0178726
0.0177186
0.0179873
0.0290326
0.0174365
0.0174498
0.0174662
0.0175033
0.0175287
0.0175848
0.0176082
0.0176791
0.0176858
0.017769
0.0177424
0.0178403
0.0177647
0.0178735
0.0271592
0.0174765
0.0174885
0.0175032
0.0175371
0.0175607
0.0176117
0.0176347
0.0176994
0.0177065
0.0177862
0.0177501
0.0178769
0.0177189
0.0180636
0.0299155
0.0175028
0.0175143
0.0175286
0.0175606
0.017583
0.0176313
0.0176526
0.0177125
0.0177256
0.0177835
0.0177812
0.0178072
0.0178418
0.0340574
0.0241709
0.0175629
0.0175728
0.0175846
0.0176114
0.0176311
0.0176699
0.0176927
0.0177363
0.0177552
0.0177933
0.0178163
0.0178013
0.0179791
0.027306
0.0175857
0.0175955
0.0176078
0.0176342
0.0176521
0.0176923
0.0177049
0.0177578
0.0177536
0.0178277
0.0177584
0.0178893
0.0355746
0.0232371
0.017663
0.0176711
0.0176786
0.0176987
0.0177116
0.0177355
0.0177571
0.0177794
0.0177957
0.0178131
0.017794
0.0179948
0.0284004
0.0176626
0.0176719
0.0176852
0.0177056
0.0177245
0.0177541
0.0177527
0.0177953
0.0178071
0.0178581
0.0178382
0.0357824
0.02484
0.017765
0.017772
0.0177685
0.0177854
0.0177821
0.0177912
0.0178277
0.0178129
0.0178591
0.0176832
0.0180656
0.0313579
0.0177191
0.0177239
0.0177419
0.0177493
0.0177799
0.0178152
0.0177576
0.0177938
0.0178411
0.0180921
0.0393792
0.0178629
0.0178723
0.0178398
0.017876
0.0178061
0.0178002
0.0178884
0.0179941
0.035787
0.0313654
0.0177198
0.0177184
0.0177642
0.0177182
0.0178408
0.0179781
0.0355736
0.0283997
0.0248396
0.0179585
0.0179871
0.017873
0.0180629
0.0340564
0.0273048
0.023236
0.0287
0.0290327
0.027159
0.029915
0.0241699
0.0162699
0.0162868
0.0163094
0.0163571
0.0163914
0.0164619
0.0164937
0.0165831
0.0165927
0.0167043
0.0166637
0.0168158
0.0166754
0.0169192
0.0276613
0.0162868
0.0163034
0.0163252
0.0163714
0.0164048
0.0164734
0.0165048
0.0165921
0.0166017
0.0167118
0.0166689
0.0168265
0.0166741
0.016948
0.027995
0.0163093
0.0163251
0.016346
0.0163899
0.0164228
0.0164884
0.0165201
0.0166016
0.0166163
0.0167092
0.0166892
0.0167934
0.0167221
0.0168336
0.0261214
0.016357
0.0163714
0.0163899
0.0164302
0.0164604
0.0165203
0.016551
0.0166255
0.0166393
0.0167292
0.0166968
0.0168334
0.0166739
0.0170249
0.0288786
0.0163912
0.0164046
0.0164226
0.0164603
0.0164888
0.0165452
0.0165738
0.0166424
0.0166599
0.016728
0.0167311
0.0167624
0.0168007
0.033021
0.0231336
0.0164618
0.0164733
0.0164881
0.0165201
0.016545
0.0165911
0.0166205
0.0166724
0.0166975
0.0167425
0.0167702
0.0167597
0.0169393
0.0262681
0.0164935
0.0165046
0.0165198
0.0165505
0.0165732
0.0166198
0.0166384
0.0166991
0.016701
0.0167814
0.016714
0.0168479
0.0345372
0.0221993
0.016583
0.016592
0.0166013
0.0166248
0.0166413
0.0166708
0.0166975
0.0167253
0.0167476
0.0167682
0.0167519
0.0169559
0.0273623
0.0165927
0.0166016
0.0166159
0.0166385
0.0166584
0.0166953
0.016698
0.016745
0.0167597
0.0168186
0.0168004
0.0347474
0.0238024
0.0167044
0.0167118
0.0167088
0.0167284
0.0167267
0.0167406
0.0167793
0.0167662
0.0168162
0.0166419
0.0170554
0.0303252
0.0166638
0.0166688
0.0166889
0.0166962
0.01673
0.0167692
0.0167129
0.0167507
0.0167968
0.0170277
0.0383473
0.016816
0.0168265
0.0167932
0.0168329
0.0167617
0.016759
0.0168473
0.0169554
0.0347515
0.030327
0.0166756
0.0166741
0.0167219
0.0166735
0.0168002
0.0169387
0.0345367
0.027362
0.0238027
0.0169194
0.016948
0.0168335
0.0170246
0.0330205
0.0262674
0.0221986
0.0276624
0.0279953
0.0261215
0.0288784
0.0231331
0.015123
0.0151438
0.0151722
0.0152284
0.015272
0.0153547
0.0153966
0.0155002
0.0155191
0.015644
0.0156097
0.0157726
0.0156352
0.0158846
0.0266301
0.0151438
0.0151636
0.0151909
0.0152452
0.0152877
0.0153682
0.0154095
0.0155107
0.015529
0.0156526
0.0156155
0.0157843
0.0156335
0.0159143
0.0269634
0.0151721
0.0151908
0.0152168
0.0152687
0.0153098
0.0153866
0.015428
0.0155219
0.0155461
0.0156507
0.0156385
0.0157506
0.0156846
0.0157993
0.0250896
0.0152283
0.0152452
0.0152686
0.015316
0.0153541
0.0154245
0.0154638
0.0155503
0.015572
0.0156745
0.0156466
0.0157947
0.0156338
0.0159921
0.0278479
0.0152718
0.0152876
0.0153097
0.0153539
0.0153896
0.0154556
0.0154925
0.015572
0.0155974
0.0156754
0.0156865
0.0157224
0.0157649
0.0319911
0.0221028
0.0153546
0.0153681
0.0153864
0.0154242
0.0154553
0.01551
0.0155469
0.0156089
0.015642
0.0156943
0.0157256
0.0157223
0.0159041
0.0252362
0.0153965
0.0154093
0.0154278
0.0154633
0.0154917
0.015546
0.0155714
0.0156421
0.0156553
0.0157383
0.015673
0.0158107
0.0335058
0.0211677
0.0155002
0.0155107
0.0155216
0.0155497
0.0155706
0.0156061
0.0156376
0.0156735
0.0157061
0.0157274
0.0157132
0.0159216
0.0263301
0.0155194
0.0155291
0.0155459
0.0155714
0.0155957
0.0156368
0.015639
0.0156939
0.015716
0.0157804
0.01576
0.0337174
0.0227707
0.0156446
0.0156529
0.0156506
0.015674
0.0156741
0.0156916
0.0157335
0.0157242
0.0157812
0.0156043
0.0159924
0.0292918
0.0156103
0.0156158
0.0156385
0.0156463
0.0156859
0.0157247
0.0156721
0.015713
0.0157635
0.0160203
0.0373153
0.0157732
0.0157846
0.0157506
0.0157946
0.0157222
0.015722
0.0158107
0.015922
0.0337231
0.0292998
0.0156359
0.0156338
0.0156847
0.0156337
0.0157647
0.0159039
0.0335058
0.0263305
0.0227718
0.0158851
0.0159146
0.0157994
0.015992
0.0319908
0.0252359
0.0211675
0.0266314
0.026964
0.0250898
0.0278479
0.0221026
0.0139641
0.0139898
0.0140253
0.0140907
0.0141446
0.01424
0.0142944
0.0144129
0.0144432
0.014584
0.0145575
0.0147336
0.0146005
0.0148563
0.0256047
0.0139898
0.0140133
0.0140472
0.0141104
0.0141629
0.0142557
0.0143091
0.0144253
0.0144541
0.0145943
0.0145635
0.0147464
0.0145977
0.0148868
0.0259385
0.0140252
0.014047
0.0140788
0.014139
0.0141895
0.0142781
0.0143312
0.0144391
0.0144748
0.0145932
0.01459
0.014712
0.0146528
0.0147707
0.0240644
0.0140906
0.0141103
0.0141389
0.0141939
0.0142409
0.0143225
0.0143727
0.0144732
0.0145043
0.014622
0.0145981
0.0147607
0.0145989
0.0149661
0.0268243
0.0141445
0.0141627
0.0141894
0.0142408
0.0142846
0.0143612
0.014408
0.0144995
0.0145351
0.0146243
0.0146444
0.0146871
0.0147349
0.0309683
0.021079
0.0142399
0.0142557
0.014278
0.0143223
0.0143611
0.014425
0.0144713
0.0145437
0.0145845
0.0146475
0.0146858
0.0146901
0.0148742
0.0242113
0.0142944
0.0143091
0.014331
0.0143723
0.0144076
0.0144709
0.0145034
0.0145821
0.0145955
0.0146945
0.0146356
0.0147783
0.0324815
0.0201431
0.0144132
0.0144255
0.0144389
0.0144728
0.0144988
0.0145429
0.0145826
0.0146242
0.0146503
0.0146874
0.014679
0.0148938
0.0253045
0.014444
0.0144545
0.0144748
0.0145038
0.0145343
0.0145835
0.014597
0.0146639
0.0146761
0.0147493
0.014731
0.032695
0.0217457
0.0145852
0.014595
0.0145934
0.0146219
0.0146238
0.0146471
0.0146955
0.0146911
0.0147493
0.0145725
0.0149956
0.0282711
0.0145587
0.0145643
0.0145904
0.0145984
0.0146444
0.014686
0.014637
0.0146801
0.0147293
0.0149656
0.0362956
0.0147348
0.0147472
0.0147124
0.0147609
0.0146872
0.0146905
0.0147791
0.0148951
0.0327009
0.0282742
0.0146016
0.0145984
0.0146532
0.0145991
0.014735
0.0148744
0.0324821
0.0253055
0.0217477
0.014857
0.0148873
0.014771
0.0149662
0.0309684
0.0242113
0.0201433
0.025606
0.0259392
0.0240649
0.0268246
0.021079
0.0127967
0.0128264
0.0128697
0.0129448
0.0130098
0.0131182
0.0131864
0.0133205
0.0133654
0.0135213
0.0135027
0.0136972
0.0135717
0.013835
0.0245883
0.0128263
0.0128539
0.0128948
0.0129673
0.0130305
0.0131362
0.013203
0.0133349
0.0133777
0.0135345
0.01351
0.0137126
0.0135675
0.0138663
0.024922
0.0128697
0.0128946
0.0129325
0.0130013
0.013062
0.0131629
0.013229
0.0133519
0.0134018
0.0135351
0.0135448
0.013678
0.013627
0.0137485
0.0230474
0.0129447
0.0129672
0.0130012
0.0130643
0.013121
0.0132143
0.0132771
0.0133921
0.013436
0.0135711
0.0135574
0.0137337
0.0135678
0.0139481
0.0258093
0.0130097
0.0130303
0.0130619
0.0131209
0.0131735
0.0132612
0.0133194
0.0134243
0.0134725
0.0135755
0.0136084
0.0136575
0.0137112
0.0299533
0.0200633
0.0131182
0.0131362
0.0131628
0.0132142
0.0132612
0.0133355
0.013393
0.013477
0.0135298
0.013604
0.0136514
0.0136634
0.013851
0.0231941
0.0131865
0.013203
0.0132289
0.0132768
0.0133192
0.0133928
0.013434
0.0135248
0.0135458
0.0136556
0.0135992
0.0137508
0.031465
0.0191263
0.013321
0.0133352
0.0133519
0.0133918
0.013424
0.013477
0.0135255
0.013576
0.0136156
0.0136562
0.0136521
0.0138724
0.0242861
0.0133665
0.0133783
0.0134019
0.0134357
0.0134722
0.0135299
0.0135474
0.0136189
0.0136401
0.0137203
0.0136982
0.031679
0.0207281
0.0135237
0.0135356
0.0135355
0.0135711
0.0135755
0.0136046
0.0136578
0.0136611
0.0137264
0.0135437
0.013938
0.0272506
0.0135063
0.0135114
0.0135453
0.0135574
0.0136085
0.0136522
0.0136018
0.0136569
0.0137082
0.0139799
0.0352765
0.0136996
0.0137139
0.0136785
0.013734
0.0136577
0.0136642
0.0137525
0.0138757
0.0316883
0.0272629
0.0135732
0.0135685
0.0136275
0.013568
0.0137113
0.0138513
0.031466
0.0242878
0.0207312
0.0138359
0.013867
0.0137489
0.0139483
0.0299535
0.0231942
0.0191267
0.0245897
0.0249228
0.0230479
0.0258097
0.0200634
0.011629
0.0116591
0.0117076
0.0117918
0.0118678
0.0119892
0.0120719
0.0122225
0.0122848
0.0124591
0.0124598
0.0126666
0.0125495
0.0128209
0.0235819
0.0116592
0.0116884
0.0117355
0.011817
0.0118909
0.0120097
0.0120909
0.0122393
0.0122988
0.0124739
0.0124662
0.0126842
0.0125436
0.0128534
0.023915
0.0117076
0.0117351
0.011779
0.0118563
0.0119274
0.0120409
0.0121212
0.0122599
0.0123259
0.0124748
0.0124986
0.0126467
0.0126078
0.0127334
0.0220395
0.0117918
0.0118169
0.0118561
0.0119275
0.011994
0.0120997
0.0121761
0.0123066
0.0123661
0.0125155
0.0125062
0.0127072
0.0125452
0.012937
0.0248042
0.0118678
0.0118908
0.0119273
0.0119939
0.0120554
0.0121552
0.012226
0.0123458
0.0124075
0.0125273
0.0125771
0.0126331
0.0126935
0.0289478
0.0190569
0.0119892
0.0120098
0.0120409
0.0120996
0.0121552
0.012241
0.0123104
0.0124084
0.0124742
0.0125638
0.0126226
0.0126454
0.0128359
0.0221853
0.0120722
0.012091
0.0121211
0.0121758
0.0122258
0.0123102
0.0123616
0.0124662
0.0124977
0.0126208
0.0125754
0.0127311
0.0304575
0.0181184
0.012223
0.0122397
0.0122599
0.0123064
0.0123456
0.0124084
0.0124667
0.0125282
0.0125773
0.0126261
0.0126224
0.0128563
0.0232763
0.0122859
0.0122995
0.012326
0.0123658
0.0124072
0.0124743
0.0124991
0.0125801
0.0126061
0.0126821
0.0126746
0.0306723
0.019719
0.0124611
0.0124749
0.0124752
0.0125154
0.0125271
0.0125641
0.0126226
0.0126325
0.0127232
0.0125198
0.012979
0.0262482
0.0124622
0.0124675
0.0124991
0.0125063
0.0125769
0.0126231
0.0125795
0.0126353
0.0126812
0.012924
0.0342745
0.0126686
0.0126854
0.0126473
0.0127074
0.0126332
0.0126461
0.012733
0.0128613
0.0306823
0.0262499
0.012551
0.0125446
0.0126083
0.0125453
0.0126935
0.0128359
0.0304584
0.023278
0.0197226
0.012822
0.0128541
0.0127338
0.0129372
0.0289478
0.0221852
0.0181186
0.0235835
0.0239159
0.0220401
0.0248046
0.0190569
0.0104676
0.0104968
0.0105449
0.0106345
0.0107202
0.0108536
0.0109509
0.011118
0.0111992
0.0113938
0.0114153
0.0116386
0.0115349
0.0118138
0.0225857
0.0104969
0.0105263
0.0105737
0.0106621
0.0107457
0.0108767
0.0109724
0.0111375
0.0112156
0.0114108
0.0114227
0.0116589
0.0115274
0.0118482
0.0229188
0.0105448
0.0105734
0.0106205
0.0107059
0.0107864
0.0109122
0.0110066
0.0111618
0.0112458
0.0114144
0.011458
0.0116201
0.0115956
0.0117257
0.0210414
0.0106344
0.010662
0.0107055
0.0107843
0.0108601
0.0109782
0.0110686
0.0112157
0.0112926
0.0114619
0.0114749
0.0116882
0.0115302
0.0119336
0.0238101
0.0107202
0.0107456
0.0107863
0.01086
0.0109306
0.0110426
0.0111264
0.0112625
0.01134
0.0114763
0.0115344
0.0116107
0.0116813
0.0279528
0.0180611
0.0108537
0.0108768
0.0109122
0.0109782
0.0110426
0.0111404
0.0112225
0.0113363
0.0114174
0.0115236
0.0115964
0.0116289
0.0118274
0.0211868
0.0109511
0.0109725
0.0110065
0.0110683
0.0111261
0.0112222
0.0112849
0.0114039
0.0114501
0.0115865
0.0115551
0.0117155
0.0294595
0.0171206
0.0111186
0.0111378
0.0111618
0.0112155
0.0112621
0.011336
0.011404
0.0114797
0.0115411
0.0116033
0.0116105
0.0118498
0.0222761
0.0112002
0.0112162
0.0112458
0.0112922
0.0113394
0.0114167
0.0114504
0.0115422
0.0115732
0.0116817
0.01165
0.029675
0.0187197
0.0113952
0.0114117
0.0114146
0.0114616
0.0114756
0.0115227
0.0115866
0.0116071
0.0116922
0.0114989
0.0118995
0.0252406
0.011417
0.0114236
0.0114583
0.0114746
0.0115337
0.0115955
0.0115551
0.0116133
0.0116651
0.0119886
0.033269
0.0116402
0.0116599
0.0116205
0.011688
0.0116103
0.0116285
0.0117148
0.011851
0.0296854
0.0252594
0.0115362
0.0115282
0.0115959
0.0115301
0.0116808
0.0118266
0.0294591
0.0222764
0.018722
0.0118148
0.0118489
0.011726
0.0119335
0.0279525
0.0211862
0.01712
0.0225873
0.0229198
0.021042
0.0238103
0.0180608
0.00932066
0.00934759
0.00939286
0.00947955
0.00956978
0.00971325
0.00982377
0.0100071
0.0101078
0.0103232
0.0103689
0.010611
0.0105291
0.010814
0.0216023
0.00934761
0.00937549
0.00942069
0.00950741
0.00959734
0.00973861
0.00984752
0.0100289
0.0101266
0.0103431
0.0103781
0.0106346
0.01052
0.0108511
0.0219355
0.00939277
0.00942052
0.00946625
0.00955292
0.00964116
0.00977757
0.00988501
0.0100569
0.0101597
0.0103496
0.0104151
0.0105953
0.0105908
0.0107248
0.0200548
0.00947946
0.00950725
0.00955248
0.00963667
0.00972107
0.00985051
0.00995428
0.0101183
0.0102142
0.0104044
0.0104388
0.0106722
0.0105223
0.010939
0.0228291
0.00956977
0.00959725
0.00964102
0.00972084
0.00979945
0.00992279
0.0100195
0.0101725
0.010267
0.0104238
0.0104969
0.0105952
0.0106746
0.0269695
0.0170769
0.00971338
0.00973871
0.00977756
0.00985044
0.00992279
0.0100326
0.0101277
0.0102587
0.0103573
0.0104821
0.0105745
0.0106198
0.0108277
0.0201988
0.00982399
0.00984762
0.00988488
0.00995388
0.0100191
0.0101272
0.0102016
0.0103372
0.010398
0.0105526
0.010536
0.0107046
0.0284717
0.0161336
0.0100076
0.0100292
0.0100568
0.0101179
0.010172
0.0102579
0.0103367
0.0104286
0.0105065
0.0105855
0.0106022
0.0108494
0.021286
0.0101085
0.010127
0.0101596
0.0102135
0.0102659
0.0103556
0.0103963
0.010505
0.0105413
0.0106773
0.010652
0.0286936
0.0177313
0.0103243
0.0103437
0.0103496
0.0104037
0.0104225
0.0104796
0.0105494
0.0105822
0.0106712
0.010494
0.0110156
0.0242709
0.0103702
0.0103788
0.0104152
0.0104381
0.0104954
0.0105712
0.0105322
0.010601
0.0106325
0.0108832
0.0322921
0.0106123
0.0106354
0.0105955
0.0106717
0.0105938
0.010617
0.0107009
0.0108461
0.0286941
0.0242566
0.0105302
0.0105208
0.0105908
0.010522
0.0106733
0.0108254
0.0284694
0.0212838
0.0177303
0.010815
0.0108517
0.0107251
0.0109388
0.0269687
0.0201974
0.0161316
0.0216039
0.0219364
0.0200553
0.0228292
0.0170763
0.00819646
0.0082204
0.00826047
0.00834072
0.00842474
0.0085709
0.00869126
0.00888914
0.00900894
0.00924608
0.00931816
0.0095826
0.00952798
0.00982089
0.0206327
0.00822042
0.00824561
0.00828578
0.00836701
0.00845188
0.00859801
0.00871706
0.00891312
0.00903008
0.00926852
0.00932978
0.00960919
0.00951921
0.00986126
0.0209664
0.00826041
0.00828568
0.00832729
0.00840943
0.00849571
0.00863925
0.008757
0.00894424
0.00906542
0.00927779
0.00936757
0.00957034
0.00958963
0.00973005
0.0190804
0.0083407
0.00836695
0.00840935
0.008492
0.00857949
0.00871767
0.00883287
0.00901279
0.0091281
0.00934028
0.00940108
0.00965678
0.00952212
0.00995333
0.0218629
0.00842472
0.00845176
0.00849547
0.0085789
0.00866295
0.0087961
0.00890402
0.00907408
0.00918538
0.00936641
0.0094559
0.00958248
0.00967089
0.0259999
0.0161061
0.00857103
0.0085981
0.00863924
0.00871752
0.00879613
0.00891712
0.00902446
0.0091732
0.0092908
0.00943695
0.00955473
0.00961274
0.00983547
0.0192221
0.00869143
0.00871708
0.00875677
0.00883231
0.00890352
0.00902373
0.00910922
0.00926289
0.00933903
0.00951747
0.00952026
0.00969929
0.0274945
0.0151585
0.00888955
0.0089133
0.00894409
0.00901222
0.0090733
0.009172
0.00926221
0.00937239
0.00946586
0.00956883
0.00961678
0.00985602
0.0203056
0.00900949
0.0090303
0.00906514
0.00912718
0.00918385
0.00928809
0.00933597
0.00946386
0.00950896
0.00965753
0.00960377
0.0277139
0.0167533
0.00924695
0.00926896
0.00927769
0.00933934
0.00936449
0.00943233
0.00950821
0.00955747
0.00966669
0.00949146
0.00987746
0.0232793
0.00931914
0.00933034
0.00936749
0.00940005
0.00945371
0.00954821
0.00950214
0.00957517
0.00964837
0.0100091
0.0312985
0.00958376
0.0096099
0.00957051
0.00965595
0.00958017
0.0096074
0.00968989
0.00984263
0.0277239
0.0232957
0.00952907
0.00951998
0.00958983
0.00952137
0.00966876
0.00983165
0.0274897
0.020301
0.0167505
0.00982198
0.00986198
0.00973031
0.00995288
0.0259985
0.0192197
0.0151551
0.0206344
0.0209673
0.0190809
0.0218629
0.016105
0.00710441
0.0071248
0.00715817
0.00722882
0.00730159
0.00743693
0.00755703
0.00776471
0.00790043
0.00815973
0.00825975
0.00855119
0.00852959
0.00883336
0.0196789
0.00712482
0.00714674
0.00718018
0.00725211
0.00732617
0.00746281
0.00758432
0.00779089
0.00792426
0.00818467
0.00827431
0.00858089
0.00852119
0.0088779
0.0200132
0.00715812
0.00718013
0.00721526
0.00728871
0.00736519
0.00750272
0.0076251
0.00782399
0.00796081
0.00819655
0.00831147
0.00854272
0.00858926
0.00874144
0.0181193
0.00722881
0.0072521
0.00728866
0.0073646
0.00744456
0.00758316
0.00770575
0.00789879
0.00803189
0.00826689
0.00835592
0.00863686
0.00852947
0.00897352
0.0209135
0.00730154
0.00732607
0.00736495
0.00744419
0.00752553
0.00766492
0.00778036
0.00796568
0.00809258
0.00829975
0.00840935
0.0085692
0.00866629
0.0250453
0.0151508
0.00743702
0.00746285
0.00750264
0.00758297
0.00766495
0.00779447
0.00791194
0.00807745
0.00821364
0.00838276
0.00852754
0.00860518
0.00884831
0.0182582
0.00755712
0.00758425
0.00762479
0.0077051
0.00777978
0.00791101
0.00800539
0.0081777
0.00826871
0.00847072
0.00848897
0.00868977
0.0265279
0.0141959
0.00776501
0.00779096
0.00782373
0.00789808
0.0079648
0.00807607
0.00817693
0.00830733
0.00841726
0.0085423
0.00859202
0.00885593
0.0193329
0.0079008
0.0079243
0.00796035
0.00803071
0.00809088
0.00821087
0.0082658
0.00841417
0.00846603
0.00865696
0.00861981
0.0267564
0.0157858
0.00816042
0.00818494
0.00819629
0.00826569
0.00829762
0.00837882
0.00846516
0.008535
0.00864853
0.00849915
0.00904414
0.0223351
0.00826054
0.00827474
0.00831133
0.00835465
0.00840651
0.00852215
0.0084811
0.00858238
0.00860183
0.00886825
0.0303451
0.00855228
0.00858165
0.00854321
0.00863614
0.00856618
0.00859989
0.00868329
0.00884902
0.0267575
0.0223154
0.00853065
0.00852219
0.0085901
0.0085291
0.00866302
0.00884324
0.0265224
0.0193277
0.0157822
0.0088345
0.00887878
0.00874207
0.00897321
0.0250432
0.0182545
0.0141915
0.0196806
0.0200141
0.0181199
0.0209134
0.0151492
0.00605213
0.00606825
0.00609321
0.00615193
0.00620867
0.00632681
0.00642935
0.00663458
0.0067796
0.00705857
0.007185
0.00750895
0.00752508
0.00784724
0.0187415
0.00606826
0.00608614
0.00611137
0.00617139
0.00622947
0.0063494
0.00645457
0.00666186
0.00680539
0.00708591
0.00720296
0.00754143
0.00751937
0.00789608
0.0190779
0.00609315
0.00611134
0.00613822
0.00619991
0.0062606
0.00638281
0.0064914
0.00669493
0.00684135
0.0070994
0.00723803
0.00750425
0.00757938
0.00775497
0.0171716
0.00615191
0.00617139
0.00619989
0.0062647
0.00633064
0.00645649
0.00657276
0.0067739
0.00692007
0.00717707
0.00729441
0.00760367
0.00753249
0.007993
0.0199838
0.00620859
0.00622937
0.00626041
0.00633035
0.0063996
0.00653216
0.00664728
0.00684343
0.00698209
0.00721484
0.00734582
0.00754656
0.00765593
0.0241106
0.0142129
0.00632685
0.00634939
0.00638269
0.00645624
0.00653224
0.006664
0.00678682
0.00696619
0.00711839
0.00731178
0.00748209
0.00759035
0.0078599
0.0173077
0.00642935
0.00645442
0.00649102
0.00657201
0.00664669
0.0067857
0.00688499
0.00707465
0.00717842
0.00740736
0.00744831
0.00767199
0.0255734
0.0132454
0.00663479
0.00666182
0.00669456
0.00677306
0.00684255
0.00696481
0.00707415
0.00722439
0.00735074
0.00749844
0.00757246
0.00784926
0.0183678
0.00677982
0.00680526
0.00684071
0.00691868
0.00698037
0.00711576
0.00717639
0.00734895
0.00740357
0.00762586
0.00757685
0.025806
0.0148284
0.00705912
0.007086
0.00709898
0.00717565
0.00721285
0.00730858
0.00740406
0.00749656
0.00763307
0.00749416
0.0078689
0.0213656
0.00718563
0.00720323
0.00723782
0.00729296
0.00734295
0.00747752
0.00744306
0.00756706
0.00758911
0.00802642
0.0293703
0.00750995
0.00754226
0.0075056
0.00760448
0.00754187
0.00758485
0.00766728
0.00784523
0.0258103
0.021384
0.00752608
0.00752064
0.00758291
0.00754105
0.00764341
0.00785227
0.0255678
0.0183632
0.0148258
0.0078484
0.00789706
0.00775646
0.00799414
0.0241062
0.0173021
0.0132404
0.0187432
0.0190788
0.0171723
0.019984
0.014211
0.00505873
0.00507061
0.00508625
0.00513081
0.00516806
0.00526218
0.00533683
0.00551675
0.00565182
0.00594493
0.00609174
0.00645442
0.00651112
0.00685911
0.0178314
0.00507062
0.0050839
0.00509976
0.00514575
0.00518445
0.00528035
0.00535835
0.00554104
0.00567901
0.00597388
0.00611313
0.00649018
0.00650938
0.00691469
0.0181727
0.00508619
0.00509974
0.00511702
0.0051647
0.0052053
0.00530376
0.00538537
0.00556753
0.00571149
0.0059858
0.00614357
0.00645284
0.00655776
0.006768
0.0162463
0.00513078
0.00514576
0.0051647
0.0052156
0.00526161
0.00536558
0.00545765
0.00564549
0.0057958
0.00606939
0.00621327
0.00655782
0.00653436
0.0070116
0.0190838
0.00516796
0.00518435
0.00520513
0.00526134
0.00531075
0.00542416
0.00551868
0.00571246
0.00585433
0.00610891
0.00625848
0.0065063
0.00661998
0.0232075
0.0133009
0.00526218
0.00528031
0.00530361
0.00536529
0.00542419
0.00554338
0.00565668
0.00584338
0.00600526
0.00622049
0.00641827
0.00655432
0.00685985
0.0163753
0.00533676
0.00535814
0.0053849
0.00545681
0.00551806
0.0056556
0.00575216
0.00595487
0.00606648
0.00632221
0.00638664
0.00663595
0.0246412
0.0123087
0.00551687
0.00554089
0.00556707
0.00564454
0.00571157
0.005842
0.00595451
0.00612321
0.00626567
0.00643881
0.00653637
0.00682153
0.0174151
0.00565191
0.0056787
0.00571068
0.00579422
0.00585256
0.0060026
0.00606459
0.00626273
0.00631862
0.00659421
0.00654501
0.0248822
0.0138847
0.00594533
0.00597377
0.00598522
0.00606785
0.00610703
0.00621787
0.00632033
0.00643553
0.00658579
0.00649286
0.00701707
0.020451
0.00609217
0.00611307
0.00614298
0.00621148
0.00625573
0.00641451
0.00638455
0.00653645
0.00652827
0.0068809
0.0284391
0.00645525
0.00649048
0.00645309
0.00655689
0.00650339
0.00655047
0.00663323
0.00681984
0.0248841
0.0204431
0.00651195
0.00650993
0.00655841
0.0065341
0.0066159
0.00685487
0.0246367
0.0174113
0.0138834
0.00686017
0.0069151
0.00676838
0.0070109
0.0232041
0.0163706
0.0123042
0.017833
0.0181733
0.0162466
0.0190835
0.0132988
0.00413835
0.00414591
0.00415227
0.00418239
0.00419983
0.00426988
0.00431345
0.00446206
0.00456033
0.00484975
0.0050008
0.00540204
0.00548115
0.00585138
0.016959
0.00414591
0.00415462
0.0041609
0.00419249
0.00421143
0.00428321
0.00432991
0.00448153
0.00458416
0.0048798
0.00502543
0.00544306
0.00548413
0.00592044
0.0173089
0.00415221
0.00416088
0.00416831
0.00420152
0.00422184
0.00429582
0.00434475
0.0044961
0.0046047
0.00488622
0.00504697
0.00539997
0.00551846
0.00576362
0.0153525
0.00418237
0.00419251
0.00420154
0.00423837
0.0042642
0.00434406
0.00440493
0.00456372
0.00468939
0.00497303
0.00512998
0.00550938
0.00551201
0.00600156
0.0182238
0.00419972
0.00421133
0.00422166
0.00426392
0.00429173
0.0043812
0.00444383
0.00461218
0.00473672
0.0050042
0.00515714
0.00544934
0.00554455
0.0223608
0.0124217
0.00426987
0.00428315
0.00429565
0.00434374
0.00438124
0.00448012
0.00456625
0.00474018
0.0049002
0.00512569
0.00534371
0.0054905
0.00581702
0.0154674
0.00431333
0.00432962
0.00434421
0.00440401
0.00444312
0.00456514
0.00463954
0.00484351
0.00494882
0.00522167
0.00530009
0.00554594
0.0237549
0.0113801
0.00446211
0.00448129
0.00449556
0.00456268
0.00461126
0.00473874
0.00484326
0.00502404
0.00516985
0.00536199
0.00547243
0.00573345
0.0164751
0.0045603
0.00458368
0.00460375
0.00468759
0.00473476
0.00489711
0.00494681
0.00516668
0.00520377
0.00552428
0.00542838
0.0239935
0.0129497
0.00485001
0.00487947
0.00488549
0.00497132
0.00500225
0.00512285
0.00521957
0.00535991
0.00552801
0.00545194
0.00588121
0.0195415
0.00500101
0.00502498
0.005046
0.0051278
0.00515429
0.00533952
0.0052963
0.00546787
0.0054358
0.00593822
0.0275015
0.00540267
0.00544277
0.00539949
0.00550778
0.00544689
0.00548713
0.00554323
0.00573206
0.0240013
0.0195527
0.00548172
0.00548392
0.00551783
0.00551025
0.00554151
0.0058129
0.0237509
0.0164716
0.0129507
0.00585237
0.00592011
0.0057631
0.00599999
0.0223582
0.0154636
0.0113763
0.0169607
0.0173091
0.0153521
0.0182227
0.0124194
0.00306537
0.00306867
0.00306649
0.00308243
0.00307915
0.00312107
0.00312686
0.00322964
0.00327193
0.00351625
0.00363915
0.00408627
0.00418782
0.00463509
0.0161209
0.00306868
0.00307323
0.00307068
0.00308769
0.0030857
0.00312887
0.00313691
0.00324139
0.00328815
0.00353709
0.0036626
0.00412793
0.00418827
0.00472836
0.0164883
0.00306643
0.00307066
0.0030685
0.00308661
0.00308474
0.00312868
0.00313651
0.00323843
0.00328807
0.0035214
0.00366657
0.00406353
0.0041951
0.00454063
0.0144273
0.00308241
0.00308771
0.00308663
0.0031078
0.00311034
0.00315964
0.00317869
0.00328853
0.00335942
0.00360218
0.00376001
0.00417702
0.00420038
0.00482297
0.0173836
0.00307904
0.00308559
0.00308456
0.00311005
0.00311215
0.00316963
0.00318676
0.00330758
0.00337391
0.00361786
0.0037596
0.00409387
0.0041959
0.0216355
0.0115979
0.00312104
0.00312879
0.00312851
0.00315931
0.00316967
0.00323773
0.00328189
0.00341477
0.00353791
0.00375393
0.00398911
0.00413215
0.00457064
0.0145899
0.00312669
0.00313658
0.00313593
0.00317771
0.00318598
0.00328064
0.00331169
0.00348728
0.00356406
0.00384284
0.00392556
0.00417655
0.0229872
0.0104374
0.00322963
0.00324109
0.00323787
0.00328743
0.00330657