/*--------------------------------*- C++ -*----------------------------------*\
| =========                 |                                                 |
| \\      /  F ield         | OpenFOAM: The Open Source CFD Toolbox           |
|  \\    /   O peration     | Version:  2.1.1                                 |
|   \\  /    A nd           | Web:      www.OpenFOAM.org                      |
|    \\/     M anipulation  |                                                 |
\*---------------------------------------------------------------------------*/
FoamFile
{
    version     2.0;
    format      ascii;
    class       volScalarField;
    location    "0.003";
    object      p;
}
// * * * * * * * * * * * * * * * * * * * * * * * * * * * * * * * * * * * * * //

dimensions      [0 2 -2 0 0 0 0];

internalField   nonuniform List<scalar> 
10156
(
0.051871
0.0518716
0.0518688
0.0518701
0.0518631
0.0518673
0.0518538
0.0518661
0.0518397
0.0518742
0.0518137
0.0519039
0.0517605
0.0519656
0.0627083
0.0518716
0.0518719
0.0518689
0.05187
0.0518632
0.051867
0.0518542
0.051866
0.0518407
0.051875
0.0518159
0.0519105
0.0517543
0.0519946
0.0630394
0.051869
0.0518691
0.0518661
0.051867
0.0518605
0.0518639
0.0518525
0.051862
0.0518415
0.0518651
0.0518239
0.0518764
0.0517987
0.0518784
0.0611665
0.0518702
0.0518701
0.051867
0.0518674
0.0518614
0.0518642
0.0518543
0.0518629
0.0518447
0.0518691
0.0518261
0.0519031
0.0517516
0.0520701
0.0639157
0.0518635
0.0518634
0.0518607
0.0518615
0.0518564
0.0518593
0.0518508
0.0518571
0.0518444
0.0518547
0.0518384
0.0518344
0.0518615
0.0680515
0.0581711
0.0518675
0.0518672
0.051864
0.0518643
0.0518593
0.0518611
0.0518549
0.051859
0.051851
0.0518564
0.0518632
0.0518244
0.0519949
0.0613103
0.0518542
0.0518545
0.0518527
0.0518545
0.0518508
0.0518549
0.0518478
0.0518555
0.0518432
0.0518661
0.0518075
0.0518998
0.0695783
0.0572439
0.0518664
0.0518662
0.0518621
0.051863
0.0518573
0.0518591
0.0518557
0.0518577
0.0518492
0.0518576
0.0518184
0.0520009
0.0624057
0.0518401
0.051841
0.0518417
0.0518448
0.0518444
0.0518511
0.0518433
0.051849
0.0518579
0.0518707
0.0518592
0.0697741
0.0588425
0.0518745
0.0518752
0.0518654
0.0518694
0.0518551
0.0518567
0.0518668
0.0518583
0.0518759
0.0517043
0.0520676
0.0653533
0.0518143
0.0518163
0.0518242
0.0518264
0.0518384
0.0518637
0.0518068
0.0518217
0.0518574
0.0521089
0.0733675
0.0519045
0.051911
0.0518768
0.0519035
0.0518347
0.0518247
0.0518999
0.0520007
0.0697755
0.065348
0.0517612
0.0517549
0.0517993
0.0517521
0.0518619
0.0519952
0.0695785
0.0624061
0.0588411
0.0519663
0.0519952
0.0518789
0.0520706
0.0680519
0.0613107
0.0572441
0.0627094
0.0630406
0.0611676
0.0639164
0.0581716
0.0508011
0.0508017
0.0507988
0.0508005
0.0507938
0.0507985
0.0507853
0.0507986
0.0507724
0.0508085
0.0507458
0.0508382
0.050694
0.0509005
0.0616418
0.0508017
0.050802
0.050799
0.0508004
0.0507939
0.0507983
0.0507858
0.0507985
0.0507734
0.0508089
0.0507455
0.0508409
0.0506935
0.0509301
0.0619733
0.0507991
0.0507992
0.0507963
0.0507976
0.0507915
0.0507955
0.0507845
0.0507947
0.0507744
0.0507991
0.0507562
0.0508106
0.0507324
0.050813
0.0601003
0.0508007
0.0508005
0.0507975
0.0507984
0.0507928
0.0507961
0.0507866
0.0507957
0.0507776
0.0508032
0.0507588
0.0508372
0.050685
0.0510043
0.0628499
0.0507942
0.0507942
0.0507917
0.0507929
0.0507881
0.0507915
0.0507833
0.0507902
0.0507777
0.0507883
0.050772
0.0507684
0.0507951
0.0669861
0.0571053
0.0507988
0.0507985
0.0507956
0.0507962
0.0507915
0.0507937
0.0507878
0.0507922
0.0507841
0.0507902
0.0507965
0.0507585
0.0509286
0.0602443
0.0507859
0.0507862
0.0507846
0.0507867
0.0507833
0.0507877
0.0507808
0.050789
0.0507765
0.0508001
0.050741
0.0508339
0.0685125
0.0561778
0.0507989
0.0507987
0.0507948
0.0507958
0.0507903
0.0507924
0.0507892
0.0507914
0.0507827
0.0507919
0.0507526
0.0509351
0.0613394
0.0507728
0.0507736
0.0507746
0.0507777
0.0507777
0.0507842
0.0507766
0.0507826
0.050792
0.0508062
0.0507976
0.0687089
0.0577763
0.0508088
0.0508091
0.0507993
0.0508035
0.0507887
0.0507905
0.0508006
0.050792
0.0508058
0.0506395
0.0510438
0.0642921
0.0507464
0.050746
0.0507566
0.0507592
0.050772
0.0507969
0.0507404
0.050753
0.0507911
0.0510043
0.072308
0.0508388
0.0508414
0.050811
0.0508377
0.0507687
0.0507587
0.0508339
0.0509349
0.0687121
0.0642895
0.0506949
0.0506942
0.0507331
0.0506856
0.0507954
0.0509289
0.0685127
0.0613397
0.0577757
0.0509014
0.050931
0.0508138
0.0510049
0.0669866
0.0602447
0.056178
0.0616431
0.0619748
0.0601016
0.0628508
0.0571059
0.0497319
0.0497322
0.0497293
0.049731
0.0497246
0.0497297
0.0497171
0.0497313
0.0497047
0.0497428
0.0496788
0.049773
0.0496254
0.0498332
0.0605746
0.0497321
0.0497324
0.0497297
0.0497312
0.049725
0.0497298
0.0497177
0.0497313
0.0497058
0.0497437
0.0496835
0.0497795
0.0496178
0.0498617
0.0609064
0.0497296
0.0497299
0.0497272
0.0497287
0.049723
0.0497273
0.0497167
0.0497275
0.0497073
0.0497333
0.0496898
0.0497455
0.0496639
0.0497463
0.0590336
0.0497312
0.0497313
0.0497287
0.0497298
0.0497245
0.0497281
0.0497189
0.0497286
0.0497103
0.0497372
0.0496917
0.0497713
0.0496183
0.0499379
0.0617837
0.0497251
0.0497253
0.0497231
0.0497246
0.0497201
0.0497238
0.0497159
0.0497231
0.049711
0.0497219
0.0497056
0.0497024
0.0497285
0.0659204
0.056039
0.04973
0.04973
0.0497274
0.0497282
0.0497238
0.0497263
0.0497206
0.0497253
0.049717
0.0497239
0.0497298
0.0496924
0.049862
0.0591782
0.0497177
0.0497181
0.0497167
0.0497189
0.0497159
0.0497205
0.0497136
0.0497225
0.0497096
0.0497341
0.0496743
0.0497678
0.0674466
0.0551116
0.0497316
0.0497314
0.0497275
0.0497286
0.0497232
0.0497254
0.0497226
0.0497245
0.0497159
0.0497252
0.0496854
0.0498687
0.0602733
0.049705
0.0497059
0.0497072
0.0497104
0.049711
0.0497172
0.0497099
0.0497159
0.0497257
0.0497383
0.0497271
0.0676425
0.0567104
0.0497429
0.0497437
0.0497333
0.0497373
0.0497221
0.049724
0.0497343
0.0497259
0.0497397
0.0495729
0.0499414
0.0632235
0.0496793
0.0496839
0.04969
0.049692
0.0497056
0.04973
0.0496742
0.0496859
0.04973
0.0499692
0.0712399
0.0497736
0.04978
0.0497459
0.0497718
0.0497027
0.0496927
0.0497679
0.049869
0.0676477
0.0632295
0.0496265
0.0496187
0.0496649
0.0496191
0.049729
0.0498624
0.0674469
0.0602736
0.0567108
0.0498343
0.0498629
0.0497474
0.0499388
0.065921
0.0591786
0.0551118
0.0605761
0.0609082
0.0590352
0.0617848
0.0560397
0.048663
0.0486632
0.0486604
0.048662
0.0486559
0.0486611
0.0486489
0.048664
0.0486366
0.0486759
0.0486099
0.0487063
0.0485591
0.048768
0.0595081
0.0486632
0.0486635
0.0486608
0.0486623
0.0486564
0.0486614
0.0486497
0.0486641
0.048638
0.0486758
0.0486079
0.04871
0.0485616
0.0487979
0.0598399
0.0486606
0.048661
0.0486585
0.0486601
0.0486547
0.0486593
0.048649
0.0486605
0.0486399
0.0486669
0.0486216
0.0486793
0.0485984
0.0486808
0.0579669
0.0486622
0.0486624
0.0486601
0.0486613
0.0486564
0.0486602
0.0486513
0.0486616
0.048643
0.0486709
0.0486248
0.0487053
0.0485517
0.0488719
0.0607173
0.0486563
0.0486567
0.0486548
0.0486565
0.0486523
0.0486562
0.0486488
0.0486562
0.0486445
0.0486557
0.0486392
0.0486364
0.0486619
0.0648544
0.0549724
0.0486613
0.0486615
0.0486593
0.0486602
0.0486562
0.0486588
0.0486535
0.0486584
0.0486505
0.0486575
0.0486632
0.0486263
0.0487955
0.0581117
0.0486493
0.0486499
0.048649
0.0486514
0.0486487
0.0486534
0.0486465
0.048656
0.0486432
0.048668
0.0486076
0.0487016
0.0663803
0.0540451
0.0486641
0.048664
0.0486604
0.0486616
0.0486562
0.0486584
0.0486558
0.0486577
0.0486493
0.0486588
0.0486192
0.0488026
0.0592071
0.0486366
0.0486376
0.0486396
0.0486429
0.0486444
0.0486504
0.0486431
0.0486492
0.0486591
0.0486727
0.0486635
0.0665771
0.0556444
0.0486757
0.0486751
0.0486664
0.0486708
0.0486557
0.0486576
0.048668
0.0486589
0.0486724
0.0485074
0.0488986
0.062159
0.04861
0.0486083
0.0486213
0.0486249
0.0486393
0.0486634
0.0486076
0.048619
0.0486617
0.0488826
0.0701765
0.0487067
0.0487103
0.0486797
0.0487058
0.0486368
0.0486267
0.0487017
0.0488029
0.0665822
0.0621637
0.0485607
0.0485625
0.0485999
0.0485528
0.0486626
0.0487959
0.0663808
0.0592075
0.0556452
0.0487698
0.0488
0.0486826
0.0488731
0.0648552
0.0581123
0.0540454
0.05951
0.0598423
0.0579691
0.0607189
0.0549733
0.0475939
0.0475943
0.0475915
0.047593
0.0475871
0.0475925
0.0475807
0.0475967
0.0475693
0.0476108
0.0475445
0.0476415
0.0474905
0.0477001
0.0584415
0.0475943
0.0475946
0.0475919
0.0475934
0.0475878
0.0475929
0.0475818
0.047597
0.0475711
0.0476127
0.0475529
0.0476464
0.0474817
0.0477283
0.0587733
0.0475918
0.0475922
0.0475897
0.0475915
0.0475863
0.0475912
0.0475815
0.0475937
0.0475731
0.0476018
0.0475567
0.0476141
0.0475294
0.0476138
0.0569004
0.0475931
0.0475935
0.0475914
0.0475927
0.0475883
0.0475922
0.047584
0.0475947
0.047576
0.047605
0.0475584
0.0476395
0.0474851
0.0478054
0.059651
0.0475875
0.0475881
0.0475865
0.0475884
0.0475846
0.0475888
0.0475818
0.0475896
0.0475779
0.0475896
0.0475731
0.0475704
0.0475954
0.0637885
0.0539064
0.0475927
0.0475931
0.0475912
0.0475923
0.0475888
0.0475914
0.0475866
0.0475916
0.047584
0.0475911
0.0475967
0.0475602
0.0477291
0.0570457
0.0475811
0.047582
0.0475815
0.047584
0.0475818
0.0475866
0.0475798
0.0475893
0.0475765
0.0476018
0.0475411
0.0476354
0.0653143
0.052979
0.0475967
0.0475968
0.0475935
0.0475946
0.0475896
0.0475917
0.0475893
0.0475911
0.0475826
0.0475924
0.0475527
0.0477365
0.0581409
0.0475689
0.04757
0.0475724
0.0475757
0.0475778
0.0475839
0.0475765
0.0475826
0.0475928
0.0476062
0.047596
0.0655112
0.0545784
0.0476096
0.0476085
0.0476003
0.0476047
0.0475896
0.0475913
0.0476018
0.0475927
0.0476066
0.047441
0.0478202
0.0610931
0.047543
0.0475393
0.0475542
0.0475582
0.0475731
0.0475969
0.0475412
0.0475528
0.0475967
0.047827
0.0691097
0.0476409
0.0476448
0.0476141
0.0476399
0.0475708
0.0475605
0.0476356
0.0477368
0.0655164
0.0610978
0.0474939
0.0474977
0.0475336
0.0474864
0.0475961
0.0477295
0.0653148
0.0581414
0.0545792
0.0477041
0.0477346
0.047617
0.0478071
0.0637894
0.0570463
0.0529794
0.0584441
0.0587766
0.0569032
0.059653
0.0539075
0.0465236
0.0465248
0.046522
0.0465238
0.0465181
0.0465242
0.0465127
0.0465299
0.0465018
0.0465448
0.0464774
0.0465757
0.0464242
0.0466345
0.0573753
0.0465248
0.0465253
0.0465228
0.0465245
0.0465192
0.046525
0.0465139
0.0465301
0.0465036
0.0465463
0.0464851
0.0465798
0.0464166
0.0466629
0.0577074
0.0465222
0.0465229
0.0465206
0.0465227
0.0465179
0.0465234
0.0465137
0.0465269
0.0465058
0.0465356
0.0464896
0.0465482
0.046463
0.0465481
0.0558343
0.046524
0.0465246
0.0465227
0.0465243
0.0465203
0.0465247
0.0465165
0.046528
0.0465088
0.0465388
0.0464917
0.0465735
0.0464187
0.0467394
0.0585848
0.0465184
0.0465194
0.046518
0.0465204
0.0465168
0.0465215
0.0465146
0.0465229
0.0465112
0.0465233
0.0465068
0.0465042
0.0465291
0.0627226
0.0528405
0.0465245
0.0465251
0.0465235
0.0465247
0.0465215
0.0465243
0.0465195
0.046525
0.0465172
0.0465248
0.0465302
0.0464941
0.0466628
0.0559798
0.046513
0.046514
0.0465137
0.0465165
0.0465146
0.0465196
0.0465131
0.0465225
0.0465098
0.0465357
0.0464748
0.0465693
0.0642483
0.0519129
0.04653
0.04653
0.0465268
0.0465279
0.0465229
0.046525
0.0465226
0.0465247
0.0465162
0.0465262
0.0464863
0.0466702
0.0570746
0.0465017
0.046503
0.0465054
0.0465086
0.0465112
0.0465173
0.0465099
0.0465161
0.0465267
0.0465402
0.04653
0.0644449
0.0535119
0.0465445
0.046545
0.0465349
0.0465387
0.0465234
0.046525
0.0465359
0.0465263
0.0465402
0.0463748
0.0467587
0.0600264
0.0464777
0.0464838
0.0464892
0.0464918
0.0465069
0.0465304
0.046475
0.0464863
0.04653
0.046756
0.0680438
0.0465762
0.0465821
0.0465488
0.046574
0.0465046
0.0464944
0.0465695
0.0466705
0.0644502
0.0600318
0.0464258
0.046418
0.0464647
0.0464198
0.0465297
0.0466632
0.0642488
0.0570751
0.0535129
0.0466363
0.0466651
0.0465499
0.0467406
0.0627234
0.0559803
0.0519133
0.0573775
0.0577102
0.0558368
0.0585865
0.0528415
0.045453
0.0454547
0.045452
0.0454549
0.0454491
0.0454565
0.0454446
0.045463
0.0454336
0.0454771
0.0454086
0.0455081
0.045359
0.0455704
0.0563096
0.0454548
0.0454559
0.0454534
0.0454561
0.0454506
0.0454574
0.0454459
0.0454633
0.0454352
0.0454763
0.0454067
0.0455122
0.0453614
0.0456002
0.0566418
0.0454522
0.0454535
0.0454511
0.0454541
0.0454491
0.0454557
0.0454456
0.0454597
0.0454378
0.045468
0.0454204
0.0454815
0.0453985
0.0454832
0.0547684
0.0454552
0.0454562
0.0454542
0.0454564
0.0454522
0.0454574
0.0454487
0.0454611
0.0454414
0.045472
0.0454242
0.045507
0.0453523
0.0456736
0.0575188
0.0454493
0.0454507
0.0454492
0.0454522
0.0454484
0.0454538
0.0454467
0.0454558
0.045444
0.0454566
0.04544
0.0454378
0.0454626
0.0616564
0.0517741
0.0454568
0.0454576
0.0454558
0.0454574
0.0454539
0.0454571
0.0454521
0.0454582
0.0454503
0.0454583
0.0454634
0.0454277
0.0455961
0.0549132
0.0454449
0.0454461
0.0454456
0.0454487
0.0454467
0.0454521
0.0454458
0.0454555
0.0454429
0.045469
0.0454081
0.0455027
0.0631815
0.0508462
0.0454632
0.0454634
0.0454598
0.0454611
0.0454558
0.0454583
0.0454556
0.0454584
0.0454497
0.0454602
0.0454196
0.0456035
0.0560076
0.0454338
0.0454351
0.0454377
0.0454414
0.0454441
0.0454504
0.045443
0.0454497
0.0454605
0.0454736
0.0454633
0.0633784
0.052445
0.0454773
0.0454762
0.0454679
0.0454721
0.0454568
0.0454585
0.0454691
0.0454603
0.0454737
0.0453082
0.0456903
0.0589601
0.0454091
0.0454069
0.0454206
0.0454245
0.0454402
0.0454636
0.0454083
0.0454196
0.0454636
0.045691
0.0669774
0.0455088
0.045513
0.0454821
0.0455075
0.0454382
0.0454281
0.0455029
0.0456038
0.0633837
0.0589651
0.0453601
0.0453625
0.0453995
0.0453531
0.0454632
0.0455965
0.063182
0.0560081
0.052446
0.0455716
0.0456015
0.0454843
0.0456745
0.0616571
0.0549137
0.0508465
0.0563113
0.0566438
0.0547703
0.0575201
0.0517749
0.0443833
0.0443852
0.0443825
0.0443865
0.0443803
0.0443891
0.0443761
0.0443956
0.0443652
0.0444099
0.044341
0.0444412
0.0442918
0.0445038
0.0552428
0.0443853
0.0443867
0.0443842
0.0443877
0.0443818
0.04439
0.0443776
0.0443961
0.0443669
0.0444092
0.0443394
0.0444459
0.0442939
0.0445337
0.0555752
0.0443827
0.0443842
0.0443817
0.0443855
0.04438
0.0443879
0.044377
0.0443923
0.0443697
0.044401
0.0443529
0.0444149
0.0443315
0.0444168
0.053702
0.0443867
0.0443878
0.0443856
0.0443884
0.0443836
0.0443898
0.0443805
0.044394
0.0443736
0.0444051
0.0443568
0.0444403
0.0442855
0.0446072
0.0564525
0.0443805
0.0443819
0.0443801
0.0443836
0.0443793
0.0443857
0.0443783
0.0443884
0.0443763
0.0443896
0.0443731
0.0443711
0.0443959
0.0605901
0.0507075
0.0443895
0.0443902
0.044388
0.0443899
0.0443858
0.0443898
0.0443844
0.0443915
0.0443831
0.0443916
0.0443963
0.044361
0.0445292
0.0538468
0.0443765
0.0443778
0.0443771
0.0443806
0.0443784
0.0443844
0.0443782
0.0443885
0.0443757
0.0444024
0.044341
0.0444358
0.0621146
0.0497797
0.0443959
0.0443963
0.0443924
0.0443941
0.0443885
0.0443915
0.0443885
0.044392
0.0443826
0.0443931
0.0443526
0.0445369
0.054941
0.0443655
0.0443671
0.0443698
0.0443737
0.0443764
0.0443831
0.0443758
0.0443826
0.0443937
0.0444066
0.0443966
0.0623119
0.0513786
0.0444103
0.0444094
0.0444011
0.0444052
0.0443898
0.0443918
0.0444028
0.0443929
0.0444066
0.0442415
0.0446243
0.0578936
0.0443416
0.0443398
0.0443532
0.0443571
0.0443734
0.0443965
0.0443413
0.0443525
0.0443968
0.0446235
0.065911
0.0444419
0.0444466
0.0444155
0.0444408
0.0443714
0.0443613
0.0444361
0.0445372
0.0623172
0.0578986
0.0442926
0.0442946
0.0443322
0.0442861
0.0443963
0.0445295
0.0621151
0.0549415
0.0513796
0.0445047
0.0445345
0.0444176
0.0446079
0.0605907
0.0538472
0.04978
0.0552442
0.0555767
0.0537034
0.0564534
0.0507081
0.0433146
0.0433162
0.0433133
0.043318
0.0433115
0.0433215
0.0433076
0.0433282
0.0432972
0.0433434
0.0432744
0.0433757
0.0432238
0.0434358
0.0541754
0.0433163
0.0433178
0.043315
0.0433193
0.043313
0.0433223
0.0433091
0.0433289
0.0432994
0.0433444
0.0432804
0.043381
0.0432176
0.0434645
0.0545077
0.0433134
0.043315
0.0433123
0.0433168
0.043311
0.0433199
0.0433085
0.0433251
0.0433019
0.0433346
0.0432868
0.0433487
0.043263
0.0433494
0.0526348
0.0433183
0.0433194
0.0433169
0.0433202
0.043315
0.0433222
0.0433124
0.0433271
0.043306
0.0433382
0.0432895
0.0433738
0.0432186
0.0435404
0.0553856
0.0433117
0.0433131
0.0433111
0.043315
0.0433106
0.0433179
0.0433101
0.0433211
0.0433085
0.0433224
0.043306
0.0433044
0.043329
0.0595235
0.0496411
0.0433219
0.0433225
0.0433201
0.0433223
0.043318
0.0433227
0.0433169
0.0433247
0.0433158
0.0433248
0.0433291
0.0432942
0.0434623
0.0527804
0.0433079
0.0433093
0.0433086
0.0433125
0.0433102
0.0433169
0.0433105
0.0433212
0.0433081
0.0433356
0.0432739
0.0433692
0.0610481
0.0487132
0.0433286
0.0433291
0.0433253
0.0433272
0.0433212
0.0433247
0.0433212
0.0433252
0.0433152
0.0433258
0.0432857
0.0434704
0.0538747
0.0432976
0.0432996
0.0433021
0.0433061
0.0433086
0.0433158
0.0433081
0.0433153
0.0433265
0.0433396
0.0433297
0.0612452
0.0503122
0.0433438
0.0433447
0.0433348
0.0433384
0.0433226
0.0433248
0.0433352
0.0433265
0.0433398
0.0431748
0.0435566
0.056827
0.0432749
0.0432809
0.0432871
0.0432898
0.0433062
0.0433292
0.043274
0.0432858
0.0433301
0.0435574
0.0648442
0.0433763
0.0433815
0.0433491
0.0433741
0.0433047
0.0432945
0.0433694
0.0434706
0.0612505
0.0568322
0.0432245
0.0432182
0.0432635
0.0432191
0.0433293
0.0434626
0.0610485
0.0538751
0.0503132
0.0434365
0.0434651
0.04335
0.0435409
0.059524
0.0527807
0.0487134
0.0541765
0.0545089
0.0526359
0.0553864
0.0496416
0.0422455
0.0422469
0.0422438
0.0422493
0.0422426
0.0422539
0.0422393
0.0422614
0.0422297
0.0422767
0.0422068
0.0423086
0.042158
0.0423708
0.053109
0.0422471
0.0422485
0.0422456
0.0422507
0.0422442
0.0422547
0.0422409
0.0422621
0.0422318
0.0422764
0.0422064
0.0423121
0.0421598
0.0424002
0.0534411
0.0422439
0.0422456
0.0422429
0.0422482
0.0422422
0.0422523
0.0422402
0.0422582
0.0422342
0.0422676
0.0422189
0.042282
0.0421974
0.0422835
0.0515682
0.0422496
0.0422508
0.0422483
0.0422522
0.0422469
0.0422551
0.0422446
0.0422604
0.0422385
0.0422714
0.0422224
0.0423071
0.0421517
0.042474
0.054319
0.0422428
0.0422444
0.0422423
0.0422469
0.0422425
0.0422506
0.0422422
0.0422541
0.0422408
0.0422556
0.0422393
0.0422374
0.0422622
0.0584569
0.0485746
0.0422542
0.0422549
0.0422524
0.0422551
0.0422507
0.042256
0.0422496
0.0422579
0.0422485
0.0422579
0.0422621
0.0422277
0.0423956
0.0517136
0.0422396
0.0422411
0.0422404
0.0422447
0.0422423
0.0422496
0.0422428
0.0422539
0.0422405
0.0422683
0.042207
0.0423028
0.0599815
0.0476462
0.0422618
0.0422624
0.0422584
0.0422605
0.0422542
0.0422579
0.042254
0.0422583
0.0422482
0.0422598
0.0422191
0.0424038
0.0528081
0.0422302
0.0422321
0.0422344
0.0422386
0.042241
0.0422486
0.0422406
0.0422481
0.0422597
0.0422732
0.0422633
0.0601787
0.0492454
0.0422771
0.0422768
0.0422679
0.0422716
0.0422558
0.0422581
0.0422689
0.0422593
0.0422731
0.0421083
0.0424912
0.0557605
0.0422073
0.0422068
0.0422192
0.0422227
0.0422395
0.0422622
0.0422072
0.042219
0.0422633
0.0424898
0.0637776
0.0423091
0.0423125
0.0422823
0.0423074
0.0422376
0.0422279
0.0423029
0.0424041
0.0601839
0.0557654
0.0421586
0.0421603
0.0421978
0.0421521
0.0422624
0.0423958
0.0599819
0.0528085
0.0492463
0.0423713
0.0424006
0.0422839
0.0424744
0.0584573
0.0517138
0.0476463
0.0531099
0.0534422
0.0515691
0.0543196
0.048575
0.0411754
0.0411773
0.0411743
0.0411807
0.0411739
0.0411863
0.0411712
0.0411948
0.0411626
0.0412106
0.0411407
0.0412433
0.0410909
0.0413036
0.0520429
0.0411774
0.0411793
0.0411765
0.0411823
0.0411758
0.0411874
0.041173
0.0411955
0.0411646
0.0412114
0.0411465
0.0412481
0.0410849
0.0413319
0.0523749
0.0411744
0.0411765
0.0411739
0.0411799
0.041174
0.041185
0.0411724
0.0411915
0.0411669
0.0412015
0.041153
0.0412159
0.0411296
0.0412166
0.0505018
0.041181
0.0411825
0.04118
0.0411846
0.0411792
0.0411882
0.0411772
0.0411937
0.0411713
0.041205
0.0411556
0.0412407
0.0410851
0.0414074
0.0532525
0.0411741
0.0411759
0.0411741
0.0411792
0.0411749
0.0411836
0.0411746
0.0411873
0.0411736
0.0411891
0.0411723
0.0411712
0.0411957
0.0573904
0.047508
0.0411867
0.0411876
0.0411852
0.0411883
0.0411836
0.0411892
0.0411824
0.0411911
0.0411816
0.0411914
0.0411955
0.0411614
0.041329
0.0506469
0.0411715
0.0411732
0.0411725
0.0411772
0.0411747
0.0411824
0.0411752
0.0411869
0.0411735
0.0412025
0.0411406
0.0412363
0.0589148
0.0465794
0.0411952
0.0411958
0.0411917
0.0411939
0.0411874
0.0411912
0.041187
0.0411917
0.0411816
0.0411929
0.0411525
0.0413374
0.0517415
0.041163
0.0411649
0.0411671
0.0411715
0.0411737
0.0411816
0.0411734
0.0411816
0.0411933
0.0412068
0.0411965
0.0591121
0.0481785
0.0412111
0.0412117
0.0412018
0.0412052
0.0411892
0.0411914
0.041202
0.0411935
0.0412069
0.041042
0.0414231
0.0546936
0.0411412
0.0411468
0.0411533
0.0411559
0.0411724
0.0411956
0.0411406
0.0411526
0.0411969
0.0414244
0.0627107
0.0412437
0.0412485
0.0412162
0.041241
0.0411714
0.0411615
0.0412364
0.0413376
0.0591174
0.0546988
0.0410914
0.0410852
0.0411299
0.0410854
0.0411958
0.0413291
0.0589151
0.0517418
0.0481794
0.041304
0.0413323
0.0412169
0.0414076
0.0573906
0.0506471
0.0465794
0.0520437
0.0523758
0.0505026
0.053253
0.0475082
0.0401055
0.040108
0.0401054
0.0401125
0.0401056
0.0401188
0.0401032
0.0401279
0.0400951
0.0401436
0.0400731
0.0401758
0.0400248
0.0402381
0.0509768
0.0401082
0.0401105
0.0401079
0.0401144
0.0401077
0.0401201
0.0401052
0.0401286
0.0400971
0.0401433
0.0400729
0.0401792
0.040026
0.0402673
0.0513087
0.0401055
0.0401079
0.0401055
0.0401121
0.040106
0.0401178
0.0401045
0.0401245
0.0400994
0.0401345
0.0400851
0.040149
0.0400639
0.0401506
0.0494356
0.0401128
0.0401145
0.0401122
0.0401172
0.0401116
0.0401212
0.0401095
0.0401269
0.0401042
0.0401383
0.0400886
0.040174
0.0400184
0.0403409
0.052186
0.0401058
0.0401078
0.0401061
0.0401117
0.0401072
0.0401162
0.0401069
0.0401203
0.0401063
0.0401224
0.0401057
0.0401044
0.0401289
0.0563237
0.0464412
0.0401192
0.0401203
0.0401179
0.0401212
0.0401162
0.0401222
0.0401152
0.0401244
0.0401149
0.0401247
0.040129
0.0400948
0.0402623
0.0495802
0.0401035
0.0401054
0.0401047
0.0401096
0.0401069
0.0401152
0.0401077
0.0401204
0.0401065
0.0401356
0.0400738
0.0401698
0.0578482
0.0455128
0.0401283
0.0401288
0.0401247
0.040127
0.0401204
0.0401245
0.0401204
0.0401255
0.0401153
0.0401273
0.0400861
0.040271
0.0506747
0.0400955
0.0400973
0.0400996
0.0401043
0.0401064
0.0401149
0.0401067
0.0401151
0.0401268
0.0401405
0.04013
0.0580455
0.047112
0.040144
0.0401436
0.0401348
0.0401385
0.0401226
0.0401249
0.0401363
0.0401266
0.0401403
0.0399755
0.0403579
0.0536271
0.0400735
0.0400732
0.0400854
0.0400887
0.0401058
0.040129
0.040074
0.0400859
0.04013
0.0403562
0.0616443
0.0401762
0.0401795
0.0401492
0.0401742
0.0401046
0.0400949
0.0401698
0.0402711
0.0580506
0.053632
0.0400252
0.0400263
0.0400641
0.0400185
0.040129
0.0402624
0.0578484
0.050675
0.0471128
0.0402384
0.0402675
0.0401508
0.0403411
0.0563238
0.0495803
0.0455128
0.0509774
0.0513094
0.0494362
0.0521864
0.0464414
0.039037
0.0390398
0.0390372
0.0390448
0.0390376
0.0390514
0.0390351
0.0390606
0.0390274
0.0390766
0.039006
0.0391093
0.0389568
0.0391702
0.0499098
0.0390399
0.0390424
0.0390397
0.0390465
0.0390397
0.0390526
0.0390371
0.0390612
0.0390295
0.0390774
0.0390116
0.0391139
0.0389515
0.0391986
0.0502417
0.0390373
0.0390397
0.0390372
0.0390442
0.0390379
0.0390501
0.0390364
0.0390571
0.0390317
0.0390677
0.0390185
0.0390821
0.0389958
0.0390833
0.0483687
0.0390449
0.0390466
0.0390443
0.0390495
0.0390437
0.0390536
0.0390417
0.0390597
0.0390367
0.0390712
0.0390213
0.0391071
0.0389515
0.0392738
0.0511192
0.0390378
0.0390398
0.039038
0.0390437
0.039039
0.0390485
0.0390391
0.0390532
0.0390388
0.0390555
0.0390386
0.0390377
0.0390619
0.0552567
0.0453745
0.0390517
0.0390528
0.0390502
0.0390536
0.0390485
0.039055
0.039048
0.0390577
0.039048
0.039058
0.0390622
0.039028
0.0391956
0.0485134
0.0390354
0.0390373
0.0390365
0.0390417
0.0390391
0.0390481
0.0390404
0.0390537
0.0390396
0.0390696
0.0390069
0.0391032
0.0567814
0.0444463
0.0390609
0.0390614
0.0390573
0.0390598
0.0390533
0.0390577
0.0390537
0.0390591
0.0390484
0.03906
0.0390192
0.0392046
0.049608
0.0390277
0.0390297
0.0390319
0.0390368
0.0390389
0.0390479
0.0390395
0.0390485
0.0390599
0.0390736
0.0390628
0.0569788
0.0460458
0.0390769
0.0390776
0.0390679
0.0390713
0.0390556
0.0390579
0.0390689
0.0390607
0.0390738
0.0389087
0.0392894
0.0525606
0.0390063
0.0390119
0.0390186
0.0390214
0.0390386
0.0390621
0.0390068
0.0390192
0.0390632
0.0392912
0.0605775
0.0391096
0.0391141
0.0390823
0.0391072
0.0390377
0.039028
0.0391031
0.0392046
0.056984
0.0525657
0.0389572
0.0389517
0.038996
0.0389515
0.0390619
0.0391955
0.0567815
0.0496082
0.0460465
0.0391704
0.0391988
0.0390834
0.0392739
0.0552567
0.0485133
0.0444462
0.0499104
0.0502423
0.0483693
0.0511195
0.0453745
0.0379688
0.0379718
0.0379692
0.037977
0.0379694
0.0379836
0.0379669
0.0379928
0.0379593
0.0380087
0.0379379
0.0380413
0.0378902
0.0381041
0.0488426
0.0379719
0.0379743
0.0379716
0.0379786
0.0379715
0.0379847
0.0379689
0.0379934
0.0379614
0.0380085
0.0379383
0.0380452
0.037891
0.038133
0.0491747
0.0379693
0.0379716
0.037969
0.0379761
0.0379695
0.0379821
0.0379682
0.0379896
0.0379637
0.0379999
0.0379501
0.0380147
0.0379296
0.0380167
0.0473017
0.0379771
0.0379787
0.0379762
0.0379816
0.0379755
0.0379858
0.0379738
0.0379923
0.037969
0.0380038
0.0379538
0.0380398
0.0378844
0.0382068
0.0500522
0.0379695
0.0379716
0.0379696
0.0379755
0.0379708
0.0379808
0.0379714
0.0379859
0.0379711
0.0379884
0.0379712
0.0379705
0.0379949
0.0541898
0.0443078
0.0379839
0.0379848
0.0379822
0.0379858
0.0379809
0.0379878
0.0379808
0.0379907
0.0379807
0.0379907
0.037995
0.0379612
0.038129
0.0474469
0.0379672
0.037969
0.0379684
0.0379739
0.0379714
0.0379807
0.037973
0.0379865
0.0379721
0.0380021
0.0379396
0.0380365
0.0557147
0.0433802
0.0379932
0.0379937
0.0379898
0.0379924
0.0379859
0.0379906
0.0379865
0.0379922
0.0379813
0.0379937
0.0379524
0.0381383
0.0485419
0.0379596
0.0379616
0.0379639
0.037969
0.0379712
0.0379807
0.0379722
0.0379812
0.0379926
0.0380068
0.0379963
0.0559127
0.0449799
0.038009
0.0380087
0.0380001
0.0380038
0.0379884
0.0379908
0.0380024
0.0379931
0.0380066
0.0378421
0.038226
0.0514945
0.0379382
0.0379385
0.0379502
0.0379539
0.0379712
0.0379948
0.0379396
0.037952
0.037996
0.0382219
0.0595112
0.0380415
0.0380453
0.0380148
0.0380398
0.0379705
0.037961
0.0380363
0.0381381
0.0559177
0.051499
0.0378904
0.0378911
0.0379296
0.0378844
0.0379948
0.0381288
0.0557147
0.0485419
0.0449805
0.0381042
0.0381331
0.0380168
0.0382068
0.0541897
0.0474468
0.04338
0.048843
0.0491752
0.0473022
0.0500524
0.0443077
0.0369003
0.0369033
0.0369008
0.0369088
0.0369009
0.0369157
0.0368988
0.0369251
0.0368914
0.0369414
0.0368709
0.0369749
0.036823
0.0370365
0.0477751
0.0369034
0.0369059
0.0369033
0.0369105
0.0369031
0.0369167
0.0369008
0.0369257
0.0368937
0.036942
0.0368761
0.0369786
0.0368187
0.0370647
0.0481077
0.0369009
0.0369032
0.0369006
0.0369079
0.0369012
0.0369142
0.0369003
0.0369221
0.036896
0.0369328
0.0368833
0.0369476
0.0368618
0.0369495
0.0462347
0.0369089
0.0369105
0.0369079
0.0369135
0.0369074
0.0369182
0.0369061
0.0369249
0.0369015
0.0369365
0.0368866
0.0369725
0.0368177
0.0371397
0.0489854
0.036901
0.0369032
0.0369013
0.0369074
0.036903
0.0369133
0.0369038
0.0369185
0.0369034
0.0369212
0.0369039
0.0369036
0.0369283
0.0531231
0.0432411
0.0369158
0.0369168
0.0369143
0.0369183
0.0369134
0.0369206
0.0369132
0.0369234
0.0369133
0.0369235
0.036928
0.0368945
0.0370628
0.0463805
0.036899
0.036901
0.0369004
0.0369062
0.0369038
0.0369133
0.0369054
0.0369192
0.0369046
0.0369354
0.0368725
0.03697
0.054648
0.042314
0.0369254
0.0369259
0.0369222
0.036925
0.0369185
0.0369234
0.0369191
0.0369252
0.0369139
0.0369265
0.0368854
0.0370724
0.0474757
0.0368918
0.0368939
0.0368961
0.0369015
0.0369034
0.0369132
0.0369045
0.0369138
0.0369252
0.0369397
0.0369288
0.0548465
0.0439138
0.0369418
0.0369422
0.0369329
0.0369364
0.0369211
0.0369234
0.0369349
0.0369266
0.0369399
0.0367754
0.037151
0.0504275
0.0368713
0.0368762
0.0368834
0.0368865
0.0369037
0.0369277
0.0368722
0.036885
0.0369297
0.0371627
0.0584439
0.0369752
0.0369787
0.0369475
0.0369724
0.0369035
0.0368943
0.0369695
0.0370721
0.0548514
0.0504334
0.0368231
0.0368187
0.0368618
0.0368176
0.0369281
0.0370624
0.0546478
0.0474755
0.0439141
0.0370365
0.0370647
0.0369494
0.0371396
0.0531229
0.0463802
0.0423135
0.0477754
0.0481081
0.046235
0.0489855
0.0432409
0.0358318
0.0358348
0.0358323
0.0358405
0.0358325
0.0358476
0.0358308
0.0358575
0.0358239
0.035874
0.0358039
0.0359063
0.0357563
0.0359708
0.0467092
0.0358349
0.0358374
0.0358348
0.0358422
0.0358348
0.0358488
0.0358329
0.0358581
0.035826
0.0358733
0.035804
0.0359111
0.0357565
0.0359989
0.0470413
0.0358324
0.0358348
0.0358324
0.0358396
0.0358331
0.0358464
0.0358325
0.0358546
0.0358283
0.0358651
0.0358155
0.0358804
0.035796
0.0358831
0.0451681
0.0358405
0.0358422
0.0358396
0.0358456
0.0358395
0.0358506
0.0358384
0.0358575
0.0358339
0.035869
0.0358195
0.0359054
0.0357517
0.0360725
0.0479189
0.0358325
0.0358347
0.0358332
0.0358396
0.0358352
0.0358456
0.035836
0.035851
0.0358359
0.035854
0.0358368
0.035837
0.0358618
0.0520565
0.0421746
0.0358477
0.0358488
0.0358465
0.0358507
0.0358457
0.0358531
0.0358456
0.0358561
0.0358459
0.0358565
0.0358612
0.0358281
0.0359972
0.0453144
0.0358311
0.0358331
0.0358327
0.0358385
0.0358361
0.0358456
0.0358377
0.0358518
0.0358371
0.0358684
0.0358054
0.0359038
0.0535814
0.0412481
0.0358579
0.0358583
0.0358547
0.0358575
0.035851
0.035856
0.0358517
0.0358582
0.0358467
0.0358604
0.0358186
0.0360072
0.0464093
0.0358244
0.0358262
0.0358284
0.0358339
0.0358358
0.0358457
0.035837
0.0358465
0.0358579
0.0358739
0.0358641
0.0537809
0.0428475
0.0358745
0.0358734
0.0358651
0.035869
0.0358538
0.0358563
0.0358681
0.0358598
0.0358724
0.0357095
0.0361095
0.0493647
0.0358042
0.0358041
0.0358154
0.0358194
0.0358365
0.0358608
0.035805
0.0358176
0.0358602
0.0360728
0.0573802
0.0359068
0.0359111
0.0358803
0.0359052
0.0358366
0.0358276
0.0359031
0.0360064
0.0537847
0.049364
0.0357563
0.0357565
0.0357959
0.0357515
0.0358614
0.0359967
0.053581
0.0464088
0.0428475
0.0359706
0.0359987
0.0358829
0.0360721
0.0520561
0.0453139
0.0412474
0.0467093
0.0470415
0.0451683
0.0479188
0.0421743
0.0347636
0.0347663
0.0347638
0.0347719
0.0347642
0.0347794
0.0347627
0.0347897
0.0347562
0.0348058
0.0347356
0.0348381
0.0346891
0.0349049
0.0456439