/*--------------------------------*- C++ -*----------------------------------*\
| =========                 |                                                 |
| \\      /  F ield         | OpenFOAM: The Open Source CFD Toolbox           |
|  \\    /   O peration     | Version:  2.1.1                                 |
|   \\  /    A nd           | Web:      www.OpenFOAM.org                      |
|    \\/     M anipulation  |                                                 |
\*---------------------------------------------------------------------------*/
FoamFile
{
    version     2.0;
    format      ascii;
    class       volScalarField;
    location    "0.001";
    object      p;
}
// * * * * * * * * * * * * * * * * * * * * * * * * * * * * * * * * * * * * * //

dimensions      [0 2 -2 0 0 0 0];

internalField   nonuniform List<scalar> 
10260
(
0.087948
0.0886333
0.0841954
0.084354
0.0966639
0.0867796
0.0862003
0.087942
0.0839565
0.0839084
0.08428
0.0841888
0.0842359
0.0843898
0.0980175
0.0982565
0.0840415
0.0840428
0.0839895
0.0839706
0.0840449
0.084053
0.084283
0.0844241
0.100693
0.0904206
0.0839706
0.0839551
0.0840607
0.0840259
0.0840759
0.0840979
0.084093
0.0840575
0.0845258
0.0954358
0.105729
0.0840008
0.0839998
0.0839978
0.0839974
0.0840065
0.0840571
0.0840519
0.0841803
0.0839428
0.0845088
0.0950264
0.107324
0.0839753
0.083971
0.0840071
0.0839973
0.0840306
0.0840269
0.0840774
0.0840288
0.0842211
0.0839484
0.0845328
0.0987209
0.0839905
0.0839926
0.083997
0.0840021
0.0840044
0.0840279
0.0840206
0.0840875
0.0840322
0.0841906
0.084066
0.0844314
0.097974
0.0839873
0.0839869
0.0839991
0.0839968
0.0840116
0.0840083
0.0840352
0.0840224
0.0840812
0.0840598
0.0840988
0.0842975
0.0968172
0.0998551
0.0840016
0.0840016
0.0840015
0.084003
0.0840022
0.0840109
0.0840087
0.0840294
0.0840295
0.0840622
0.0841027
0.0840576
0.0844142
0.0990779
0.0840047
0.0840037
0.0840055
0.0840029
0.0840059
0.0840022
0.0840118
0.0840044
0.0840322
0.0840093
0.0840796
0.0840475
0.0842485
0.0987492
0.0875877
0.0840144
0.084013
0.0840104
0.0840083
0.0840032
0.0840031
0.0839968
0.0840001
0.0839988
0.0839994
0.0840305
0.083973
0.084202
0.0964979
0.0975926
0.0840183
0.0840165
0.0840141
0.0840103
0.0840058
0.0840014
0.0839992
0.0839948
0.0840082
0.0839993
0.0840646
0.0839908
0.0842891
0.0969196
0.0997049
0.0840221
0.0840204
0.0840167
0.0840131
0.0840042
0.0840018
0.0839882
0.0839934
0.0839733
0.0840001
0.0839589
0.0840436
0.0839087
0.0843809
0.0972609
0.084025
0.0840225
0.0840181
0.0840139
0.0840051
0.0840017
0.0839891
0.0839946
0.0839781
0.0840002
0.0839739
0.0840404
0.0839562
0.0842128
0.0993732
0.0869109
0.0876194
0.0825356
0.082706
0.0941329
0.0848826
0.084417
0.0867606
0.0824847
0.0824263
0.0826533
0.0826544
0.0826194
0.0827815
0.0956255
0.096815
0.0825508
0.0825682
0.082489
0.0825033
0.0825495
0.0825408
0.0826939
0.0828011
0.0982198
0.0893038
0.0825675
0.0825573
0.0826049
0.0825987
0.082603
0.0826186
0.0825906
0.0825021
0.0829437
0.0930842
0.104504
0.082615
0.0826166
0.0826022
0.0826081
0.0826017
0.0826253
0.0825885
0.0826938
0.0823906
0.0829745
0.092733
0.106107
0.0826402
0.0826368
0.0826475
0.0826407
0.0826421
0.0826259
0.0826456
0.0825734
0.0827385
0.0824008
0.082959
0.0962281
0.0826761
0.0826757
0.0826676
0.0826698
0.0826554
0.0826637
0.0826296
0.0826719
0.082582
0.0827306
0.0825199
0.0828088
0.0958468
0.0826978
0.0826952
0.0826944
0.0826868
0.0826828
0.0826661
0.0826659
0.0826323
0.0826538
0.0826025
0.0825991
0.0827013
0.0944593
0.0984592
0.0827241
0.0827223
0.0827154
0.0827108
0.0826962
0.0826914
0.0826667
0.0826658
0.0826305
0.0826302
0.0826238
0.0825427
0.0827834
0.0969068
0.0827408
0.0827377
0.0827326
0.0827234
0.0827129
0.0826962
0.0826831
0.0826557
0.0826444
0.0826018
0.0826045
0.0825519
0.0826199
0.0964452
0.0863315
0.082758
0.0827548
0.0827474
0.0827391
0.0827237
0.082711
0.0826873
0.0826698
0.082641
0.0826104
0.0826012
0.082505
0.0826559
0.0942688
0.0962176
0.0827685
0.0827647
0.0827575
0.0827472
0.0827329
0.0827154
0.082695
0.0826678
0.0826478
0.0826032
0.0826081
0.0824896
0.0826547
0.0945369
0.0982334
0.0827764
0.0827726
0.0827649
0.0827549
0.0827383
0.0827226
0.0826963
0.0826763
0.0826384
0.0826168
0.0825591
0.0825685
0.0824237
0.0827032
0.0947729
0.0827806
0.0827764
0.0827685
0.0827577
0.0827411
0.0827242
0.0826987
0.0826763
0.0826415
0.0826143
0.0825683
0.0825495
0.0824821
0.0825298
0.0968299
0.085512
0.0862087
0.0808831
0.0810199
0.0923292
0.0832443
0.0828078
0.0852904
0.081013
0.0809495
0.081019
0.0810881
0.0809867
0.081171
0.0939178
0.0953438
0.0810631
0.0810878
0.0810195
0.0810537
0.0810701
0.0810442
0.0811219
0.0812045
0.0965655
0.0878972
0.0811716
0.0811641
0.0811503
0.0811655
0.0811247
0.0811404
0.081103
0.0810028
0.0813561
0.0914501
0.103149
0.0812403
0.0812444
0.0812193
0.0812277
0.0811979
0.0812042
0.081134
0.0812234
0.0809024
0.0814093
0.0911155
0.104774
0.0813147
0.0813114
0.0812942
0.0812884
0.0812612
0.0812332
0.081221
0.0811241
0.0812379
0.0809073
0.0813615
0.0946166
0.0813696
0.0813683
0.0813511
0.081347
0.0813136
0.0813066
0.0812436
0.081258
0.0811283
0.0812325
0.0810104
0.081209
0.0943177
0.0814167
0.0814123
0.0813988
0.0813853
0.0813609
0.0813307
0.0813019
0.0812454
0.0812255
0.0811419
0.0811085
0.0811258
0.0928207
0.0970781
0.0814552
0.0814517
0.0814378
0.0814268
0.0813981
0.0813794
0.0813313
0.081308
0.0812362
0.081209
0.0811437
0.0810457
0.0811657
0.0954114
0.0814849
0.0814798
0.0814676
0.0814518
0.0814276
0.0813981
0.0813613
0.0813141
0.0812611
0.0811972
0.0811244
0.0810709
0.0809873
0.0948645
0.0848859
0.0815094
0.0815044
0.0814922
0.0814778
0.0814522
0.0814271
0.081386
0.081347
0.081286
0.0812266
0.0811661
0.0810531
0.0810877
0.0926829
0.0947864
0.081526
0.0815205
0.0815087
0.0814921
0.0814679
0.0814378
0.0813993
0.0813509
0.0812938
0.0812191
0.0811508
0.0810179
0.0810165
0.0928951
0.0967766
0.0815378
0.0815323
0.0815207
0.0815046
0.0814804
0.081452
0.0814133
0.0813692
0.0813143
0.0812443
0.0811646
0.0810858
0.0809476
0.0810124
0.0931453
0.0815434
0.0815378
0.0815263
0.0815093
0.0814853
0.0814552
0.0814172
0.0813695
0.0813171
0.0812396
0.0811714
0.0810607
0.0810111
0.0808765
0.0951949
0.0840226
0.0846993
0.0792013
0.0792883
0.0906226
0.0816183
0.0811974
0.0837347
0.0795327
0.0794713
0.0793491
0.0795063
0.0793264
0.0795586
0.0922604
0.0937577
0.0795734
0.079595
0.0795488
0.079593
0.0795852
0.0795471
0.0795631
0.0796208
0.0949741
0.0863678
0.0797832
0.0797801
0.0796903
0.0797359
0.0796409
0.0796544
0.0796027
0.0794823
0.0797728
0.0899073
0.101645
0.079876
0.0798817
0.0798493
0.0798595
0.0798109
0.0797857
0.0796801
0.0797311
0.079407
0.079847
0.0895915
0.103285
0.0799993
0.0799972
0.0799508
0.0799482
0.0798885
0.0798468
0.079799
0.0796814
0.0797291
0.0794046
0.0797744
0.0930979
0.0800732
0.0800716
0.0800452
0.0800364
0.0799839
0.0799592
0.0798667
0.0798471
0.0796827
0.0797342
0.0794853
0.0796233
0.0927975
0.0801451
0.0801392
0.0801127
0.080094
0.0800492
0.0800054
0.079947
0.0798678
0.0798022
0.0796886
0.0796068
0.0795655
0.0913061
0.0955647
0.0801952
0.08019
0.0801694
0.0801523
0.0801098
0.0800772
0.0800059
0.0799603
0.0798504
0.0797987
0.079657
0.0795461
0.079554
0.0939773
0.0802373
0.0802303
0.0802111
0.0801891
0.0801513
0.0801098
0.0800497
0.0799848
0.0798889
0.0797984
0.0796384
0.0795844
0.0793258
0.0934119
0.0833569
0.0802686
0.0802619
0.0802451
0.0802247
0.0801895
0.0801527
0.0800948
0.0800371
0.0799513
0.0798569
0.079735
0.0795911
0.0795054
0.0912464
0.093333
0.0802912
0.0802839
0.0802677
0.0802449
0.0802114
0.0801695
0.0801132
0.0800452
0.0799473
0.0798483
0.0796899
0.0795466
0.0793442
0.0913963
0.095279
0.0803065
0.0802993
0.0802842
0.0802622
0.080231
0.0801905
0.0801402
0.0800719
0.0799969
0.0798809
0.07978
0.0795919
0.079468
0.0792807
0.0916241
0.0803134
0.0803065
0.0802915
0.0802687
0.0802377
0.0801953
0.0801454
0.0800727
0.0799995
0.0798754
0.0797827
0.0795715
0.0795297
0.0791976
0.0937116
0.0824978
0.0831455
0.0774371
0.07738
0.0887953
0.0798668
0.0794843
0.082084
0.0780602
0.0780177
0.0775251
0.07789
0.0775857
0.0778755
0.0905275
0.0920836
0.0780859
0.0781008
0.0780729
0.078147
0.0781064
0.0780639
0.0779737
0.077966
0.0933188
0.0847644
0.0784154
0.0784223
0.0782186
0.0783189
0.0781515
0.0781741
0.0780849
0.0779507
0.078127
0.0883368
0.100074
0.0785278
0.0785352
0.0784941
0.0785044
0.0784205
0.0784025
0.0782457
0.0782295
0.0778799
0.0782482
0.0880453
0.101725
0.0786999
0.0786986
0.0786172
0.0786219
0.0785276
0.0784783
0.0783887
0.0782457
0.0782067
0.077881
0.0781306
0.09155
0.0787896
0.0787875
0.0787521
0.0787397
0.0786699
0.0786268
0.0785059
0.0784444
0.0782455
0.0782293
0.0779521
0.0779678
0.0912532
0.0788843
0.078877
0.0788378
0.0788146
0.0787508
0.0786942
0.0786064
0.0785058
0.0783867
0.0782394
0.0780834
0.0779776
0.089801
0.0939806
0.0789446
0.0789378
0.078911
0.0788883
0.0788333
0.0787874
0.0786946
0.0786269
0.0784758
0.0783853
0.0781693
0.0780584
0.0778715
0.0926052
0.0789981
0.0789892
0.0789636
0.0789358
0.0788857
0.0788333
0.0787512
0.0786702
0.0785291
0.0784414
0.0781562
0.0781054
0.0775816
0.092072
0.0817561
0.0790355
0.0790272
0.0790061
0.0789802
0.0789363
0.0788887
0.0788156
0.0787406
0.0786211
0.0785095
0.078321
0.0781449
0.0778864
0.0899
0.0919194
0.0790637
0.0790546
0.0790343
0.079006
0.0789638
0.0789113
0.0788384
0.0787533
0.0786252
0.0784971
0.0782203
0.078071
0.0775191
0.089878
0.0937657
0.079082
0.0790732
0.079055
0.0790275
0.0789899
0.0789383
0.0788781
0.0787886
0.0787022
0.078536
0.0784223
0.0780971
0.0780135
0.0773701
0.0901128
0.0790905
0.0790819
0.0790638
0.0790355
0.0789983
0.0789446
0.0788848
0.0787905
0.0787009
0.0785278
0.0784148
0.0780849
0.0780572
0.0774359
0.0923105
0.0808758
0.0815882
0.0755777
0.0752167
0.0865757
0.0779091
0.0775517
0.0801354
0.0766476
0.0766887
0.0754667
0.0762511
0.0757384
0.0760696
0.0886539
0.0902595
0.076618
0.076632
0.076622
0.0767531
0.0766537
0.0765868
0.0763792
0.0761691
0.0914581
0.0830117
0.0770841
0.0771074
0.0767555
0.0769249
0.0766797
0.0767006
0.0765731
0.0764076
0.0763396
0.0867182
0.0984635
0.0772021
0.0772133
0.0771626
0.0771787
0.0770587
0.0770497
0.0768346
0.0767123
0.076346
0.0765584
0.0864796
0.100139
0.0774202
0.0774206
0.0773054
0.0773148
0.0771904
0.0771329
0.0769984
0.0768279
0.0766585
0.0763491
0.0763468
0.089982
0.0775202
0.0775184
0.0774747
0.0774599
0.077376
0.077314
0.0771681
0.0770581
0.0768289
0.0767139
0.0764105
0.0761709
0.0896949
0.0776351
0.0776267
0.0775764
0.0775491
0.0774693
0.0774012
0.0772866
0.0771684
0.0769984
0.0768347
0.0765732
0.0763805
0.0883685
0.0922997
0.0777035
0.0776954
0.0776633
0.0776356
0.0775704
0.0775124
0.0774017
0.0773148
0.0771336
0.0770457
0.0766978
0.0765846
0.0760664
0.0913931
0.0777671
0.0777566
0.0777254
0.0776927
0.0776322
0.0775705
0.07747
0.0773775
0.077195
0.077067
0.0766845
0.0766533
0.0757334
0.0909671
0.0799842
0.0778097
0.0777998
0.0777752
0.0777444
0.0776932
0.0776361
0.0775503
0.0774615
0.0773206
0.0771825
0.076927
0.0767504
0.0762457
0.0886529
0.0907316
0.0778428
0.0778322
0.0778083
0.077775
0.0777257
0.0776637
0.0775772
0.0774756
0.0773037
0.077164
0.0767558
0.0766197
0.0754584
0.0880415
0.0923131
0.0778638
0.0778534
0.0778325
0.0778002
0.0777573
0.077696
0.0776279
0.0775195
0.0774214
0.077214
0.0771074
0.0766277
0.0766837
0.0752023
0.088714
0.0778741
0.0778636
0.0778429
0.0778096
0.0777673
0.0777036
0.0776356
0.0775202
0.0774205
0.0772019
0.0770837
0.0766178
0.0766453
0.0755809
0.0911333
0.0778945
0.0792892
0.0735794
0.0727664
0.0827284
0.0765383
0.0753417
0.0761706
0.0752986
0.0754632
0.0730254
0.0745311
0.0738126
0.0741777
0.0864603
0.0878269
0.0751741
0.0752119
0.0751527
0.0754525
0.0752681
0.0751802
0.0747576
0.074167
0.0888183
0.0805349
0.0757894
0.075825
0.0753217
0.0755546
0.0752737
0.0752378
0.075077
0.0748696
0.0742767
0.0850565
0.0968981
0.0759058
0.0759097
0.0758415
0.0759047
0.0758197
0.0756574
0.0754416
0.0751903
0.0748143
0.0746953
0.0849605
0.0986489
0.0761614
0.0761606
0.0760221
0.0760356
0.0758974
0.0758052
0.0756369
0.075446
0.0750983
0.0748207
0.074289
0.0886414
0.0762661
0.0762648
0.0762133
0.0761982
0.0761047
0.0760239
0.0758607
0.0757004
0.075449
0.0751951
0.0748754
0.0741696
0.0882434
0.0763983
0.0763886
0.0763301
0.0762985
0.0762076
0.0761298
0.0759947
0.0758619
0.07564
0.0754484
0.0750792
0.0747547
0.0869993
0.0903852
0.0764724
0.0764631
0.0764269
0.0763949
0.0763226
0.0762543
0.0761306
0.0760254
0.0758093
0.0756669
0.0752424
0.0751829
0.0741777
0.0902639
0.0765445
0.0765325
0.0764973
0.0764602
0.0763922
0.0763227
0.0762083
0.0761059
0.0758976
0.0758155
0.0752746
0.0752689
0.073808
0.0905033
0.0771213
0.0765911
0.07658
0.0765525
0.0765175
0.0764607
0.0763955
0.0762996
0.0761994
0.0760368
0.0759038
0.0755556
0.0754504
0.0745255
0.0877911
0.090569
0.0766285
0.0766165
0.07659
0.0765524
0.0764976
0.0764273
0.0763309
0.0762146
0.0760249
0.0758454
0.0753219
0.0751502
0.073014
0.0842894
0.0903351
0.0766515
0.07664
0.0766168
0.0765803
0.0765332
0.0764638
0.0763898
0.0762662
0.0761637
0.075917
0.075826
0.0752069
0.0754567
0.0727464
0.087956
0.0766632
0.0766515
0.0766286
0.0765911
0.0765447
0.0764727
0.0763989
0.0762666
0.0761617
0.0759017
0.0757892
0.075175
0.0752978
0.0735884
0.0907918
0.0698303
0.0719531
0.0716337
0.0718022
0.0677951
0.0790469
0.0724833
0.0643567
0.0741062
0.0742816
0.0716161
0.0721694
0.0717177
0.0719527
0.0821064
0.0601492
0.0738044
0.0739208
0.0734418
0.0741835
0.0739229
0.0737642
0.0732983
0.0721775
0.0801859
0.0940279
0.0745335
0.0745728
0.0739891
0.0741667
0.0739072
0.0738589
0.0738112
0.073535
0.0721871
0.0840974
0.0956681
0.0746287
0.0746522
0.0745257
0.0746139
0.0745044
0.0744024
0.074188
0.0737656
0.0734904
0.0726455
0.0838186
0.0964556
0.0749234
0.0749212
0.0747677
0.0747683
0.0746299
0.0745381
0.0743544
0.0741464
0.0736572
0.073501
0.0721994
0.0863658
0.0750305
0.0750279
0.0749684
0.0749519
0.074858
0.0747653
0.0745999
0.074402
0.0741511
0.0737759
0.073552
0.072185
0.0800692
0.0751755
0.0751637
0.0751015
0.0750648
0.07497
0.0748853
0.0747403
0.0746014
0.074359
0.0742023
0.0738413
0.0733004
0.0849874
0.0894045
0.0752528
0.0752422
0.0752034
0.0751678
0.0750922
0.0750159
0.0748862
0.0747672
0.0745425
0.074409
0.073863
0.0737463
0.0719387
0.0847922
0.0753311
0.0753179
0.0752804
0.0752398
0.0751678
0.0750924
0.0749708
0.0748595
0.0746319
0.0745065
0.0739069
0.073921
0.0717147
0.0870203
0.100757
0.0753805
0.0753683
0.075339
0.0753006
0.0752403
0.0751684
0.0750659
0.0749533
0.0747703
0.0746146
0.0741685
0.074185
0.0721808
0.084968
0.0672576
0.075421
0.075408
0.0753798
0.075339
0.0752808
0.0752039
0.0751023
0.0749696
0.074769
0.0745281
0.0739889
0.0734398
0.0715945
0.0677812
0.0690995
0.0754456
0.075433
0.0754083
0.0753686
0.0753186
0.075243
0.075165
0.0750293
0.0749231
0.0746532
0.0745729
0.0739148
0.0742739
0.0717883
0.0862389
0.0754581
0.0754455
0.0754211
0.0753805
0.0753314
0.0752531
0.075176
0.0750311
0.0749243
0.0746294
0.0745344
0.0738067
0.0741079
0.071644
0.0867389
0.0736545
0.073399
0.0718191
0.0715736
0.0718788
0.0688814
0.0704867
0.076771
0.0699959
0.0730288
0.0732243
0.072153
0.0714596
0.0720622
0.0714494
0.0820817
0.0706017
0.0727263
0.072859
0.0723072
0.0726848
0.0727307
0.0725931
0.0724722
0.0721895
0.0794582
0.0730718
0.0733726
0.0733942
0.0729816
0.07294
0.0728433
0.0727026
0.0725211
0.072323
0.0712623
0.0818771
0.075138
0.073431
0.0734518
0.073307
0.0733602
0.07329
0.0731672
0.0729915
0.0725557
0.0723581
0.070311
0.0814094
0.0733366
0.0737227
0.0737146
0.0735797
0.0735464
0.0734299
0.073326
0.0731508
0.0729591
0.0725267
0.072369
0.0712614
0.0840971
0.0738217
0.0738166
0.0737556
0.0737315
0.0736453
0.0735472
0.0733958
0.0731912
0.0729635
0.0725633
0.0723336
0.0721951
0.0815442
0.0739699
0.0739563
0.0738963
0.0738535
0.0737624
0.0736748
0.0735327
0.0733971
0.073154
0.0729992
0.072528
0.0724782
0.0835799
0.0706419
0.074047
0.0740354
0.0739962
0.0739576
0.0738831
0.0738028
0.0736756
0.0735489
0.0733294
0.0731712
0.0727055
0.0725896
0.071447
0.0771765
0.0741282
0.0741143
0.0740767
0.0740336
0.0739616
0.0738833
0.0737631
0.0736468
0.0734319
0.0732924
0.0728434
0.0727311
0.0720635
0.08413
0.0741788
0.0741658
0.0741359
0.0740953
0.0740341
0.0739582
0.0738546
0.0737329
0.0735484
0.0733616
0.072943
0.0726859
0.0714674
0.0705123
0.0799921
0.0742211
0.0742075
0.0741786
0.0741359
0.074077
0.0739967
0.0738971
0.0737567
0.0735808
0.0733092
0.072982
0.0723088
0.0721542
0.0688969
0.0790624
0.0742465
0.0742333
0.0742078
0.0741663
0.074115
0.0740362
0.0739576
0.0738179
0.0737162
0.0734527
0.0733952
0.072857
0.0732234
0.0718751
0.0821059
0.0742596
0.0742464
0.0742213
0.0741789
0.0741287
0.0740475
0.0739706
0.0738225
0.0737238
0.0734323
0.0733743
0.0727298
0.0730321
0.0715855
0.0840163
0.0738611
0.0743986
0.0748292
0.0710918
0.0713405
0.0701673
0.0699051
0.0787941
0.0730577
0.0720344
0.0721309
0.0718527
0.0713112
0.0716872
0.0712859
0.081362
0.0733857
0.0717802
0.0718678
0.0715226
0.0716183
0.0717559
0.071646
0.071727
0.0716636
0.0797896
0.0758603
0.0722709
0.0722672
0.0720489
0.0719032
0.0719116
0.0717243
0.0715224
0.0713094
0.0709731
0.069843
0.0888711
0.072299
0.0723099
0.0721914
0.0721994
0.0721545
0.0720392
0.0719303
0.0716165
0.0714795
0.0703559
0.0698447
0.0877979
0.0725563
0.0725421
0.0724427
0.0723868
0.0722959
0.0721904
0.072047
0.0718975
0.0716736
0.0714832
0.0709759
0.0840507
0.0726419
0.0726342
0.0725792
0.0725479
0.0724735
0.0723809
0.0722568
0.0720824
0.0719
0.0716199
0.0713145
0.0716666
0.0810947
0.0727832
0.0727684
0.0727155
0.0726694
0.0725874
0.0725032
0.0723766
0.0722577
0.0720489
0.0719344
0.0715251
0.0717302
0.0826002
0.0731001
0.0728569
0.0728446
0.0728075
0.0727676
0.0726981
0.0726194
0.0725039
0.0723821
0.0721927
0.0720411
0.0717248
0.0716463
0.0712874
0.0789614
0.0729373
0.0729231
0.0728872
0.0728437
0.0727754
0.0726983
0.0725881
0.0724747
0.0722975
0.0721562
0.0719072
0.0717564
0.0716898
0.0825096
0.0729872
0.0729741
0.0729447
0.0729035
0.0728441
0.0727682
0.0726703
0.0725491
0.0723886
0.0722014
0.0719115
0.0716214
0.0713172
0.069916
0.0846811
0.0730298
0.073016
0.0729877
0.0729447
0.0728875
0.0728079
0.0727162
0.0725802
0.0724439
0.0721937
0.0720523
0.071526
0.0718566
0.0701757
0.0817274
0.0730552
0.0730418
0.0730164
0.0729745
0.0729238
0.0728454
0.0727696
0.0726355
0.0725438
0.0723114
0.0722691
0.0718683
0.0721328
0.0713402
0.0824528
0.0730686
0.0730551
0.07303
0.0729874
0.0729377
0.0728575
0.072784
0.0726428
0.0725575
0.0723006
0.0722731
0.0717839
0.0720379
0.0711
0.0826315
0.0732297
0.0737075
0.0746652
0.0704277
0.0705022
0.0700382
0.0700437
0.0784851
0.0731537
0.0710165
0.0710319
0.0708887
0.0706889
0.0708195
0.0706762
0.0809844
0.0735199
0.0708314
0.0708758
0.0706791
0.0707271
0.0708194
0.0707601
0.0709053
0.0709245
0.0792643
0.0759034
0.0711856
0.0711701
0.0710477
0.0709414
0.0709261
0.0707984
0.0706868
0.070572
0.0707446
0.0699955
0.0897531
0.0712027
0.0712058
0.0711219
0.0711118
0.0710798
0.0709994
0.070962
0.0708199
0.070827
0.0704923
0.0699924
0.0877536
0.0714138
0.0713974
0.0713271
0.0712711
0.0712026
0.0711166
0.0710247
0.0709396
0.0708845
0.0708293
0.0707464
0.0831555
0.0714873
0.0714782
0.0714325
0.0713998
0.0713392
0.0712638
0.0711755
0.0710606
0.0709407
0.0708218
0.0705738
0.0709261
0.0803936
0.0716144
0.0715996
0.0715554
0.0715109
0.0714414
0.071368
0.0712663
0.0711761
0.0710258
0.0709643
0.0706884
0.0709074
0.0818746
0.0734542
0.0716827
0.0716705
0.071637
0.0715985
0.0715369
0.0714656
0.0713685
0.0712647
0.0711182
0.0710009
0.0707998
0.0707612
0.0706781
0.078866
0.0717588
0.071745
0.0717122
0.0716705
0.0716087
0.0715371
0.071442
0.0713403
0.0712038
0.0710815
0.0709272
0.0708212
0.0708221
0.0813462
0.0718067
0.0717938
0.071766
0.0717261
0.0716708
0.071599
0.0715117
0.0714008
0.0712726
0.0711134
0.0709439
0.0707296
0.0706931
0.0700494
0.0855388
0.071848
0.0718347
0.0718076
0.0717661
0.0717126
0.0716375
0.0715561
0.0714334
0.0713283
0.0711237
0.0710498
0.0706819
0.0708919
0.0700432
0.0817563
0.0718727
0.0718597
0.071835
0.0717942
0.0717456
0.0716712
0.0716007
0.0714794
0.071399
0.0712073
0.071172
0.0708771
0.0710343
0.0705036
0.0818262
0.0718859
0.0718727
0.0718482
0.071807
0.0717593
0.0716834
0.0716152
0.0714883
0.0714152
0.0712044
0.0711878
0.0708347
0.0710198
0.0704334
0.0816926
0.0723703
0.0727863
0.0739356
0.069635
0.0696608
0.0693586
0.0695454
0.0779066
0.0725407
0.0699553
0.0699515
0.0698478
0.0697183
0.0698559
0.069849
0.080265
0.0728846
0.0698572
0.069877
0.0697608
0.0697913
0.0698407
0.0698152
0.0699771
0.070032
0.0783623
0.0751594
0.0701006
0.0700849
0.0700078
0.0699355
0.069926
0.0698565
0.0698068
0.0697587
0.0700039
0.0698369
0.0897767
0.0701218
0.0701204
0.0700644
0.0700501
0.0700294
0.0699818
0.069981
0.0699347
0.0699397
0.0699082
0.0698576
0.0876404
0.0702874
0.0702722
0.0702224
0.0701758
0.0701264
0.0700655
0.0700127
0.0699677
0.0699737
0.0699401
0.0700049
0.0822749
0.070352
0.0703427
0.0703069
0.070277
0.0702301
0.0701741
0.0701143
0.0700469
0.0699681
0.0699351
0.0697585
0.0700321
0.079624
0.0704613
0.0704477
0.0704119
0.0703725
0.0703161
0.0702564
0.0701795
0.0701147
0.0700134
0.0699822
0.0698075
0.0699785
0.0810153
0.0728569
0.0705236
0.0705121
0.0704831
0.0704479
0.0703956
0.0703347
0.0702567
0.0701747
0.0700666
0.0699829
0.0698577
0.0698164
0.0698505
0.0780411
0.0705928
0.07058
0.0705511
0.0705129
0.070459
0.0703958
0.0703167
0.070231
0.0701275
0.0700308
0.0699274
0.0698425
0.0698582
0.0803635
0.0706377
0.0706256
0.0706001
0.070563
0.0705132
0.0704484
0.0703733
0.070278
0.0701771
0.0700516
0.0699373
0.0697934
0.0697212
0.0695489
0.0852013
0.0706764
0.0706639
0.0706388
0.0706002
0.0705514
0.0704835
0.0704126
0.0703077
0.0702235
0.0700658
0.0700094
0.0697629
0.0698502
0.0693617
0.0812277
0.0706999
0.0706874
0.0706641
0.0706259
0.0705805
0.0705128
0.0704487
0.0703439
0.0702735
0.0701218
0.0700866
0.0698785
0.0699536
0.0696627
0.0811978
0.0707123
0.0706999
0.0706767
0.070638
0.0705934
0.0705243
0.0704622
0.0703531
0.0702887
0.0701234
0.0701026
0.0698599
0.0699582
0.069639
0.0807817
0.0714235
0.071823
0.0730871
0.0687457
0.0687671
0.0685642
0.0687524
0.0771587
0.0717061
0.0688858
0.0688736
0.0688297
0.0687177
0.0688651
0.0689257
0.0793845
0.072007
0.0688589
0.0688663
0.0687934
0.0688177
0.068835
0.0688253
0.0689775
0.0690572
0.0773611
0.0741798
0.069016
0.0690021
0.0689569
0.0689058
0.0689075
0.068874
0.0688373
0.0688067
0.0689645
0.0690453
0.0894376
0.069047
0.0690433
0.0690061
0.0689934
0.0689787
0.0689514
0.0689593
0.0689389
0.068914
0.0688245
0.0689583
0.0870195
0.0691724
0.0691596
0.069125
0.069089
0.0690545
0.0690126
0.0689792
0.0689468
0.0689599
0.0689112
0.0689502
0.0813976
0.0692309
0.0692223
0.069195
0.0691697
0.0691338
0.0690928
0.0690503
0.0690076
0.0689469
0.0689382
0.0688043
0.0690564
0.07876
0.0693217
0.06931
0.0692817
0.0692486
0.0692039
0.0691567
0.0690987
0.0690506
0.0689796
0.06896
0.0688376
0.0689785
0.0800722
0.0719782
0.0693779
0.0693676
0.0693431
0.0693125
0.0692689
0.0692188
0.0691569
0.0690933
0.0690133
0.0689522
0.068875
0.0688264
0.0689269
0.0770797
0.0694389
0.0694274
0.0694025
0.0693689
0.069323
0.0692691
0.0692044
0.0691344
0.0690554
0.0689799
0.0689088
0.0688366
0.0688668
0.0794056
0.06948
0.069469
0.0694462
0.069413
0.0693691
0.0693129
0.0692492
0.0691705
0.06909
0.0689946
0.0689072
0.0688195
0.0687198
0.068755
0.0845366
0.0695153
0.0695038
0.0694811
0.0694463
0.0694028
0.0693436
0.0692823
0.0691957
0.069126
0.0690074
0.0689582
0.0687949
0.0688316
0.0685662
0.0804986
0.0695371
0.0695255
0.069504
0.0694693
0.0694279
0.0693682
0.0693108
0.0692233
0.0691608
0.0690446
0.0690036
0.0688679
0.0688754
0.068769
0.0803694
0.0695484
0.069537
0.0695154
0.0694803
0.0694394
0.0693786
0.0693226
0.0692319
0.0691736
0.0690485
0.0690178
0.0688612
0.0688884
0.0687486
0.0798333
0.0704486
0.0708443
0.0721701
0.0677948
0.0678092
0.0676743
0.0678492
0.0763047
0.0707936
0.0678207
0.0678052
0.0677968
0.0677126
0.0678456
0.0679484
0.0784415
0.0710479
0.0678405
0.0678427
0.0677948
0.0678147
0.0678126
0.0678075
0.0679414
0.068038
0.0763595
0.0731853
0.0679345
0.0679228
0.067898
0.0678633
0.0678698
0.0678579
0.0678189
0.0677969
0.0679024
0.0680349
0.0884496
0.0679743
0.06797
0.0679446
0.0679346
0.067922
0.0679055
0.0679141
0.0678965
0.0678801
0.0677514
0.0680222
0.0862523
0.0680663
0.0680561
0.0680324
0.0680055
0.0679812
0.0679518
0.0679264
0.0679004
0.0679068
0.0678813
0.0679044
0.0805134
0.0681201
0.0681126
0.0680918
0.0680712
0.0680431
0.0680126
0.06798
0.0679493
0.0679008
0.0678974
0.0677981
0.0680394
0.07784
0.0681935
0.0681837
0.0681617
0.0681348
0.0680996
0.0680624
0.0680175
0.0679803
0.0679269
0.0679152
0.0678199
0.0679429
0.0790965
0.0710184
0.0682438
0.0682349
0.0682146
0.0681886
0.0681527
0.068112
0.0680626
0.068013
0.0679524
0.0679062
0.0678589
0.0678086
0.0679494
0.0760914
0.0682961
0.0682861
0.0682651
0.0682363
0.0681978
0.0681529
0.0681
0.0680437
0.0679819
0.067923
0.0678709
0.0678138
0.0678469
0.078436
0.0683332
0.0683234
0.0683034
0.0682744
0.0682365
0.068189
0.0681353
0.0680719
0.0680063
0.0679357
0.0678645
0.0678162
0.0677143
0.0678511
0.0837147
0.0683644
0.0683541
0.0683339
0.0683035
0.0682653
0.068215
0.0681622
0.0680925
0.0680332
0.0679456
0.0678991
0.0677961
0.0677981
0.0676757
0.0796533
0.0683844
0.0683738
0.0683542
0.0683236
0.0682865
0.0682354
0.0681845
0.0681135
0.0680571
0.0679712
0.0679241
0.0678442
0.0678068
0.0678111
0.0794537
0.0683945
0.068384
0.0683643
0.0683334
0.0682965
0.0682445
0.0681943
0.068121
0.0680674
0.0679757
0.0679361
0.0678424
0.0678227
0.0677969
0.0788686
0.0695038
0.0699007
0.0712651
0.0667855
0.0667944
0.0666942
0.0668483
0.0754452
0.0698748
0.0667543
0.0667404
0.0667483
0.0666803
0.0667936
0.0669115
0.0775386
0.0701018
0.0668036
0.0668037
0.0667703
0.0667872
0.0667674
0.0667631
0.0668704
0.0669718
0.0754304
0.0722499
0.0668562
0.0668471
0.0668334
0.0668099
0.066816
0.0668145
0.0667708
0.0667553
0.0668189
0.0669051
0.0873675
0.066902
0.0668981
0.0668797
0.066872
0.0668591
0.0668473
0.0668516
0.0668317
0.0668282
0.066694
0.0670761
0.0854691
0.0669675
0.0669596
0.0669432
0.0669236
0.0669053
0.0668841
0.0668614
0.0668395
0.0668344
0.0668353
0.0668477
0.079696
0.0670171
0.0670108
0.0669948
0.0669783
0.0669556
0.066932
0.0669052
0.0668804
0.0668401
0.0668341
0.0667604
0.066975
0.0769538
0.067075
0.067067
0.0670499
0.0670285
0.0670005
0.0669713
0.0669351
0.0669054
0.0668619
0.066853
0.0667724
0.066872
0.0781933
0.0700792
0.0671196
0.0671121
0.0670954
0.0670738
0.0670443
0.0670114
0.0669714
0.0669323
0.0668847
0.0668479
0.0668155
0.066764
0.0669122
0.0751528
0.0671633
0.0671548
0.0671373
0.0671133
0.0670811
0.0670444
0.0670008
0.0669559
0.0669059
0.0668599
0.0668168
0.0667683
0.0667946
0.0775331
0.0671963
0.0671877
0.0671705
0.0671459
0.0671134
0.0670741
0.0670289
0.0669788
0.0669243
0.0668729
0.0668108
0.0667883
0.0666815
0.0668497
0.082858
0.0672233
0.0672141
0.0671966
0.0671706
0.0671375
0.0670957
0.0670503
0.0669953
0.066944
0.0668807
0.0668344
0.0667714
0.0667494
0.0666955
0.0788325
0.0672417
0.0672317
0.0672143
0.067188
0.0671552
0.0671125
0.0670677
0.0670116
0.0669606
0.0668991
0.0668482
0.066805
0.0667417
0.0667961
0.0785616
0.0672513
0.0672408
0.067223
0.0671963
0.0671636
0.0671201
0.0670756
0.0670178
0.0669684
0.0669032
0.0668574
0.0668051
0.0667559
0.0667874
0.0779614
0.0784239
0.0778809
0.0660902
0.0667101
0.0774953
0.0684097
0.0689638
0.0768943
0.0656989
0.0678594
0.0675708
0.0702959
0.0792965
0.0821576
0.0785772
0.0704433
0.0679119
0.0789529
0.069228
0.066816
0.057043
0.0677115
0.076745
0.0687665
0.0802537
0.0611543
0.0702833
0.0696663
0.0683609
0.0684469
0.0570161
0.0662759
0.0762436
0.0619041
0.0680839
0.0775039
0.0771912
0.0598761
0.0616559
0.0768131
0.061589
0.0598456
0.0771772
0.0775068
0.0680873
0.0762503
0.0619077
0.0662819
0.0570262
0.0684462
0.0683691
0.0697212
0.0768752
0.0702729
0.080295
0.0611219
0.0688466
0.0679368
0.0588231
0.0670994
0.069368
0.0807729
0.0680907
0.080302
0.0704739
0.0822878
0.0809901
0.0727326
0.0700132
0.0700163
0.067656
0.077116
0.06907
0.0686419
0.0791905
0.0669201
0.0795501
0.0663143
0.080074
0.088347
0.0999799
0.0994565
0.0794089
0.0790934
0.0687367
0.0693006
0.0980067
0.0973572
0.0788678
0.0709368
0.0712874
0.090141
0.0996307
0.0785258
0.0681442
0.0975113
0.0974988
0.0703004
0.0703588
0.0951787
0.0872023
0.0726928
0.0801665
0.0881282
0.0964899
0.09875
0.0821389
0.0796276
0.0720293
0.0701149
0.0978886
0.0991099
0.0797505
0.0711981
0.0699563
0.109258
0.0998003
0.0602677
0.0681958
0.0912452
0.0765785
0.0879958
0.104195
0.0968079
0.0708225
0.0805679
0.0645233
0.0716252
0.0981683
0.0979676
0.0699278
0.0707604
0.0712509
0.110583
0.0586144
0.0921847
0.10324
0.0987115
0.0686479
0.0760181
0.0653051
0.0701052
0.0900262
0.107288
0.0774882
0.0785197
0.0605605
0.0901434
0.105786
0.0622838
0.0783432
0.0622217
0.0900373
0.0904279
0.0605313
0.0785169
0.0774924
0.0921937
0.103249
0.100703
0.0701083
0.0760237
0.0653127
0.0686587
0.110585
0.0586229
0.098172
0.0982583
0.0712585
0.0707651
0.0699327
0.0912827
0.0765852
0.0880083
0.104166
0.0980537
0.0716401
0.0805811
0.0645246
0.0708266
0.108945
0.0681891
0.060217
0.0978147
0.0883597
0.0699099
0.07118
0.0798119
0.0883957
0.0964677
0.086185
0.070105
0.0796653
0.072038
0.082104
0.0953548
0.0802102
0.072671
0.0976356
0.0703186
0.0702697
0.0901508
0.0681421
0.0785109
0.0979349
0.088904
0.0712593
0.0709209
0.0788914
0.0886414
0.0999015
0.0882792
0.0692725
0.0791194
0.0687185
0.0794518
0.0873492
0.0973141
0.0968457
0.0782268
0.0779101
0.0683064
0.0688102
0.0954214
0.0947889
0.0776762
0.0703535
0.0705868
0.0879886
0.0982231
0.0775544
0.0669324
0.0962582
0.0962089
0.0689855
0.069083
0.0939114
0.086313
0.0713654
0.0788615
0.0869515
0.0941192
0.0964537
0.0807385
0.0783223
0.0712464
0.0695123
0.0952865
0.0969161
0.0784482
0.0704054
0.0692351
0.107736
0.0984528
0.0589013
0.0669046
0.090091
0.0752305
0.0859943
0.101623
0.0944579
0.0698273
0.0793095
0.0639752
0.0708307
0.0957589
0.0958433
0.0686012
0.0699956
0.070358
0.109225
0.0573574
0.0908123
0.100589
0.0962169
0.0677711
0.07471
0.0647143
0.069324
0.0880361
0.10607
0.0762403
0.0775459
0.0592151
0.0881584
0.104568
0.0609216
0.077379
0.0608607
0.0880473
0.0893099
0.0591848
0.0775442
0.0762433
0.0908186
0.1006