/*--------------------------------*- C++ -*----------------------------------*\
| =========                 |                                                 |
| \\      /  F ield         | OpenFOAM: The Open Source CFD Toolbox           |
|  \\    /   O peration     | Version:  2.1.1                                 |
|   \\  /    A nd           | Web:      www.OpenFOAM.org                      |
|    \\/     M anipulation  |                                                 |
\*---------------------------------------------------------------------------*/
FoamFile
{
    version     2.0;
    format      ascii;
    class       surfaceScalarField;
    location    "0.001";
    object      phi;
}
// * * * * * * * * * * * * * * * * * * * * * * * * * * * * * * * * * * * * * //

dimensions      [0 3 -1 0 0 0 0];

internalField   nonuniform List<scalar> 
29776
(
-3.05598e-12
-9.18478e-14
-2.93912e-12
6.08704e-12
-2.61491e-12
2.25142e-13
-3.0789e-13
-2.95155e-12
5.64921e-12
2.78299e-12
5.01751e-12
1.00858e-09
6.93124e-11
6.94739e-11
-6.67767e-11
-6.69103e-11
7.49137e-11
4.95123e-12
8.31794e-10
7.00422e-11
7.31508e-11
-6.5815e-11
-7.03938e-11
4.96643e-11
-7.02232e-11
-4.68291e-11
1.95921e-11
-5.76436e-11
1.82316e-11
-1.62944e-11
1.11028e-10
1.38749e-11
-5.83173e-11
-7.79922e-12
2.39568e-12
-1.86745e-11
7.59611e-11
1.37284e-11
-1.06784e-11
-1.04907e-11
-4.85512e-11
1.35116e-11
-1.8454e-11
6.19575e-11
-2.87675e-13
1.18803e-11
-1.02794e-11
-9.68779e-12
-1.01153e-11
1.38319e-11
8.71554e-12
-1.25216e-11
-3.72274e-12
-5.91947e-13
-3.2533e-13
-2.55634e-12
7.19636e-12
-8.19846e-13
6.24401e-12
1.21105e-09
-1.93937e-12
6.21992e-12
1.20552e-09
2.12865e-12
2.14877e-12
9.85166e-10
4.77886e-11
6.16556e-11
-4.67027e-11
-6.0604e-11
2.39374e-12
1.44993e-12
9.95276e-10
6.48545e-11
6.70871e-11
-6.2759e-11
-6.51651e-11
4.33962e-12
2.26064e-12
1.00669e-09
6.71944e-11
6.76957e-11
-6.55208e-11
-6.50734e-11
6.67694e-11
3.27521e-12
8.39138e-10
6.77596e-11
6.84718e-11
-6.37583e-11
-6.56498e-11
4.68505e-11
-6.26209e-11
-4.46065e-11
-3.98141e-11
1.31675e-11
1.63148e-11
-1.40172e-11
8.95067e-11
1.71737e-11
-7.75661e-12
-7.80523e-12
3.54487e-13
1.51394e-12
-1.46235e-11
2.3107e-12
-3.00217e-12
1.34466e-11
8.9284e-13
5.45933e-12
1.19184e-09
2.59392e-12
5.54174e-12
1.20527e-09
2.56154e-12
5.55329e-12
1.2012e-09
8.92369e-13
4.62125e-12
1.20623e-09
-4.88374e-13
4.65325e-12
1.21312e-09
-8.2681e-13
4.67507e-12
1.19899e-09
2.85953e-12
1.16529e-12
9.68625e-10
4.77448e-11
6.2226e-11
-4.6901e-11
-6.11845e-11
6.82908e-11
2.04257e-12
8.5461e-10
6.42318e-11
6.4348e-11
-6.1365e-11
-6.18711e-11
4.64028e-11
-6.38196e-11
-4.52067e-11
-2.83045e-11
1.05402e-11
-5.36317e-12
7.81787e-11
1.69145e-11
-6.45689e-12
-7.19182e-12
-7.98611e-12
1.58468e-11
1.1166e-11
-9.05208e-12
-9.58411e-13
5.95447e-13
-2.03406e-12
2.39702e-12
-5.59947e-13
4.66879e-12
1.18128e-09
-1.14005e-12
4.55155e-12
1.18362e-09
-4.00692e-14
4.67841e-12
1.1906e-09
1.98041e-13
3.80135e-12
1.18864e-09
2.26437e-13
3.92691e-12
1.18971e-09
3.11165e-13
3.66196e-12
1.19749e-09
-2.2569e-12
4.22946e-12
1.1996e-09
-8.41696e-13
3.42675e-12
1.19662e-09
6.73586e-11
1.50928e-12
7.90455e-10
4.44982e-11
6.79397e-11
-4.4014e-11
-6.52402e-11
4.92328e-11
-6.44573e-11
-4.63323e-11
1.83864e-11
-5.96653e-11
1.37173e-11
-1.52028e-11
1.10124e-10
2.88598e-12
-1.01265e-11
1.43195e-12
5.80862e-12
1.93301e-13
3.77701e-12
1.18031e-09
3.52254e-13
3.58135e-12
1.18047e-09
4.25059e-13
4.02614e-12
1.18208e-09
-4.94624e-14
3.41418e-12
1.18089e-09
-4.14115e-13
3.39207e-12
1.18083e-09
-1.15309e-12
3.25514e-12
1.18106e-09
-1.11487e-12
2.73156e-12
1.18827e-09
-1.65833e-12
3.55702e-12
1.21168e-09
-1.59432e-12
2.53228e-12
1.19026e-09
6.83351e-11
1.56665e-12
7.99044e-10
5.04497e-11
6.83469e-11
-4.82458e-11
-6.672e-11
5.04319e-11
-6.67e-11
-4.82162e-11
1.89699e-11
-6.29067e-11
1.33317e-11
-1.54913e-11
1.14432e-10
3.20837e-12
-1.10091e-11
1.57408e-12
6.22665e-12
-2.81281e-13
3.15331e-12
1.17663e-09
-6.01891e-13
3.01496e-12
1.17679e-09
-4.79927e-13
3.18611e-12
1.17826e-09
-5.97223e-13
2.81265e-12
1.17801e-09
-8.98611e-13
2.89414e-12
1.17905e-09
-1.14179e-12
2.64883e-12
1.17932e-09
-2.08402e-12
2.70613e-12
1.18133e-09
-2.43483e-12
2.52645e-12
1.18805e-09
-2.53433e-12
2.44195e-12
1.21594e-09
-1.51632e-12
1.63468e-12
1.18995e-09
6.79326e-11
8.70159e-13
7.90015e-10
4.45021e-11
-6.52507e-11
-4.40419e-11
4.92459e-11
6.72671e-11
-4.63476e-11
-6.43783e-11
-3.92376e-11
1.92067e-11
-8.89607e-12
8.98241e-11
-7.94263e-12
1.29178e-11
1.11653e-11
-9.10445e-12
-9.45289e-14
2.4571e-12
1.175e-09
-2.4368e-13
2.3703e-12
1.17508e-09
-3.79997e-13
2.56484e-12
1.17574e-09
-6.99078e-13
2.33954e-12
1.17582e-09
-1.07395e-12
2.38926e-12
1.17669e-09
-1.59472e-12
2.27226e-12
1.17755e-09
-2.07706e-12
2.19712e-12
1.17943e-09
-2.53003e-12
2.08216e-12
1.18111e-09
-3.56121e-12
2.08812e-12
1.18798e-09
-3.44285e-12
1.09925e-12
1.21153e-09
-2.05289e-12
2.27694e-12
1.19644e-09
6.43549e-11
-2.95108e-12
8.54626e-10
4.63932e-11
6.82986e-11
-4.51837e-11
-6.37898e-11
6.425e-11
-6.18698e-11
-6.13321e-11
-3.83503e-11
1.10576e-11
-7.23172e-12
8.9332e-11
1.96917e-11
-9.04724e-12
-9.75361e-12
-1.00707e-11
1.35786e-11
1.47804e-11
-9.63124e-12
-2.3497e-13
1.94689e-12
1.17307e-09
-5.01809e-13
1.89733e-12
1.17321e-09
-6.70505e-13
1.97362e-12
1.17384e-09
-9.35504e-13
1.84173e-12
1.17414e-09
-1.29195e-12
1.87068e-12
1.17512e-09
-1.69295e-12
1.77098e-12
1.17606e-09
-2.18561e-12
1.70008e-12
1.17791e-09
-2.70258e-12
1.6002e-12
1.17945e-09
-2.72629e-12
1.14175e-12
1.18123e-09
-4.27386e-12
1.1518e-12
1.18809e-09
-1.13701e-12
-3.5949e-13
1.19935e-09
6.20683e-11
8.69966e-13
9.68709e-10
4.76023e-11
-6.11662e-11
-4.69128e-11
-4.9262e-11
3.00806e-12
1.4171e-11
-6.0244e-12
1.00176e-10
1.29683e-12
6.5883e-13
-1.12507e-11
-1.92481e-13
9.48757e-12
-1.88784e-13
1.46374e-12
1.17213e-09
-4.11413e-13
1.43738e-12
1.17223e-09
-6.42711e-13
1.50384e-12
1.1726e-09
-9.56858e-13
1.42489e-12
1.17288e-09
-1.33686e-12
1.44622e-12
1.17367e-09
-1.76141e-12
1.34779e-12
1.17455e-09
-2.26304e-12
1.29779e-12
1.17608e-09
-2.65573e-12
1.08753e-12
1.17751e-09
-3.26752e-12
8.96698e-13
1.17919e-09
-3.72842e-12
4.38443e-13
1.18093e-09
-4.79722e-12
-2.77172e-13
1.19731e-09
-3.44631e-12
5.96937e-13
1.19903e-09
6.7972e-11
-4.36361e-12
8.39461e-10
4.68174e-11
6.69494e-11
-4.4604e-11
-6.25014e-11
6.71306e-11
-6.59836e-11
-6.41048e-11
-4.05095e-11
1.16298e-11
-6.21292e-12
9.23985e-11
1.65678e-11
-7.8856e-12
-7.60531e-12
-9.37684e-12
1.28872e-11
1.44237e-11
-8.34489e-12
-2.33178e-13
1.09358e-12
1.17136e-09
-4.87972e-13
1.0772e-12
1.17147e-09
-7.45157e-13
1.10659e-12
1.17178e-09
-1.05687e-12
1.05199e-12
1.17211e-09
-1.43639e-12
1.0659e-12
1.17286e-09
-1.8594e-12
9.67683e-13
1.17369e-09
-2.37805e-12
9.39603e-13
1.17508e-09
-2.89447e-12
7.15757e-13
1.17663e-09
-3.40318e-12
5.9174e-13
1.17897e-09
-3.9713e-12
8.78366e-14
1.18073e-09
-4.78092e-12
-2.44636e-13
1.18957e-09
-2.47066e-12
-6.9251e-13
1.21303e-09
6.76275e-11
-2.43856e-12
1.00684e-09
6.66635e-11
-6.51984e-11
-6.5577e-11
-3.958e-11
2.77571e-13
5.59716e-12
9.06948e-11
-7.19266e-12
1.4513e-11
1.28584e-11
-9.54058e-12
-1.24809e-12
-3.14253e-13
-5.06826e-13
2.06918e-12
-2.1972e-13
7.62991e-13
1.17108e-09
-4.6006e-13
7.52597e-13
1.17114e-09
-7.26629e-13
7.74568e-13
1.1713e-09
-1.04284e-12
7.3551e-13
1.17157e-09
-1.41461e-12
7.5353e-13
1.1721e-09
-1.83161e-12
6.5222e-13
1.17286e-09
-2.33046e-12
6.70464e-13
1.17411e-09
-2.81402e-12
3.99146e-13
1.17576e-09
-3.43088e-12
4.71814e-13
1.17792e-09
-3.84573e-12
-3.75328e-13
1.18077e-09
-4.77621e-12
7.19557e-15
1.18851e-09
-1.63222e-12
-2.40392e-12
1.20602e-09
6.67525e-11
-1.99472e-12
9.95314e-10
6.44425e-11
-6.50868e-11
-6.27951e-11
-2.10227e-12
-4.98272e-11
1.94943e-11
-1.12587e-12
1.00313e-10
1.63677e-12
9.1142e-13
-1.41814e-11
2.06528e-12
1.82779e-13
9.38518e-12
-2.33973e-13
4.87867e-13
1.17106e-09
-4.86882e-13
4.81984e-13
1.17104e-09
-7.65325e-13
4.96823e-13
1.17118e-09
-1.09587e-12
4.70808e-13
1.17135e-09
-1.4943e-12
4.94264e-13
1.17177e-09
-1.96593e-12
4.17069e-13
1.17257e-09
-2.55753e-12
4.98772e-13
1.1738e-09
-3.1889e-12
2.66186e-13
1.17567e-09
-4.04223e-12
5.84801e-13
1.17819e-09
-4.70532e-12
-3.25952e-13
1.18199e-09
-5.65957e-12
1.09014e-12
1.1905e-09
-2.30854e-12
-2.49354e-12
1.20098e-09
6.14452e-11
1.98209e-12
9.8517e-10
4.7737e-11
-6.06322e-11
-4.67273e-11
-4.15831e-11
5.36266e-12
1.56858e-11
-8.2426e-12
9.02225e-11
4.22985e-12
3.3429e-13
-1.37461e-11
2.32289e-12
-1.48836e-12
8.34745e-12
-2.26514e-13
2.34936e-13
1.1713e-09
-4.74874e-13
2.33409e-13
1.17119e-09
-7.44137e-13
2.41136e-13
1.17111e-09
-1.06873e-12
2.28072e-13
1.17114e-09
-1.43e-12
2.39626e-13
1.17145e-09
-1.89012e-12
1.95712e-13
1.1722e-09
-2.3673e-12
2.35812e-13
1.17316e-09
-3.01324e-12
1.16815e-13
1.17501e-09
-3.60004e-12
2.69053e-13
1.17672e-09
-4.57346e-12
-1.77807e-13
1.18035e-09
-5.62794e-12
5.30767e-13
1.18355e-09
-6.36409e-12
-8.46395e-13
1.20501e-09
-4.93018e-12
8.01707e-13
1.20545e-09
7.22971e-11
-2.77994e-12
8.31857e-10
6.96702e-11
-7.06739e-11
-6.58532e-11
4.96368e-11
7.48037e-11
-4.68426e-11
-7.01174e-11
-6.01692e-11
2.1987e-11
-1.53887e-11
1.17258e-10
-9.58006e-12
1.12289e-11
1.42403e-11
-7.2788e-12
-2.27382e-13
1.17168e-09
-4.73423e-13
1.17134e-09
-7.5154e-13
1.17107e-09
-1.08794e-12
1.17108e-09
-1.45959e-12
1.17135e-09
-1.9431e-12
1.1721e-09
-2.46177e-12
1.17304e-09
-3.14871e-12
1.17495e-09
-3.79154e-12
1.17659e-09
-4.67873e-12
1.18021e-09
-5.51844e-12
1.18125e-09
-6.35808e-12
1.1916e-09
-5.01149e-12
1.2111e-09
6.89644e-11
1.00845e-09
6.86447e-11
-6.70327e-11
-6.70053e-11
-4.22199e-11
6.66487e-12
-1.88045e-12
9.55397e-11
-9.85765e-12
1.53912e-11
1.54101e-11
-1.00836e-11
-3.2197e-12
-9.11554e-14
-2.77953e-12
6.09051e-12
-2.77423e-12
2.24662e-13
-3.04758e-13
-2.77211e-12
5.62644e-12
1.5445e-12
7.82488e-13
1.00504e-09
6.68112e-11
6.71425e-11
-6.63232e-11
-6.64171e-11
7.24607e-11
1.74573e-12
8.28074e-10
6.7332e-11
7.05398e-11
-6.54894e-11
-7.00983e-11
4.83557e-11
-7.12462e-11
-4.83382e-11
1.77589e-11
-5.88347e-11
1.62127e-11
-1.49063e-11
1.1223e-10
1.32827e-11
-5.87202e-11
-6.92769e-12
1.94192e-12
-1.67751e-11
7.56461e-11
1.31383e-11
-1.09151e-11
-1.06708e-11
-4.86182e-11
1.29709e-11
-1.5938e-11
6.17588e-11
8.17246e-14
1.13067e-11
-1.05162e-11
-9.86288e-12
-1.03013e-11
1.33347e-11
8.44946e-12
-1.26656e-11
-3.87665e-12
-5.34021e-13
-3.35096e-13
-2.43875e-12
7.18452e-12
-1.05608e-12
1.60301e-12
1.21127e-09
-2.22474e-12
2.48405e-12
1.20595e-09
1.04531e-12
-9.31649e-13
9.83124e-10
4.7082e-11
6.08675e-11
-4.76118e-11
-6.0635e-11
1.59262e-12
-1.56396e-12
9.94626e-10
6.36324e-11
6.54477e-11
-6.26678e-11
-6.4746e-11
2.69715e-12
-4.15135e-13
1.00486e-09
6.48684e-11
6.6276e-11
-6.551e-11
-6.44913e-11
6.58651e-11
1.50527e-12
8.36781e-10
6.49275e-11
6.7091e-11
-6.41102e-11
-6.59999e-11
4.60568e-11
-6.39874e-11
-4.6294e-11
-4.08905e-11
1.22425e-11
1.49651e-11
-1.19777e-11
9.13335e-11
1.66666e-11
-8.34114e-12
-8.1328e-12
-1.10518e-14
1.52348e-12
-1.43259e-11
2.16768e-12
-2.82646e-12
1.34722e-11
7.97282e-13
9.55363e-13
1.19169e-09
2.34116e-12
1.09893e-12
1.20511e-09
1.33347e-12
1.65122e-12
1.19962e-09
-3.42696e-13
1.38298e-12
1.20496e-09
-1.27307e-12
1.37811e-12
1.21226e-09
-1.78791e-12
2.14421e-12
1.19887e-09
2.78159e-12
-1.82778e-12
9.67093e-10
4.65195e-11
6.10626e-11
-4.77442e-11
-6.1046e-11
6.75784e-11
1.25378e-12
8.52209e-10
6.26245e-11
6.3647e-11
-6.17893e-11
-6.23002e-11
4.52585e-11
-6.43274e-11
-4.67588e-11
-2.96076e-11
9.93456e-12
-3.26971e-12
7.98201e-11
1.6579e-11
-6.92878e-12
-7.50776e-12
-8.32389e-12
1.55089e-11
1.07317e-11
-9.35714e-12
-9.84009e-13
5.58661e-13
-1.9825e-12
2.40784e-12
-3.24232e-13
9.63448e-13
1.18158e-09
-7.3652e-13
9.20829e-13
1.18421e-09
-1.57904e-13
7.83154e-13
1.19089e-09
1.52087e-13
5.4702e-13
1.18917e-09
4.87969e-13
7.08033e-13
1.19005e-09
1.42998e-12
8.04741e-13
1.19789e-09
-1.76315e-12
1.59801e-12
1.19937e-09
-4.1007e-13
1.22753e-12
1.1953e-09
6.59583e-11
-6.52313e-13
7.88938e-10
4.30523e-11
6.70714e-11
-4.50913e-11
-6.47848e-11
4.82622e-11
-6.50085e-11
-4.76983e-11
1.72448e-11
-6.12656e-11
1.21003e-11
-1.38778e-11
1.11757e-10
2.69345e-12
-9.95336e-12
1.47653e-12
5.7834e-12
1.71976e-13
7.85902e-13
1.18032e-09
3.13919e-13
7.24376e-13
1.18053e-09
1.93374e-13
9.40799e-13
1.18205e-09
-1.00933e-13
8.06762e-13
1.18093e-09
-1.87906e-13
7.79535e-13
1.18085e-09
-4.90629e-13
8.88369e-13
1.18128e-09
3.01899e-13
4.09072e-13
1.18866e-09
-4.54716e-13
1.32291e-12
1.21234e-09
-1.50211e-13
7.664e-13
1.18854e-09
6.73418e-11
1.28167e-13
7.97968e-10
4.96392e-11
6.73591e-11
-4.95614e-11
-6.70372e-11
4.96118e-11
-6.7023e-11
-4.9534e-11
1.796e-11
-6.461e-11
1.18762e-11
-1.39522e-11
1.16068e-10
3.00912e-12
-1.0836e-11
1.61291e-12
6.214e-12
-1.04949e-13
6.83224e-13
1.17684e-09
-2.35935e-13
6.43125e-13
1.177e-09
-1.61958e-13
6.86854e-13
1.17844e-09
-1.30952e-13
6.06093e-13
1.17818e-09
-2.14873e-13
6.54737e-13
1.17926e-09
-1.54819e-13
6.27869e-13
1.17952e-09
-6.37408e-13
6.95225e-13
1.18153e-09
-3.50009e-13
6.26871e-13
1.18846e-09
-6.58125e-13
3.44441e-13
1.21667e-09
6.701e-13
5.25247e-13
1.18822e-09
6.70771e-11
4.12522e-13
7.88506e-10
4.30642e-11
-6.47912e-11
-4.51095e-11
4.82834e-11
6.58798e-11
-4.77119e-11
-6.49241e-11
-4.05531e-11
1.78819e-11
-7.09785e-12
9.12169e-11
-8.32175e-12
1.26318e-11
1.06385e-11
-9.31912e-12
-1.97775e-15
5.42473e-13
1.17514e-09
-2.48465e-14
5.20352e-13
1.17523e-09
-6.09757e-14
5.94205e-13
1.17587e-09
-1.57585e-13
5.54782e-13
1.17597e-09
-2.51607e-13
5.59827e-13
1.17688e-09
-4.23026e-13
5.70978e-13
1.17778e-09
-5.11566e-13
5.19014e-13
1.17969e-09
-6.33928e-13
5.18223e-13
1.18134e-09
-1.33867e-12
6.40796e-13
1.18839e-09
-1.21787e-12
-2.85105e-13
1.21223e-09
-1.26796e-12
1.76522e-12
1.19514e-09
6.36406e-11
-2.78501e-12
8.52205e-10
4.52455e-11
6.75828e-11
-4.67423e-11
-6.43092e-11
6.26339e-11
-6.2312e-11
-6.17997e-11
-3.93005e-11
1.05798e-11
-5.87024e-12
9.10615e-11
1.939e-11
-9.48194e-12
-1.01326e-11
-1.0478e-11
1.3486e-11
1.44257e-11
-1.0039e-11
-6.23496e-14
4.38212e-13
1.17324e-09
-1.3366e-13
4.27448e-13
1.17337e-09
-1.62539e-13
4.47837e-13
1.17402e-09
-2.03511e-13
4.2375e-13
1.17432e-09
-2.92345e-13
4.27438e-13
1.17534e-09
-3.74431e-13
4.25013e-13
1.17629e-09
-5.14635e-13
3.81378e-13
1.17819e-09
-6.99585e-13
4.32593e-13
1.17972e-09
-4.26903e-13
1.61353e-13
1.18144e-09
-1.63281e-12
5.04176e-13
1.18851e-09
1.77279e-12
-1.45783e-12
1.19917e-09
6.10553e-11
1.88355e-12
9.6706e-10
4.65201e-11
-6.10671e-11
-4.77541e-11
-5.08273e-11
2.32096e-12
1.23374e-11
-4.72526e-12
1.01949e-10
1.01813e-12
5.93392e-13
-1.09699e-11
-2.37033e-13
9.59547e-12
-3.66332e-14
3.30921e-13
1.17227e-09
-8.37092e-14
3.27041e-13
1.17238e-09
-1.38286e-13
3.50521e-13
1.17276e-09
-2.14188e-13
3.37691e-13
1.17304e-09
-3.12872e-13
3.38293e-13
1.17386e-09
-4.17616e-13
3.24633e-13
1.17475e-09
-5.66885e-13
3.01384e-13
1.17631e-09
-6.34886e-13
2.68845e-13
1.17774e-09
-9.06205e-13
2.18574e-13
1.17941e-09
-8.39178e-13
2.16399e-13
1.18116e-09
-2.24247e-12
-5.11243e-13
1.19777e-09
-1.50889e-12
1.31058e-12
1.19887e-09
6.71231e-11
-2.64708e-12
8.36915e-10
4.60492e-11
6.58982e-11
-4.62995e-11
-6.39718e-11
6.49521e-11
-6.59818e-11
-6.4086e-11
-4.11606e-11
1.11088e-11
-4.94592e-12
9.40025e-11
1.61781e-11
-8.33555e-12
-7.92942e-12
-9.73955e-12
1.25372e-11
1.40334e-11
-8.62611e-12
-5.25385e-14
2.49312e-13
1.1715e-09
-1.11867e-13
2.4833e-13
1.17161e-09
-1.69742e-13
2.55786e-13
1.17193e-09
-2.35465e-13
2.45236e-13
1.17227e-09
-3.28536e-13
2.45567e-13
1.17305e-09
-4.19152e-13
2.25776e-13
1.17388e-09
-5.54274e-13
2.10893e-13
1.17531e-09
-6.59034e-13
1.75533e-13
1.17683e-09
-7.91063e-13
1.23723e-13
1.17919e-09
-7.44335e-13
1.33595e-13
1.18077e-09
-1.4668e-12
-1.69986e-13
1.18996e-09
2.632e-13
3.63337e-13
1.21225e-09
6.62503e-11
-1.51887e-12
1.00488e-09
6.49063e-11
-6.45247e-11
-6.55391e-11
-4.01906e-11
-2.29533e-13
5.66706e-12
9.17984e-11
-7.48701e-12
1.41394e-11
1.23366e-11
-9.78418e-12
-1.22503e-12
-3.5418e-13
-5.16617e-13
2.09583e-12
-4.53771e-14
1.7577e-13
1.17121e-09
-9.98225e-14
1.74793e-13
1.17126e-09
-1.63366e-13
1.82194e-13
1.17144e-09
-2.35365e-13
1.73654e-13
1.17172e-09
-3.28133e-13
1.79961e-13
1.17226e-09
-4.16412e-13
1.49668e-13
1.17303e-09
-5.51641e-13
1.681e-13
1.17429e-09
-6.07407e-13
7.49204e-14
1.17591e-09
-8.26872e-13
1.59325e-13
1.1781e-09
-5.83029e-13
-1.61848e-13
1.18082e-09
-1.48155e-12
1.60538e-13
1.18908e-09
1.33542e-12
-1.29836e-12
1.20486e-09
6.54481e-11
-9.50604e-13
9.94569e-10
6.35891e-11
-6.48075e-11
-6.27187e-11
-2.02752e-12
-5.07442e-11
1.76659e-11
-8.96672e-13
1.01451e-10
1.27069e-12
9.08815e-13
-1.38133e-11
2.06266e-12
1.64932e-13
9.40621e-12
-4.88668e-14
1.142e-13
1.17117e-09
-1.06983e-13
1.1269e-13
1.17116e-09
-1.71878e-13
1.17971e-13
1.17131e-09
-2.45668e-13
1.10635e-13
1.17149e-09
-3.42005e-13
1.20848e-13
1.17193e-09
-4.41648e-13
9.25621e-14
1.17273e-09
-5.91746e-13
1.37884e-13
1.17398e-09
-6.90251e-13
3.72937e-14
1.17581e-09
-9.59615e-13
2.33875e-13
1.17838e-09
-8.19086e-13
-2.92052e-13
1.18198e-09
-1.72376e-12
7.31037e-13
1.19083e-09
7.37423e-13
-2.31856e-12
1.19954e-09
6.08078e-11
2.34402e-12
9.83104e-10
4.70243e-11
-6.06804e-11
-4.76457e-11
-4.30934e-11
4.82199e-12
1.408e-11
-6.54439e-12
9.15437e-11
3.80708e-12
3.2175e-13
-1.33881e-11
2.37356e-12
-1.29233e-12
8.17808e-12
-4.7988e-14
5.37914e-14
1.17141e-09
-1.05091e-13
5.64071e-14
1.1713e-09
-1.65963e-13
5.9409e-14
1.17123e-09
-2.39844e-13
5.65526e-14
1.17127e-09
-3.20634e-13
6.18262e-14
1.17159e-09
-4.22993e-13
4.52459e-14
1.17235e-09
-5.19738e-13
6.7331e-14
1.17333e-09
-6.46736e-13
1.22101e-14
1.17517e-09
-7.39272e-13
1.04579e-13
1.17695e-09
-9.56878e-13
-1.57403e-13
1.18043e-09
-1.14038e-12
3.18559e-13
1.18414e-09
-2.62692e-12
-7.85899e-13
1.20496e-09
-1.74951e-12
1.09817e-12
1.20582e-09
7.05593e-11
-1.52062e-12
8.27928e-10
6.73554e-11
-7.00565e-11
-6.54386e-11
4.83532e-11
7.25278e-11
-4.83659e-11
-7.12355e-11
-6.08266e-11
2.05709e-11
-1.46452e-11
1.18211e-10
-9.90585e-12
1.09342e-11
1.37651e-11
-7.5439e-12
-4.5617e-14
1.17178e-09
-1.0119e-13
1.17144e-09
-1.65133e-13
1.17119e-09
-2.4351e-13
1.17121e-09
-3.26656e-13
1.17149e-09
-4.35167e-13
1.17225e-09
-5.43351e-13
1.17322e-09
-6.87511e-13
1.17511e-09
-8.00427e-13
1.17681e-09
-9.97115e-13
1.18024e-09
-9.8527e-13
1.18155e-09
-1.72054e-12
1.19155e-09
-7.31518e-13
1.21121e-09
6.71403e-11
1.00487e-09
6.68355e-11
-6.63591e-11
-6.62927e-11
-4.30017e-11
6.31929e-12
-1.72475e-12
9.63414e-11
-1.02144e-11
1.49252e-11
1.49066e-11
-1.04116e-11
-3.25783e-12
-8.87666e-14
-2.76499e-12
6.11016e-12
-2.80739e-12
2.24378e-13
-3.01474e-13
-2.75542e-12
5.6399e-12
2.82032e-13
-2.30134e-12
1.00693e-09
6.64325e-11
6.68403e-11
-6.65276e-11
-6.66229e-11
7.17177e-11
-1.56292e-12
8.29854e-10
6.70845e-11
7.03659e-11
-6.56878e-11
-7.02045e-11
4.79846e-11
-7.22255e-11
-4.89715e-11
1.73654e-11
-5.90055e-11
1.57394e-11
-1.50091e-11
1.12627e-10
1.32445e-11
-5.90594e-11
-6.56773e-12
1.67675e-12
-1.65606e-11
7.58595e-11
1.31561e-11
-1.10269e-11
-1.07222e-11
-4.88526e-11
1.29569e-11
-1.56411e-11
6.18731e-11
1.9215e-13
1.13089e-11
-1.05946e-11
-9.91434e-12
-1.03974e-11
1.33413e-11
8.46098e-12
-1.27334e-11
-3.91336e-12
-5.22232e-13
-3.36886e-13
-2.43676e-12
7.20925e-12
3.7503e-14
-2.67697e-12
1.21161e-09
-2.46747e-13
-2.00475e-12
1.20667e-09
5.24271e-13
-3.54316e-12
9.85243e-10
4.72187e-11
6.1431e-11
-4.76279e-11
-6.03689e-11
5.58108e-13
-2.66381e-12
9.95871e-10
6.35007e-11
6.54859e-11
-6.28724e-11
-6.47296e-11
8.21432e-13
-1.72353e-12
1.00625e-09
6.44881e-11
6.60896e-11
-6.58637e-11
-6.46447e-11
6.53291e-11
1.99907e-13
8.37165e-10
6.45779e-11
6.69866e-11
-6.44438e-11
-6.62125e-11
4.5749e-11
-6.48829e-11
-4.68643e-11
-4.12066e-11
1.21588e-11
1.46319e-11
-1.20114e-11
9.17744e-11
1.66587e-11
-8.46774e-12
-8.20767e-12
-1.05394e-13
1.52013e-12
-1.4321e-11
2.14785e-12
-2.78081e-12
1.35392e-11
1.9843e-13
-2.99498e-12
1.19181e-09
8.37446e-13
-2.99574e-12
1.20546e-09
-5.00667e-13
-2.43587e-12
1.19985e-09
-1.5786e-12
-1.70208e-12
1.20507e-09
-1.76312e-12
-1.64602e-12
1.21237e-09
-1.19883e-12
-5.60449e-13
1.19906e-09
2.04825e-12
-2.71771e-12
9.67087e-10
4.66349e-11
6.14577e-11
-4.77368e-11
-6.08758e-11
6.7377e-11
4.17502e-13
8.5225e-10
6.2457e-11
6.34937e-11
-6.21302e-11
-6.26411e-11
4.50212e-11
-6.48253e-11
-4.71598e-11
-2.98169e-11
9.86883e-12
-3.23836e-12
8.02277e-11
1.66064e-11
-7.03161e-12
-7.56424e-12
-8.42803e-12
1.55092e-11
1.06844e-11
-9.43965e-12
-9.82419e-13
5.50642e-13
-1.98233e-12
2.4141e-12
-9.30404e-14
-2.57272e-12
1.18125e-09
-4.63116e-13
-2.47236e-12
1.18406e-09
-5.32163e-13
-2.71328e-12
1.19123e-09
-9.6527e-14
-2.25649e-12
1.18929e-09
3.1359e-14
-2.05417e-12
1.19033e-09
8.87686e-13
-1.72208e-12
1.1982e-09
-1.43029e-12
-7.34744e-13
1.19971e-09
-5.5329e-13
-1.05529e-12
1.1959e-09
6.57818e-11
-1.32427e-12
7.89064e-10
4.30645e-11
6.72037e-11
-4.51897e-11
-6.48584e-11
4.81096e-11
-6.54137e-11
-4.80539e-11
1.70186e-11
-6.15892e-11
1.18651e-11
-1.37278e-11
1.12216e-10
2.65994e-12
-9.97921e-12
1.5031e-12
5.81618e-12
6.13519e-14
-2.13448e-12
1.17982e-09
1.31043e-13
-2.07464e-12
1.18006e-09
-5.02438e-14
-2.05152e-12
1.18157e-09
-6.95924e-14
-1.73528e-12
1.18043e-09
1.09955e-13
-1.76821e-12
1.18038e-09
7.38115e-14
-1.33711e-12
1.18093e-09
1.12098e-12
-1.60459e-12
1.18849e-09
5.6689e-13
-8.48139e-13
1.21269e-09
-3.72186e-15
-1.10957e-12
1.1889e-09
6.74101e-11
-1.39272e-14
7.9818e-10
4.95722e-11
6.74284e-11
-4.98471e-11
-6.72536e-11
4.95438e-11
-6.72381e-11
-4.98187e-11
1.77883e-11
-6.4969e-11
1.17275e-11
-1.3677e-11
1.16541e-10
2.97513e-12
-1.08715e-11
1.64501e-12
6.25135e-12
6.86134e-14
-1.72956e-12
1.17637e-09
1.23662e-13
-1.67136e-12
1.17654e-09
1.61958e-13
-1.7411e-12
1.17809e-09
3.62017e-13
-1.54079e-12
1.17778e-09
4.57138e-13
-1.519e-12
1.17892e-09
8.01175e-13
-1.34648e-12
1.17919e-09
6.80207e-13
-1.22954e-12
1.18127e-09
1.23211e-12
-1.12868e-12
1.18819e-09
1.08756e-12
-1.238e-12
1.21694e-09
1.32172e-12
-5.76755e-13
1.18855e-09
6.72117e-11
5.51836e-13
7.88619e-10
4.30798e-11
-6.48651e-11
-4.52064e-11
4.81319e-11
6.57059e-11
-4.80703e-11
-6.53301e-11
-4.07697e-11
1.77559e-11
-6.83685e-12
9.1662e-11
-8.43977e-12
1.26485e-11
1.05678e-11
-9.37557e-12
8.7486e-14
-1.34618e-12
1.17468e-09
1.89381e-13
-1.307e-12
1.17476e-09
2.51892e-13
-1.33807e-12
1.1754e-09
3.80501e-13
-1.19751e-12
1.17549e-09
5.69675e-13
-1.23864e-12
1.17641e-09
7.44906e-13
-1.09509e-12
1.17735e-09
1.0186e-12
-1.11784e-12
1.17931e-09
1.13344e-12
-1.01084e-12
1.1811e-09
8.33226e-13
-6.68495e-13
1.18813e-09
1.05432e-12
-1.11027e-12
1.21254e-09
-4.27222e-13
1.44136e-12
1.19574e-09
6.34938e-11
-2.05631e-12
8.52229e-10
4.501e-11
6.738e-11
-4.71475e-11
-6.48169e-11
6.24691e-11
-6.26483e-11
-6.21349e-11
-3.98884e-11
1.05409e-11
-5.63308e-12
9.15448e-11
1.9406e-11
-9.56646e-12
-1.02157e-11
-1.05764e-11
1.35569e-11
1.44142e-11
-1.00884e-11
1.07408e-13
-1.04991e-12
1.17283e-09
2.25932e-13
-1.02118e-12
1.17296e-09
3.36911e-13
-1.05201e-12
1.17362e-09
5.21334e-13
-9.67686e-13
1.1739e-09
6.91061e-13
-9.90496e-13
1.17492e-09
9.24177e-13
-8.97033e-13
1.17586e-09
1.12487e-12
-9.1352e-13
1.17778e-09
1.22687e-12
-7.28195e-13
1.17934e-09
1.59855e-12
-7.88862e-13
1.1812e-09
7.19729e-13
-4.81422e-14
1.18833e-09
2.69514e-12
-8.89552e-13
1.19953e-09
6.14528e-11
1.20909e-12
9.67032e-10
4.66406e-11
-6.08921e-11
-4.77431e-11
-5.09671e-11
2.19059e-12
1.22342e-11
-4.37433e-12
1.02369e-10
9.7269e-13
5.87438e-13
-1.10062e-11
-2.21396e-13
9.66746e-12
1.13605e-13
-7.93621e-13
1.1719e-09
2.37743e-13
-7.74089e-13
1.17201e-09
3.58563e-13
-7.91057e-13
1.17238e-09
5.1882e-13
-7.35493e-13
1.17265e-09
6.95897e-13
-7.54898e-13
1.17344e-09
9.06562e-13
-6.83362e-13
1.17433e-09
1.09941e-12
-6.77138e-13
1.17588e-09
1.34599e-12
-5.50274e-13
1.17732e-09
1.32582e-12
-4.41638e-13
1.17908e-09
1.70402e-12
-7.41793e-14
1.18081e-09
5.14796e-13
-2.43862e-14
1.1981e-09
-2.39796e-13
1.78767e-12
1.19904e-09
6.69977e-11
-8.18892e-13
8.37212e-10
4.57502e-11
6.53453e-11
-4.68649e-11
-6.48773e-11
6.46057e-11
-6.62296e-11
-6.44464e-11
-4.1807e-11
1.10966e-11
-4.66086e-12
9.45359e-11
1.61634e-11
-8.41707e-12
-8.00292e-12
-9.82846e-12
1.25821e-11
1.40035e-11
-8.66726e-12
1.26971e-13
-5.90024e-13
1.17117e-09
2.61785e-13
-5.76302e-13
1.17128e-09
4.00692e-13
-5.89486e-13
1.17159e-09
5.77438e-13
-5.5288e-13
1.17191e-09
7.65954e-13
-5.65848e-13
1.17267e-09
9.99173e-13
-5.04894e-13
1.17347e-09
1.24469e-12
-5.08344e-13
1.17489e-09
1.52017e-12
-3.61522e-13
1.17636e-09
1.76074e-12
-3.47591e-13
1.17886e-09
2.03379e-12
9.7252e-14
1.18032e-09
1.60704e-12
1.05177e-13
1.19025e-09
1.69529e-12
1.60481e-12
1.21234e-09
6.60857e-11
-5.4239e-13
1.00625e-09
6.44901e-11
-6.46586e-11
-6.58765e-11
-4.06668e-11
-3.89892e-13
5.85975e-12
9.22843e-11
-7.5627e-12
1.41262e-11
1.22717e-11
-9.83676e-12
-1.21746e-12
-3.74249e-13
-5.18562e-13
2.11027e-12
1.26492e-13
-4.12476e-13
1.17091e-09
2.58065e-13
-4.04107e-13
1.17096e-09
3.9604e-13
-4.10425e-13
1.17112e-09
5.6301e-13
-3.85925e-13
1.17138e-09
7.44079e-13
-3.89116e-13
1.1719e-09
9.74427e-13
-3.45352e-13
1.17263e-09
1.20083e-12
-3.25514e-13
1.17388e-09
1.54237e-12
-2.37953e-13
1.17545e-09
1.7241e-12
-1.40201e-13
1.17772e-09
2.23301e-12
7.32736e-14
1.18034e-09
1.66965e-12
5.44494e-13
1.1892e-09
2.61922e-12
5.24921e-13
1.20499e-09
6.54759e-11
-5.17206e-13
9.95822e-10
6.34933e-11
-6.47464e-11
-6.28825e-11
-2.09742e-12
-5.105e-11
1.74792e-11
-6.79668e-13
1.01824e-10
1.19651e-12
9.15678e-13
-1.38064e-11
2.07115e-12
1.71446e-13
9.45161e-12
1.33495e-13
-2.63243e-13
1.1709e-09
2.71935e-13
-2.58739e-13
1.17088e-09
4.20188e-13
-2.62634e-13
1.17101e-09
5.98818e-13
-2.48261e-13
1.17117e-09
7.99096e-13
-2.51049e-13
1.17159e-09
1.0584e-12
-2.25423e-13
1.17235e-09
1.34166e-12
-2.15827e-13
1.17359e-09
1.73821e-12
-1.76381e-13
1.17535e-09
2.03895e-12
-1.05467e-13
1.17805e-09
2.69225e-12
-1.17769e-13
1.18151e-09
2.41335e-12
4.7349e-13
1.19118e-09
3.51436e-12
-8.25013e-13
1.19978e-09
6.14242e-11
2.5249e-13
9.85229e-10
4.72005e-11
-6.03778e-11
-4.76274e-11
-4.30227e-11
4.65183e-12
1.40524e-11
-6.12395e-12
9.18671e-11
3.68473e-12
3.28787e-13
-1.33997e-11
2.39027e-12
-1.20295e-12
8.19888e-12
1.29719e-13
-1.27088e-13
1.17115e-09
2.65e-13
-1.23815e-13
1.17103e-09
4.1101e-13
-1.2514e-13
1.17094e-09
5.8331e-13
-1.1687e-13
1.17096e-09
7.79233e-13
-1.16966e-13
1.17126e-09
1.02453e-12
-1.02905e-13
1.17198e-09
1.30773e-12
-9.81036e-14
1.17293e-09
1.66625e-12
-7.65513e-14
1.17471e-09
2.06548e-12
-5.44774e-14
1.1765e-09
2.44389e-12
-4.97479e-14
1.17998e-09
2.96713e-12
1.00495e-13
1.18399e-09
1.93247e-12
-1.93777e-13
1.20537e-09
1.51495e-12
-4.48301e-14
1.20653e-09
7.03472e-11
-2.76594e-13
8.29691e-10
6.70514e-11
-7.02126e-11
-6.56751e-11
4.80011e-11
7.1751e-11
-4.89965e-11
-7.2239e-11
-6.14151e-11
2.048e-11
-1.45144e-11
1.1874e-10
-9.99646e-12
1.09333e-11
1.37205e-11
-7.60012e-12
1.3298e-13
1.17152e-09
2.71899e-13
1.17118e-09
4.21392e-13
1.17091e-09
5.96765e-13
1.17091e-09
7.98335e-13
1.17117e-09
1.05359e-12
1.17189e-09
1.34676e-12
1.17282e-09
1.72089e-12
1.17465e-09
2.12065e-12
1.17634e-09
2.54019e-12
1.17976e-09
2.96027e-12
1.18122e-09
2.59245e-12
1.19172e-09
2.23936e-12
1.21152e-09
6.67965e-11
1.00677e-09
6.64213e-11
-6.66059e-11
-6.65463e-11
-4.34936e-11
6.23243e-12
-1.68892e-12
9.68444e-11
-1.03149e-11
1.48756e-11
1.48413e-11
-1.05001e-11
-3.2685e-12
-8.80094e-14
-2.7676e-12
6.12242e-12
-2.81918e-12
2.23619e-13
-3.01289e-13
-2.75777e-12
5.65462e-12
-3.51107e-14
-5.38881e-12
1.0124e-09
6.65423e-11
6.69654e-11
-6.67212e-11
-6.68346e-11
7.11532e-11
-5.6608e-12
8.37398e-10
6.7272e-11
7.06969e-11
-6.58715e-11
-7.02582e-11
4.76286e-11
-7.30449e-11
-4.94967e-11
1.72569e-11
-5.91895e-11
1.53888e-11
-1.54189e-11
1.13116e-10
1.32557e-11
-5.93201e-11
-6.30249e-12
1.47497e-12
-1.67966e-11
7.62856e-11
1.3224e-11
-1.10918e-11
-1.07292e-11
-4.90517e-11
1.29761e-11
-1.57368e-11
6.22055e-11
2.71112e-13
1.13493e-11
-1.06387e-11
-9.92654e-12
-1.0442e-11
1.33239e-11
8.4721e-12
-1.28021e-11
-3.9259e-12
-5.15977e-13
-3.44462e-13
-2.43805e-12
7.22438e-12
1.51037e-12
-7.38509e-12
1.2121e-09
1.91082e-12
-7.06899e-12
1.20768e-09
3.99126e-13
-7.44045e-12
9.91603e-10
4.76102e-11
6.23467e-11
-4.75161e-11
-5.98489e-11
-5.94811e-13
-5.12325e-12
9.99132e-10
6.39191e-11
6.61042e-11
-6.27572e-11
-6.44089e-11
-9.8393e-13
-3.86796e-12
1.01021e-09
6.45932e-11
6.63405e-11
-6.60033e-11
-6.46305e-11
6.47405e-11
-1.66743e-12
8.39606e-10
6.45749e-11
6.71788e-11
-6.46444e-11
-6.61868e-11
4.53991e-11
-6.55375e-11
-4.72794e-11
-4.12949e-11
1.21256e-11
1.43705e-11
-1.23629e-11
9.19582e-11
1.66688e-11
-8.51136e-12
-8.21302e-12
-1.19055e-13
1.50742e-12
-1.42794e-11
2.13079e-12
-2.78638e-12
1.35466e-11
-4.12655e-13
-7.10617e-12
1.19196e-09
-5.95447e-13
-7.22497e-12
1.2058e-09
-2.67282e-12
-6.8185e-12
1.20131e-09
-2.88118e-12
-5.12559e-12
1.20529e-09
-2.16421e-12
-4.98306e-12
1.21277e-09
-4.89472e-13
-3.39779e-12
1.19912e-09
2.02741e-12
-4.32514e-12
9.67905e-10
4.68937e-11
6.20362e-11
-4.75583e-11
-6.0381e-11
6.72092e-11
-8.93871e-13
8.54066e-10
6.24883e-11
6.35522e-11
-6.21306e-11
-6.25882e-11
4.48624e-11
-6.49842e-11
-4.73024e-11
-2.98428e-11
9.85425e-12
-3.36999e-12
8.02865e-11
1.66193e-11
-7.04825e-12
-7.5591e-12
-8.43573e-12
1.5491e-11
1.06736e-11
-9.45915e-12
-9.83206e-13
5.51403e-13
-1.98321e-12
2.41501e-12
3.43623e-13
-6.25553e-12
1.18007e-09
3.12888e-13
-6.0295e-12
1.18289e-09
-6.58875e-13
-6.33082e-12
1.19172e-09
-2.84566e-13
-5.16004e-12
1.18894e-09
-3.88026e-13
-4.96756e-12
1.19042e-09
6.0285e-13
-4.32982e-12
1.19815e-09
-1.28102e-12
-3.08663e-12
1.20035e-09
4.29664e-14
-2.87303e-12
1.19655e-09
6.5663e-11
-2.37698e-12
7.90953e-10
4.31388e-11
6.73638e-11
-4.51429e-11
-6.47497e-11
4.80049e-11
-6.55654e-11
-4.81799e-11
1.69819e-11
-6.16931e-11
1.18086e-11
-1.37483e-11
1.12315e-10
2.6561e-12
-9.98518e-12
1.50576e-12
5.82333e-12
-2.0006e-15
-5.0738e-12
1.17866e-09
4.70183e-14
-4.91647e-12
1.17889e-09
-2.6529e-13
-5.12988e-12
1.18068e-09
6.67722e-15
-4.34477e-12
1.17934e-09
4.95423e-13
-4.41041e-12
1.17934e-09
8.30457e-13
-3.69576e-12
1.17997e-09
2.07667e-12
-3.69904e-12
1.18785e-09
1.82965e-12
-2.84302e-12
1.2129e-09
6.52898e-13
-2.56936e-12
1.19027e-09
6.75129e-11
-6.88805e-13
7.99505e-10
4.95734e-11
6.75341e-11
-4.98778e-11
-6.72157e-11
4.95429e-11