/*--------------------------------*- C++ -*----------------------------------*\
| =========                 |                                                 |
| \\      /  F ield         | OpenFOAM: The Open Source CFD Toolbox           |
|  \\    /   O peration     | Version:  2.1.1                                 |
|   \\  /    A nd           | Web:      www.OpenFOAM.org                      |
|    \\/     M anipulation  |                                                 |
\*---------------------------------------------------------------------------*/
FoamFile
{
    version     2.0;
    format      ascii;
    class       volScalarField;
    location    "0.001";
    object      Th;
}
// * * * * * * * * * * * * * * * * * * * * * * * * * * * * * * * * * * * * * //

dimensions      [0 0 0 0 0 0 0];

internalField   nonuniform List<scalar> 
10260
(
1.39409e-13
1.57e-13
1.00029e-14
1.00103e-14
1e-14
1.00591e-14
1.01106e-14
9.7818e-14
1e-14
1e-14
1e-14
1e-14
1.00001e-14
1.00198e-14
1.00583e-14
1e-14
1.00001e-14
1e-14
1e-14
1e-14
1e-14
1e-14
1.00001e-14
1.00141e-14
1.02499e-14
2.94058e-13
1.00001e-14
1e-14
1e-14
1e-14
1e-14
1e-14
1e-14
1e-14
1e-14
1.00203e-14
2.74473e-13
1.00001e-14
1e-14
1e-14
1e-14
1e-14
1e-14
1e-14
1e-14
1e-14
1e-14
1.00201e-14
2.72304e-13
1.00001e-14
1e-14
1e-14
1e-14
1e-14
1e-14
1e-14
1e-14
1e-14
1e-14
1e-14
1.01167e-14
1.00001e-14
1e-14
1e-14
1e-14
1e-14
1e-14
1e-14
1e-14
1e-14
1e-14
1e-14
1.00142e-14
1e-14
1.00001e-14
1e-14
1e-14
1e-14
1e-14
1e-14
1e-14
1e-14
1e-14
1e-14
1e-14
1.00001e-14
1e-14
1.04922e-13
1e-14
1e-14
1e-14
1e-14
1e-14
1e-14
1e-14
1e-14
1e-14
1e-14
1e-14
1e-14
1.00201e-14
1e-14
1e-14
1e-14
1e-14
1e-14
1e-14
1e-14
1e-14
1e-14
1e-14
1e-14
1e-14
1e-14
1.00001e-14
1.00043e-14
3.56881e-13
1e-14
1e-14
1e-14
1e-14
1e-14
1e-14
1e-14
1e-14
1e-14
1e-14
1e-14
1e-14
1.00001e-14
1e-14
1e-14
1e-14
1e-14
1e-14
1e-14
1e-14
1e-14
1e-14
1e-14
1e-14
1e-14
1e-14
1e-14
1e-14
1e-14
1e-14
1.00002e-14
1e-14
1e-14
1e-14
1e-14
1e-14
1e-14
1e-14
1e-14
1e-14
1e-14
1e-14
1e-14
1.00105e-14
1e-14
1.00002e-14
1e-14
1.00001e-14
1.00001e-14
1e-14
1e-14
1.00001e-14
1e-14
1e-14
1e-14
1e-14
1e-14
1e-14
1.00032e-14
1.02321e-14
1.3975e-13
1.57497e-13
1.00028e-14
1.00093e-14
1e-14
1.00573e-14
1.01767e-14
9.80727e-14
1e-14
1e-14
1e-14
1.00001e-14
1.00001e-14
1.00185e-14
1.00572e-14
1e-14
1e-14
1e-14
1e-14
1e-14
1e-14
1e-14
1e-14
1.00132e-14
1.02493e-14
2.94213e-13
1.00001e-14
1e-14
1e-14
1e-14
1e-14
1e-14
1e-14
1e-14
1e-14
1.00176e-14
2.75777e-13
1e-14
1e-14
1e-14
1e-14
1e-14
1e-14
1e-14
1e-14
1e-14
1e-14
1.00176e-14
2.73582e-13
1e-14
1e-14
1e-14
1e-14
1e-14
1e-14
1e-14
1e-14
1e-14
1e-14
1e-14
1.01143e-14
1e-14
1e-14
1e-14
1e-14
1e-14
1e-14
1e-14
1e-14
1e-14
1e-14
1e-14
1.00132e-14
1e-14
1.00001e-14
1e-14
1e-14
1e-14
1e-14
1e-14
1e-14
1e-14
1e-14
1e-14
1e-14
1.00001e-14
1e-14
1.0547e-13
1e-14
1e-14
1e-14
1e-14
1e-14
1e-14
1e-14
1e-14
1e-14
1e-14
1e-14
1e-14
1.00186e-14
1e-14
1e-14
1e-14
1e-14
1e-14
1e-14
1e-14
1e-14
1e-14
1e-14
1e-14
1e-14
1e-14
1.00001e-14
1.00045e-14
3.56455e-13
1e-14
1e-14
1e-14
1e-14
1e-14
1e-14
1e-14
1e-14
1e-14
1e-14
1e-14
1e-14
1.00001e-14
1e-14
1e-14
1e-14
1e-14
1e-14
1e-14
1e-14
1e-14
1e-14
1e-14
1e-14
1e-14
1e-14
1e-14
1e-14
1e-14
1e-14
1.00001e-14
1e-14
1e-14
1e-14
1e-14
1e-14
1e-14
1e-14
1e-14
1e-14
1e-14
1e-14
1e-14
1.00093e-14
1e-14
1.00001e-14
1e-14
1e-14
1e-14
1e-14
1e-14
1e-14
1e-14
1e-14
1e-14
1e-14
1e-14
1e-14
1.00029e-14
1.02355e-14
1.39793e-13
1.57546e-13
1.00029e-14
1.00091e-14
1e-14
1.00577e-14
1.01864e-14
9.80921e-14
1e-14
1e-14
1e-14
1.00001e-14
1.00001e-14
1.00183e-14
1.00575e-14
1e-14
1e-14
1e-14
1e-14
1e-14
1e-14
1e-14
1e-14
1.00131e-14
1.02498e-14
2.94179e-13
1e-14
1e-14
1e-14
1e-14
1e-14
1e-14
1e-14
1e-14
1e-14
1.00172e-14
2.75811e-13
1e-14
1e-14
1e-14
1e-14
1e-14
1e-14
1e-14
1e-14
1e-14
1e-14
1.00173e-14
2.73602e-13
1e-14
1e-14
1e-14
1e-14
1e-14
1e-14
1e-14
1e-14
1e-14
1e-14
1e-14
1.01144e-14
1e-14
1e-14
1e-14
1e-14
1e-14
1e-14
1e-14
1e-14
1e-14
1e-14
1e-14
1.00131e-14
1e-14
1.00001e-14
1e-14
1e-14
1e-14
1e-14
1e-14
1e-14
1e-14
1e-14
1e-14
1e-14
1.00001e-14
1e-14
1.05456e-13
1e-14
1e-14
1e-14
1e-14
1e-14
1e-14
1e-14
1e-14
1e-14
1e-14
1e-14
1e-14
1.00183e-14
1e-14
1e-14
1e-14
1e-14
1e-14
1e-14
1e-14
1e-14
1e-14
1e-14
1e-14
1e-14
1e-14
1.00001e-14
1.00045e-14
3.56281e-13
1e-14
1e-14
1e-14
1e-14
1e-14
1e-14
1e-14
1e-14
1e-14
1e-14
1e-14
1e-14
1.00001e-14
1e-14
1e-14
1e-14
1e-14
1e-14
1e-14
1e-14
1e-14
1e-14
1e-14
1e-14
1e-14
1e-14
1e-14
1e-14
1e-14
1e-14
1e-14
1e-14
1e-14
1e-14
1e-14
1e-14
1e-14
1e-14
1e-14
1e-14
1e-14
1e-14
1e-14
1.00091e-14
1e-14
1.00001e-14
1e-14
1e-14
1e-14
1e-14
1e-14
1e-14
1e-14
1e-14
1.00001e-14
1e-14
1e-14
1e-14
1.00028e-14
1.02378e-14
1.39788e-13
1.57539e-13
1.00029e-14
1.00092e-14
1e-14
1.00576e-14
1.01864e-14
9.81068e-14
1e-14
1e-14
1e-14
1.00001e-14
1.00001e-14
1.00182e-14
1.00575e-14
1e-14
1e-14
1e-14
1e-14
1e-14
1e-14
1e-14
1e-14
1.00131e-14
1.02501e-14
2.9418e-13
1e-14
1e-14
1e-14
1e-14
1e-14
1e-14
1e-14
1e-14
1e-14
1.00171e-14
2.75795e-13
1e-14
1e-14
1e-14
1e-14
1e-14
1e-14
1e-14
1e-14
1e-14
1e-14
1.00174e-14
2.73593e-13
1e-14
1e-14
1e-14
1e-14
1e-14
1e-14
1e-14
1e-14
1e-14
1e-14
1e-14
1.01142e-14
1e-14
1e-14
1e-14
1e-14
1e-14
1e-14
1e-14
1e-14
1e-14
1e-14
1e-14
1.00131e-14
1e-14
1.00001e-14
1e-14
1e-14
1e-14
1e-14
1e-14
1e-14
1e-14
1e-14
1e-14
1e-14
1.00001e-14
1e-14
1.0541e-13
1e-14
1e-14
1e-14
1e-14
1e-14
1e-14
1e-14
1e-14
1e-14
1e-14
1e-14
1e-14
1.00183e-14
1e-14
1e-14
1e-14
1e-14
1e-14
1e-14
1e-14
1e-14
1e-14
1e-14
1e-14
1e-14
1e-14
1.00001e-14
1.00045e-14
3.56232e-13
1e-14
1e-14
1e-14
1e-14
1e-14
1e-14
1e-14
1e-14
1e-14
1e-14
1e-14
1e-14
1.00001e-14
1e-14
1e-14
1e-14
1e-14
1e-14
1e-14
1e-14
1e-14
1e-14
1e-14
1e-14
1e-14
1e-14
1e-14
1e-14
1e-14
1e-14
1e-14
1e-14
1e-14
1e-14
1e-14
1e-14
1e-14
1e-14
1e-14
1e-14
1e-14
1e-14
1e-14
1.00092e-14
1e-14
1e-14
1e-14
1e-14
1e-14
1e-14
1e-14
1e-14
1e-14
1e-14
1e-14
1e-14
1e-14
1e-14
1.00029e-14
1.02383e-14
1.39733e-13
1.57467e-13
1.0003e-14
1.00096e-14
1e-14
1.00579e-14
1.01853e-14
9.81252e-14
1e-14
1e-14
1e-14
1.00001e-14
1.00001e-14
1.00183e-14
1.00577e-14
1e-14
1e-14
1e-14
1e-14
1e-14
1e-14
1e-14
1.00001e-14
1.00131e-14
1.02498e-14
2.94172e-13
1e-14
1e-14
1e-14
1e-14
1e-14
1e-14
1e-14
1e-14
1e-14
1.00172e-14
2.75778e-13
1e-14
1e-14
1e-14
1e-14
1e-14
1e-14
1e-14
1e-14
1e-14
1e-14
1.00174e-14
2.7358e-13
1e-14
1e-14
1e-14
1e-14
1e-14
1e-14
1e-14
1e-14
1e-14
1e-14
1e-14
1.0114e-14
1e-14
1e-14
1e-14
1e-14
1e-14
1e-14
1e-14
1e-14
1e-14
1e-14
1e-14
1.00131e-14
1e-14
1e-14
1e-14
1e-14
1e-14
1e-14
1e-14
1e-14
1e-14
1e-14
1e-14
1e-14
1.00001e-14
1e-14
1.0531e-13
1e-14
1e-14
1e-14
1e-14
1e-14
1e-14
1e-14
1e-14
1e-14
1e-14
1e-14
1e-14
1.00183e-14
1e-14
1e-14
1e-14
1e-14
1e-14
1e-14
1e-14
1e-14
1e-14
1e-14
1e-14
1e-14
1e-14
1.00001e-14
1.00044e-14
3.56152e-13
1e-14
1e-14
1e-14
1e-14
1e-14
1e-14
1e-14
1e-14
1e-14
1e-14
1e-14
1e-14
1.00001e-14
1e-14
1e-14
1e-14
1e-14
1e-14
1e-14
1e-14
1e-14
1e-14
1e-14
1e-14
1e-14
1e-14
1e-14
1e-14
1e-14
1e-14
1e-14
1e-14
1e-14
1e-14
1e-14
1e-14
1e-14
1e-14
1e-14
1e-14
1e-14
1e-14
1e-14
1.00096e-14
1e-14
1.00001e-14
1e-14
1e-14
1e-14
1e-14
1e-14
1e-14
1e-14
1e-14
1e-14
1e-14
1e-14
1e-14
1.0003e-14
1.02394e-14
1.39542e-13
1.57205e-13
1.00028e-14
1.0011e-14
1e-14
1.00602e-14
1.01863e-14
9.81476e-14
1e-14
1e-14
1e-14
1.00001e-14
1.00001e-14
1.00186e-14
1.0058e-14
1e-14
1e-14
1e-14
1e-14
1e-14
1e-14
1e-14
1e-14
1.00144e-14
1.02488e-14
2.94106e-13
1e-14
1e-14
1e-14
1e-14
1e-14
1e-14
1e-14
1e-14
1e-14
1.00172e-14
2.75707e-13
1e-14
1e-14
1e-14
1e-14
1e-14
1e-14
1e-14
1e-14
1e-14
1e-14
1.00176e-14
2.73507e-13
1e-14
1e-14
1e-14
1e-14
1e-14
1e-14
1e-14
1e-14
1e-14
1e-14
1e-14
1.01138e-14
1e-14
1e-14
1e-14
1e-14
1e-14
1e-14
1e-14
1e-14
1e-14
1e-14
1e-14
1.00144e-14
1e-14
1e-14
1e-14
1e-14
1e-14
1e-14
1e-14
1e-14
1e-14
1e-14
1e-14
1e-14
1e-14
1e-14
1.05028e-13
1e-14
1e-14
1e-14
1e-14
1e-14
1e-14
1e-14
1e-14
1e-14
1e-14
1e-14
1e-14
1.00186e-14
1e-14
1e-14
1e-14
1e-14
1e-14
1e-14
1e-14
1e-14
1e-14
1e-14
1e-14
1e-14
1e-14
1.00001e-14
1.00044e-14
3.55889e-13
1e-14
1e-14
1e-14
1e-14
1e-14
1e-14
1e-14
1e-14
1e-14
1e-14
1e-14
1e-14
1.00001e-14
1e-14
1e-14
1e-14
1e-14
1e-14
1e-14
1e-14
1e-14
1e-14
1e-14
1e-14
1e-14
1e-14
1e-14
1e-14
1e-14
1e-14
1e-14
1e-14
1e-14
1e-14
1e-14
1e-14
1e-14
1e-14
1e-14
1e-14
1e-14
1e-14
1e-14
1.00111e-14
1e-14
1e-14
1e-14
1e-14
1e-14
1.00001e-14
1.00001e-14
1e-14
1e-14
1e-14
1e-14
1e-14
1e-14
1e-14
1.00028e-14
1.02401e-14
1.38293e-13
1.55959e-13
1.00072e-14
1.00176e-14
1e-14
1.00555e-14
1.01627e-14
9.80134e-14
1e-14
1e-14
1e-14
1.00001e-14
1.00002e-14
1.00181e-14
1.00631e-14
1e-14
1e-14
1e-14
1e-14
1e-14
1e-14
1e-14
1e-14
1.0012e-14
1.03305e-14
2.93652e-13
1e-14
1e-14
1e-14
1e-14
1e-14
1e-14
1e-14
1e-14
1e-14
1.0018e-14
2.75649e-13
1e-14
1e-14
1e-14
1e-14
1e-14
1e-14
1e-14
1e-14
1e-14
1e-14
1.00186e-14
2.73273e-13
1e-14
1e-14
1e-14
1e-14
1e-14
1e-14
1e-14
1e-14
1e-14
1e-14
1e-14
1.01146e-14
1e-14
1e-14
1e-14
1e-14
1e-14
1e-14
1e-14
1e-14
1e-14
1e-14
1e-14
1.0012e-14
1e-14
1e-14
1e-14
1e-14
1e-14
1e-14
1e-14
1e-14
1e-14
1e-14
1e-14
1e-14
1e-14
1e-14
1.03488e-13
1e-14
1e-14
1e-14
1e-14
1e-14
1e-14
1e-14
1e-14
1e-14
1e-14
1e-14
1e-14
1.00181e-14
1e-14
1e-14
1e-14
1e-14
1e-14
1e-14
1e-14
1e-14
1e-14
1e-14
1e-14
1e-14
1e-14
1.00002e-14
1.00035e-14
3.55936e-13
1e-14
1e-14
1e-14
1e-14
1e-14
1e-14
1e-14
1e-14
1e-14
1e-14
1e-14
1e-14
1.00001e-14
1e-14
1e-14
1e-14
1e-14
1e-14
1e-14
1e-14
1e-14
1e-14
1e-14
1e-14
1e-14
1e-14
1e-14
1e-14
1e-14
1e-14
1e-14
1e-14
1e-14
1e-14
1e-14
1e-14
1e-14
1e-14
1e-14
1e-14
1e-14
1e-14
1e-14
1.00176e-14
1e-14
1e-14
1e-14
1e-14
1e-14
1e-14
1e-14
1e-14
1e-14
1e-14
1.00001e-14
1e-14
1e-14
1e-14
1.00073e-14
1.01826e-14
1.30915e-14
1.22257e-14
1.00008e-14
1.00011e-14
1e-14
1.00108e-14
1.00713e-14
1.24547e-14
1e-14
1e-14
1e-14
1e-14
1e-14
1.00007e-14
1.00068e-14
1.08531e-14
1e-14
1e-14
1e-14
1e-14
1e-14
1e-14
1e-14
1.00008e-14
1.00377e-14
1e-14
1e-14
1e-14
1e-14
1e-14
1e-14
1e-14
1e-14
1e-14
1e-14
1e-14
1e-14
1e-14
1e-14
1e-14
1e-14
1e-14
1e-14
1e-14
1e-14
1e-14
1e-14
1e-14
1e-14
1e-14
1e-14
1e-14
1e-14
1e-14
1e-14
1e-14
1e-14
1e-14
1e-14
1e-14
1e-14
1e-14
1e-14
1e-14
1e-14
1e-14
1e-14
1e-14
1e-14
1e-14
1e-14
1e-14
1.00008e-14
1.00314e-14
1e-14
1e-14
1e-14
1e-14
1e-14
1e-14
1e-14
1e-14
1e-14
1e-14
1e-14
1e-14
1e-14
1e-14
1e-14
1e-14
1e-14
1e-14
1e-14
1e-14
1e-14
1e-14
1e-14
1e-14
1e-14
1e-14
1.00007e-14
1.00713e-14
1e-14
1e-14
1e-14
1e-14
1e-14
1e-14
1e-14
1e-14
1e-14
1e-14
1e-14
1e-14
1e-14
1e-14
1e-14
1e-14
1e-14
1e-14
1e-14
1e-14
1e-14
1e-14
1e-14
1e-14
1e-14
1e-14
1e-14
1e-14
1.00001e-14
1.3332e-14
1e-14
1e-14
1e-14
1e-14
1e-14
1e-14
1e-14
1e-14
1e-14
1e-14
1e-14
1e-14
1e-14
1e-14
1.01129e-14
1e-14
1e-14
1e-14
1e-14
1e-14
1e-14
1e-14
1e-14
1e-14
1e-14
1e-14
1e-14
1e-14
1.00011e-14
1.006e-14
1e-14
1e-14
1e-14
1e-14
1e-14
1e-14
1e-14
1e-14
1e-14
1e-14
1e-14
1e-14
1e-14
1.00008e-14
1e-14
1.00046e-14
1.00016e-14
1e-14
1.00001e-14
1.00001e-14
1e-14
1e-14
1.00001e-14
1.00019e-14
1e-14
1e-14
1e-14
1e-14
1e-14
1e-14
1e-14
1.00002e-14
1e-14
1e-14
1e-14
1e-14
1e-14
1e-14
1e-14
1.00001e-14
1.00001e-14
1e-14
1e-14
1e-14
1e-14
1e-14
1e-14
1e-14
1e-14
1e-14
1e-14
1e-14
1e-14
1e-14
1e-14
1e-14
1e-14
1e-14
1e-14
1e-14
1e-14
1e-14
1e-14
1e-14
1e-14
1e-14
1e-14
1e-14
1e-14
1e-14
1e-14
1e-14
1e-14
1e-14
1e-14
1e-14
1e-14
1e-14
1e-14
1e-14
1e-14
1e-14
1e-14
1e-14
1e-14
1e-14
1e-14
1e-14
1.00001e-14
1.00001e-14
1e-14
1e-14
1e-14
1e-14
1e-14
1e-14
1e-14
1e-14
1e-14
1e-14
1e-14
1e-14
1e-14
1e-14
1e-14
1e-14
1e-14
1e-14
1e-14
1e-14
1e-14
1e-14
1e-14
1e-14
1e-14
1e-14
1.00001e-14
1.00001e-14
1e-14
1e-14
1e-14
1e-14
1e-14
1e-14
1e-14
1e-14
1e-14
1e-14
1e-14
1e-14
1e-14
1e-14
1e-14
1e-14
1e-14
1e-14
1e-14
1e-14
1e-14
1e-14
1e-14
1e-14
1e-14
1e-14
1e-14
1e-14
1.00024e-14
1e-14
1e-14
1e-14
1e-14
1e-14
1e-14
1e-14
1e-14
1e-14
1e-14
1e-14
1e-14
1e-14
1e-14
1.00001e-14
1e-14
1e-14
1e-14
1e-14
1e-14
1e-14
1e-14
1e-14
1e-14
1e-14
1e-14
1e-14
1e-14
1.00001e-14
1.00002e-14
1.00001e-14
1e-14
1e-14
1e-14
1e-14
1e-14
1e-14
1e-14
1e-14
1e-14
1e-14
1e-14
1e-14
1.00001e-14
1e-14
1.00002e-14
1e-14
1e-14
1e-14
1e-14
1e-14
1e-14
1e-14
1e-14
1e-14
1e-14
1e-14
1e-14
1e-14
1e-14
1e-14
1e-14
1e-14
1e-14
1e-14
1e-14
1e-14
1e-14
1e-14
1e-14
1e-14
1e-14
1e-14
1e-14
1e-14
1e-14
1e-14
1e-14
1e-14
1e-14
1e-14
1e-14
1e-14
1e-14
1e-14
1e-14
1e-14
1e-14
1e-14
1e-14
1e-14
1e-14
1e-14
1e-14
1e-14
1e-14
1e-14
1e-14
1e-14
1e-14
1e-14
1e-14
1e-14
1e-14
1e-14
1e-14
1e-14
1e-14
1e-14
1e-14
1e-14
1e-14
1e-14
1e-14
1e-14
1e-14
1e-14
1e-14
1e-14
1e-14
1e-14
1e-14
1e-14
1e-14
1e-14
1e-14
1e-14
1e-14
1e-14
1e-14
1e-14
1e-14
1e-14
1e-14
1e-14
1e-14
1e-14
1e-14
1e-14
1e-14
1e-14
1e-14
1e-14
1e-14
1e-14
1e-14
1e-14
1e-14
1e-14
1e-14
1e-14
1e-14
1e-14
1e-14
1e-14
1e-14
1e-14
1e-14
1e-14
1e-14
1e-14
1e-14
1e-14
1e-14
1e-14
1e-14
1e-14
1e-14
1e-14
1e-14
1e-14
1e-14
1e-14
1e-14
1e-14
1e-14
1e-14
1e-14
1e-14
1e-14
1e-14
1e-14
1e-14
1e-14
1e-14
1e-14
1e-14
1e-14
1e-14
1e-14
1e-14
1e-14
1e-14
1e-14
1e-14
1e-14
1e-14
1e-14
1e-14
1e-14
1e-14
1e-14
1e-14
1e-14
1e-14
1e-14
1e-14
1.00001e-14
1e-14
1e-14
1e-14
1e-14
1e-14
1e-14
1e-14
1e-14
1e-14
1e-14
1e-14
1e-14
1e-14
1e-14
1.00001e-14
1e-14
1e-14
1e-14
1e-14
1e-14
1e-14
1e-14
1e-14
1e-14
1e-14
1e-14
1e-14
1e-14
1e-14
1e-14
1e-14
1e-14
1e-14
1e-14
1e-14
1e-14
1e-14
1e-14
1e-14
1e-14
1e-14
1e-14
1e-14
1e-14
1e-14
1e-14
1e-14
1e-14
1e-14
1e-14
1e-14
1e-14
1e-14
1e-14
1e-14
1e-14
1e-14
1e-14
1e-14
1e-14
1e-14
1e-14
1e-14
1e-14
1e-14
1e-14
1e-14
1e-14
1e-14
1e-14
1e-14
1e-14
1e-14
1e-14
1e-14
1e-14
1e-14
1e-14
1e-14
1e-14
1e-14
1e-14
1e-14
1e-14
1e-14
1e-14
1e-14
1e-14
1e-14
1e-14
1e-14
1e-14
1e-14
1e-14
1e-14
1e-14
1e-14
1e-14
1e-14
1e-14
1e-14
1e-14
1e-14
1e-14
1e-14
1e-14
1e-14
1e-14
1e-14
1e-14
1e-14
1e-14
1e-14
1e-14
1e-14
1e-14
1e-14
1e-14
1e-14
1e-14
1e-14
1e-14
1e-14
1e-14
1e-14
1e-14
1e-14
1e-14
1e-14
1e-14
1e-14
1e-14
1e-14
1e-14
1e-14
1e-14
1e-14
1e-14
1e-14
1e-14
1e-14
1e-14
1e-14
1e-14
1e-14
1e-14
1e-14
1e-14
1e-14
1e-14
1e-14
1e-14
1e-14
1e-14
1e-14
1e-14
1e-14
1e-14
1e-14
1e-14
1e-14
1e-14
1e-14
1e-14
1e-14
1e-14
1e-14
1e-14
1e-14
1e-14
1e-14
1e-14
1e-14
1e-14
1e-14
1e-14
1e-14
1e-14
1e-14
1e-14
1e-14
1e-14
1e-14
1e-14
1e-14
1e-14
1e-14
1e-14
1e-14
1e-14
1e-14
1e-14
1e-14
1e-14
1e-14
1e-14
1e-14
1e-14
1e-14
1e-14
1e-14
1e-14
1e-14
1e-14
1e-14
1e-14
1e-14
1e-14
1e-14
1e-14
1e-14
1e-14
1e-14
1e-14
1e-14
1e-14
1e-14
1e-14
1e-14
1e-14
1e-14
1e-14
1e-14
1e-14
1e-14
1e-14
1e-14
1e-14
1e-14
1e-14
1e-14
1e-14
1e-14
1e-14
1e-14
1e-14
1e-14
1e-14
1e-14
1e-14
1e-14
1e-14
1e-14
1e-14
1e-14
1e-14
1e-14
1e-14
1e-14
1e-14
1e-14
1e-14
1e-14
1e-14
1e-14
1e-14
1e-14
1e-14
1e-14
1e-14
1e-14
1e-14
1e-14
1e-14
1e-14
1e-14
1e-14
1e-14
1e-14
1e-14
1e-14
1e-14
1e-14
1e-14
1e-14
1e-14
1e-14
1e-14
1e-14
1e-14
1e-14
1e-14
1e-14
1e-14
1e-14
1e-14
1e-14
1e-14
1e-14
1e-14
1e-14
1e-14
1e-14
1e-14
1e-14
1e-14
1e-14
1e-14
1e-14
1e-14
1e-14
1e-14
1e-14
1e-14
1e-14
1e-14
1e-14
1e-14
1e-14
1e-14
1e-14
1e-14
1e-14
1e-14
1e-14
1e-14
1e-14
1e-14
1e-14
1e-14
1e-14
1e-14
1e-14
1.00001e-14
1e-14
1e-14
1e-14
1e-14
1e-14
1e-14
1e-14
1e-14
1e-14
1e-14
1e-14
1e-14
1e-14
1e-14
1.00001e-14
1e-14
1e-14
1e-14
1e-14
1e-14
1e-14
1e-14
1e-14
1e-14
1e-14
1e-14
1e-14
1e-14
1e-14
1.00001e-14
1.00001e-14
1e-14
1e-14
1e-14
1e-14
1e-14
1e-14
1e-14
1e-14
1e-14
1e-14
1e-14
1e-14
1e-14
1e-14
1e-14
1e-14
1e-14
1e-14
1e-14
1e-14
1e-14
1e-14
1e-14
1e-14
1e-14
1e-14
1e-14
1e-14
1e-14
1e-14
1e-14
1e-14
1e-14
1e-14
1e-14
1e-14
1e-14
1e-14
1e-14
1e-14
1e-14
1e-14
1e-14
1e-14
1e-14
1e-14
1e-14
1e-14
1e-14
1e-14
1e-14
1e-14
1e-14
1e-14
1e-14
1e-14
1e-14
1e-14
1e-14
1e-14
1e-14
1e-14
1e-14
1e-14
1e-14
1e-14
1e-14
1e-14
1e-14
1e-14
1e-14
1e-14
1e-14
1e-14
1e-14
1e-14
1e-14
1e-14
1e-14
1e-14
1e-14
1e-14
1e-14
1e-14
1e-14
1e-14
1e-14
1e-14
1e-14
1e-14
1e-14
1e-14
1e-14
1e-14
1e-14
1e-14
1e-14
1e-14
1e-14
1e-14
1e-14
1e-14
1e-14
1e-14
1e-14
1e-14
1e-14
1e-14
1e-14
1e-14
1e-14
1e-14
1e-14
1e-14
1e-14
1e-14
1.00001e-14
1e-14
1e-14
1e-14
1e-14
1e-14
1e-14
1e-14
1e-14
1e-14
1e-14
1e-14
1e-14
1e-14
1e-14
1e-14
1e-14
1e-14
1e-14
1e-14
1e-14
1e-14
1e-14
1e-14
1e-14
1e-14
1e-14
1e-14
1e-14
1e-14
1e-14
1e-14
1e-14
1e-14
1e-14
1e-14
1e-14
1e-14
1e-14
1e-14
1e-14
1e-14
1e-14
1e-14
1e-14
1e-14
1e-14
1e-14
1e-14
1e-14
1e-14
1e-14
1e-14
1e-14
1e-14
1e-14
1e-14
1e-14
1e-14
1.00002e-14
1e-14
1e-14
1e-14
1e-14
1e-14
1e-14
1e-14
1e-14
1.00001e-14
1.00001e-14
1e-14
1e-14
1e-14
1e-14
1e-14
1e-14
1e-14
1e-14
1e-14
1e-14
1e-14
1e-14
1e-14
1.00001e-14
1e-14
1e-14
1e-14
1e-14
1e-14
1e-14
1e-14
1e-14
1e-14
1e-14
1e-14
1e-14
1e-14
1e-14
1e-14
1e-14
1e-14
1e-14
1e-14
1e-14
1e-14
1e-14
1e-14
1e-14
1e-14
1e-14
1e-14
1e-14
1e-14
1e-14
1e-14
1e-14
1e-14
1e-14
1e-14
1e-14
1e-14
1e-14
1e-14
1e-14
1e-14
1e-14
1e-14
1e-14
1e-14
1e-14
1e-14
1e-14
1e-14
1e-14
1e-14
1e-14
1e-14
1e-14
1e-14
1e-14
1e-14
1e-14
1e-14
1e-14
1e-14
1e-14
1e-14
1e-14
1e-14
1e-14
1e-14
1e-14
1e-14
1e-14
1e-14
1e-14
1e-14
1e-14
1e-14
1e-14
1e-14
1e-14
1e-14
1e-14
1e-14
1e-14
1e-14
1e-14
1e-14
1e-14
1e-14
1e-14
1e-14
1e-14
1e-14
1e-14
1e-14
1e-14
1e-14
1e-14
1e-14
1e-14
1e-14
1e-14
1e-14
1e-14
1e-14
1e-14
1e-14
1e-14
1e-14
1e-14
1e-14
1e-14
1e-14
1e-14
1e-14
1e-14
1e-14
1e-14
1e-14
1e-14
1e-14
1e-14
1e-14
1e-14
1e-14
1e-14
1e-14
1e-14
1e-14
1e-14
1e-14
1e-14
1e-14
1e-14
1e-14
1e-14
1e-14
1e-14
1e-14
1e-14
1e-14
1e-14
1e-14
1e-14
1e-14
1e-14
1e-14
1e-14
1e-14
1e-14
1e-14
1e-14
1e-14
1e-14
1.00002e-14
1e-14
1e-14
1e-14
1e-14
1e-14
1e-14
1e-14
1e-14
1e-14
1e-14
1e-14
1e-14
1e-14
1e-14
1.00001e-14
1e-14
1e-14
1e-14
1e-14
1e-14
1e-14
1e-14
1e-14
1e-14
1e-14
1e-14
1e-14
1e-14
1e-14
1e-14
1e-14
1e-14
1e-14
1e-14
1e-14
1e-14
1e-14
1e-14
1e-14
1e-14
1e-14
1e-14
1e-14
1e-14
1e-14
1e-14
1e-14
1e-14
1e-14
1e-14
1e-14
1e-14
1e-14
1e-14
1e-14
1e-14
1e-14
1e-14
1e-14
1e-14
1e-14
1e-14
1e-14
1e-14
1e-14
1e-14
1e-14
1e-14
1e-14
1e-14
1e-14
1e-14
1e-14
1e-14
1e-14
1e-14
1e-14
1e-14
1e-14
1e-14
1e-14
1e-14
1e-14
1e-14
1e-14
1e-14
1e-14
1e-14
1e-14
1e-14
1e-14
1e-14
1e-14
1e-14
1e-14
1e-14
1e-14
1e-14
1e-14
1e-14
1e-14
1e-14
1e-14
1e-14
1e-14
1e-14
1e-14
1e-14
1e-14
1e-14
1e-14
1e-14
1e-14
1e-14
1e-14
1e-14
1e-14
1e-14
1e-14
1e-14
1e-14
1e-14
1e-14
1e-14
1e-14
1e-14
1e-14
1e-14
1e-14
1e-14
1e-14
1e-14
1e-14
1e-14
1e-14
1e-14
1e-14
1e-14
1e-14
1e-14
1e-14
1e-14
1e-14
1e-14
1e-14
1e-14
1e-14
1e-14
1e-14
1e-14
1e-14
1e-14
1e-14
1e-14
1e-14
1e-14
1e-14
1e-14
1e-14
1e-14
1e-14
1e-14
1e-14
1e-14
1e-14
1e-14
1e-14
1e-14
1e-14
1e-14
1e-14
1e-14
1e-14
1e-14
1e-14
1e-14
1.00001e-14
1e-14
1e-14
1e-14
1e-14
1e-14
1e-14
1e-14
1e-14
1e-14
1e-14
1e-14
1e-14
1e-14
1e-14
1.52773e-13
1.62303e-13
1.03888e-14
1.04422e-14
1.72595e-13
1.05418e-14
1.09906e-14
1.37488e-14
1.01214e-14
1.00124e-14
1.87858e-14
2.11545e-14
3.69334e-13
1.09751e-14
1.49487e-14
1.00166e-14
1.00061e-14
1.06359e-13
1.03168e-14
1.21775e-14
1.02996e-14
1.39645e-13
3.09622e-13
1.01544e-14
1.11218e-14
1.00017e-14
1.00139e-14
2.42142e-14
1.01252e-14
1.11367e-14
1e-14
1.08796e-14
1.35829e-13
1.00071e-14
1.00964e-14
3.16468e-13
1.00703e-14
3.45997e-13
3.43267e-13
1e-14
3.4455e-13
3.46642e-13
1.00717e-14
3.16478e-13
1.00963e-14
1.35829e-13
1.00077e-14
1.08802e-14
1e-14
1.11378e-14
1.01257e-14
2.42753e-14
3.09319e-13
1.0014e-14
1.11269e-14
1.00019e-14
1.01688e-14
1.3964e-13
1.03172e-14
1.21515e-14
1.03288e-14
1.06469e-13
1.00064e-14
1.49312e-14
1.00163e-14
1.09675e-14
3.69257e-13
2.01289e-14
1.86237e-14
1.00059e-14
1.01284e-14
1.37758e-14
1.09835e-14
1.05537e-14
1.72887e-13
1.04504e-14
1.62493e-13
1.0393e-14
1.52921e-13
1.47161e-13
1.01947e-14
1.0229e-14
1.52045e-13
1.61669e-13
1.03292e-14
1.03812e-14
1.03416e-14
1e-14
1.72043e-13
1.0466e-14
1.07718e-14
1e-14
1e-14
1.30308e-14
1.01e-14
1.00059e-14
1e-14
1.0007e-14
1.78869e-14
1e-14
3.56314e-13
1.93323e-14
3.6847e-13
1e-14
1e-14
1.00043e-14
1.06963e-14
1.4631e-14
1.00087e-14
1.00055e-14
1.02092e-14
1e-14
1.06137e-13
1.02757e-14
1.17062e-14
1e-14
1.04794e-13
1.02957e-14
1.38835e-13
2.84593e-13
3.08567e-13
1.00479e-14
1e-14
1e-14
1.01388e-14
1.08722e-14
1.00013e-14
1.00093e-14
1.01193e-14
1e-14
2.35107e-14
1.01051e-14
1.06184e-14
1.21473e-14
1e-14
1.23902e-13
1e-14
1.01166e-14
1.07916e-14
1.35099e-13
1.00052e-14
1.0087e-14
1e-14
2.71893e-13
3.15416e-13
1e-14
3.44994e-13
1e-14
2.75449e-13
3.42158e-13
1e-14
3.43474e-13
1e-14
2.94055e-13
3.45616e-13
1e-14
3.15415e-13
1.23898e-13
1e-14
1.02499e-14
1.00869e-14
1.35101e-13
1.00051e-14
1.07915e-14
1.2146e-14
1e-14
1.0119e-14
1e-14
1.06192e-14
1.01051e-14
2.34907e-14
2.84574e-13
3.08581e-13
1.0056e-14
1e-14
1.00592e-14
1.00096e-14
1.08803e-14
1.00014e-14
1.01403e-14
1e-14
1.38862e-13
1.02979e-14
1.02131e-14
9.79406e-14
1.17254e-14
1.02791e-14
1.06163e-13
1e-14
1e-14
1.01524e-14
1.00056e-14
1.46361e-14
1.00091e-14
1.07147e-14
1e-14
3.68496e-13
1.94302e-14
1.00056e-14
1.79566e-14
1.00069e-14
1e-14
1.01017e-14
1.30552e-14
1.03444e-14
1.57316e-13
1.07784e-14
1.04697e-14
1.72078e-13
1.47454e-13
1.0198e-14
1.39761e-13
1.03842e-14
1.617e-13
1.03328e-14
1.52177e-13
1.47551e-13
1.02007e-14
1.0235e-14
1.52061e-13
1.61674e-13
1.03274e-14
1.03793e-14
1.03438e-14
1e-14
1.72103e-13
1.04658e-14
1.07167e-14
1.00034e-14
1e-14
1.28669e-14
1.00993e-14
1.00051e-14
1e-14
1.00061e-14
1.7916e-14
1e-14
3.56462e-13
1.94225e-14
3.68429e-13
1e-14
1e-14
1.00044e-14
1.06736e-14
1.4562e-14
1.0008e-14
1.00055e-14
1.02123e-14
1e-14
1.0618e-13
1.02758e-14
1.1648e-14
1e-14
1.05475e-13
1.03094e-14
1.38754e-13
2.84949e-13
3.087e-13
1.00966e-14
1e-14
1e-14
1.01399e-14
1.0833e-14
1.00012e-14
1.00083e-14
1.01171e-14
1e-14
2.36923e-14
1.01064e-14
1.05142e-14
1.2518e-14
1e-14
1.23997e-13
1e-14
1.01142e-14
1.07956e-14
1.35192e-13
1.00051e-14
1.00882e-14
1e-14
2.73172e-13
3.15568e-13
1e-14
3.44883e-13
1e-14
2.76761e-13
3.42065e-13
1e-14
3.43379e-13
1e-14
2.94209e-13
3.45505e-13
1e-14
3.15564e-13
1.23998e-13
1e-14
1.02493e-14
1.00883e-14
1.35194e-13
1.00051e-14
1.07955e-14
1.25176e-14
1e-14
1.0117e-14
1e-14
1.0515e-14
1.01065e-14
2.36872e-14
2.84963e-13
3.0873e-13
1.00978e-14
1e-14
1.00574e-14
1.00084e-14
1.08337e-14
1.00014e-14
1.01404e-14
1e-14
1.38763e-13
1.03098e-14
1.02133e-14
9.80659e-14
1.16497e-14
1.02762e-14
1.06179e-13
1e-14
1e-14
1.01799e-14
1.00054e-14
1.45598e-14
1.0008e-14
1.06756e-14
1e-14
3.68472e-13
1.94325e-14
1.00056e-14
1.79237e-14
1.00061e-14
1.00042e-14
1.01007e-14
1.28693e-14
1.03446e-14
1.57499e-13
1.07175e-14
1.0466e-14
1.72091e-13
1.47561e-13
1.02016e-14
1.39843e-13
1.03792e-14
1.61672e-13
1.03277e-14
1.52151e-13
1.476e-13
1.02036e-14
1.02381e-14
1.52073e-13
1.61681e-13
1.03276e-14
1.03797e-14
1.03468e-14
1e-14
1.72112e-13
1.04668e-14
1.07078e-14
1.00137e-14
1e-14
1.2851e-14
1.00993e-14
1.00057e-14
1e-14
1.00064e-14
1.791e-14
1e-14
3.56288e-13
1.94427e-14
3.68429e-13
1e-14
1e-14
1.00044e-14
1.0669e-14
1.45472e-14
1.00078e-14
1.00054e-14
1.02145e-14
1e-14
1.06202e-13
1.02761e-14
1.16348e-14
1e-14
1.05457e-13
1.03132e-14
1.38716e-13
2.85018e-13
3.08757e-13
1.01041e-14
1e-14
1e-14
1.01401e-14
1.08226e-14
1.00012e-14
1.0008e-14
1.01171e-14
1e-14
2.38021e-14
1.01059e-14
1.04989e-14
1.26123e-14
1e-14
1.2402e-13
1e-14
1.01142e-14
1.07965e-14
1.35218e-13
1.00049e-14
1.00881e-14
1e-14
2.73202e-13
3.15595e-13
1e-14
3.44889e-13
1e-14
2.76788e-13
3.42062e-13
1e-14
3.43376e-13
1e-14
2.94176e-13
3.45513e-13
1e-14
3.156e-13
1.24019e-13
1e-14
1.02498e-14
1.00882e-14
1.3522e-13
1.00049e-14
1.07967e-14
1.26121e-14
1e-14
1.01172e-14
1e-14
1.04993e-14
1.0106e-14
2.38001e-14
2.85044e-13
3.08769e-13
1.01044e-14
1e-14
1.00577e-14
1.00081e-14
1.08231e-14
1.00014e-14
1.01404e-14
1e-14
1.38719e-13
1.0313e-14
1.02148e-14
9.80926e-14
1.16362e-14
1.02763e-14
1.06201e-13
1e-14
1e-14
1.01869e-14
1.00053e-14
1.45461e-14
1.00078e-14
1.06695e-14
1e-14
3.68441e-13
1.94445e-14
1.00066e-14
1.79125e-14
1.0006e-14
1.00139e-14
1.00995e-14
1.28515e-14
1.03469e-14
1.57553e-13
1.07085e-14
1.04667e-14
1.72109e-13
1.47599e-13
1.02036e-14
1.39884e-13
1.03793e-14
1.61676e-13
1.03277e-14
1.52151e-13
1.47584e-13
1.02038e-14
1.02386e-14
1.52073e-13
1.617e-13
1.0329e-14
1.03817e-14
1.03478e-14
1e-14
1.72139e-13
1.04704e-14
1.07154e-14
1.00166e-14
1e-14
1.28656e-14
1.00992e-14
1.00061e-14
1e-14
1.00064e-14
1.78983e-14
1e-14
3.56231e-13
1.94497e-14
3.68414e-13
1e-14
1e-14
1.00045e-14
1.06673e-14
1.45246e-14
1.00078e-14
1.00054e-14
1.02146e-14
1e-14
1.06235e-13
1.02763e-14
1.16309e-14
1e-14
1.0541e-13
1.03159e-14
1.38676e-13
2.85061e-13
3.08781e-13
1.01012e-14
1e-14
1e-14
1.01401e-14
1.08146e-14
1.00012e-14
1.00078e-14
1.01164e-14
1e-14
2.39057e-14
1.01046e-14
1.04906e-14
1.26222e-14
1e-14
1.24031e-13
1e-14
1.0114e-14
1.07963e-14
1.35219e-13
1.00048e-14
1.00878e-14
1e-14
2.73187e-13
3.15592e-13
1e-14
3.449e-13
1e-14
2.76775e-13
3.42059e-13
1e-14
3.43374e-13
1e-14
2.94175e-13
3.45526e-13
1e-14
3.15596e-13
1.2403e-13
1e-14
1.025e-14
1.00878e-14
1.35222e-13
1.00048e-14
1.07963e-14
1.26232e-14
1e-14
1.01163e-14
1e-14
1.04908e-14
1.01047e-14
2.39055e-14
2.85053e-13
3.08789e-13
1.01014e-14
1e-14
1.00575e-14
1.00077e-14
1.08152e-14
1.00012e-14
1.01401e-14
1e-14
1.38679e-13
1.0316e-14
1.02147e-14
9.81064e-14
1.16315e-14
1.02763e-14
1.06237e-13
1e-14
1e-14
1.01864e-14
1.00054e-14
1.45246e-14
1.00077e-14
1.06672e-14
1e-14
3.68409e-13
1.94468e-14
1.00058e-14
1.7898e-14
1.00065e-14
1.00164e-14
1.00997e-14
1.28665e-14
1.03477e-14
1.57545e-13
1.07159e-14
1.04702e-14
1.72128e-13
1.47589e-13
1.0204e-14
1.39873e-13
1.03813e-14
1.61693e-13
1.03292e-14
1.52162e-13
1.47542e-13
1.0204e-14
1.02396e-14
1.52092e-13
1.61751e-13
1.03323e-14
1.03868e-14
1.03502e-14
1e-14
1.72162e-13
1.04822e-14
1.07535e-14
1.0019e-14
1e-14
1.28947e-14
1.01012e-14
1.00055e-14
1e-14
1.00085e-14
1.79092e-14
1e-14
3.56147e-13
1.95187e-14
3.68385e-13
1e-14
1e-14
1.00044e-14
1.06689e-14
1.44736e-14
1.00076e-14
1.00056e-14
1.02144e-14
1e-14
1.06338e-13
1.02767e-14
1.16329e-14
1e-14
1.0531e-13
1.03218e-14
1.38659e-13
2.85083e-13
3.0881e-13
1.00961e-14
1e-14
1e-14
1.01404e-14
1.08102e-14
1.00012e-14
1.00077e-14
1.01152e-14
1e-14
2.40607e-14
1.01029e-14
1.04926e-14
1.26305e-14
1e-14
1.2405e-13
1e-14
1.01139e-14
1.07978e-14
1.3522e-13
1.00049e-14
1.00877e-14
1e-14
2.73181e-13
3.15587e-13
1e-14
3.44929e-13
1e-14
2.76761e-13
3.42072e-13
1e-14
3.43385e-13
1e-14
2.94169e-13
3.45552e-13
1e-14
3.15582e-13
1.24049e-13
1e-14
1.02498e-14
1.00877e-14
1.35225e-13
1.00048e-14
1.07978e-14
1.26305e-14
1e-14
1.01151e-14
1e-14
1.04926e-14
1.0103e-14
2.40599e-14
2.85084e-13
3.08822e-13
1.00963e-14
1e-14
1.00576e-14
1.00076e-14
1.08107e-14
1.00012e-14
1.01404e-14
1e-14
1.38665e-13
1.03219e-14
1.02145e-14
9.81231e-14
1.16332e-14
1.02767e-14
1.06339e-13
1e-14
1e-14
1.01853e-14
1.00055e-14
1.44733e-14
1.00076e-14
1.06694e-14
1e-14
3.6839e-13
1.95214e-14
1.0006e-14
1.79107e-14
1.00084e-14
1.00189e-14
1.01014e-14
1.28948e-14
1.03502e-14
1.57472e-13
1.07538e-14
1.0482e-14
1.72156e-13
1.4754e-13
1.02044e-14
1.39821e-13
1.03865e-14
1.61741e-13
1.03327e-14
1.52184e-13
1.47373e-13
1.02029e-14
1.02404e-14
1.52227e-13
1.61983e-13
1.03438e-14
1.04053e-14
1.03569e-14
1e-14
1.72355e-13
1.05179e-14
1.08857e-14
1.0038e-14
1e-14
1.28719e-14
1.0118e-14
1.00063e-14
1e-14
1.0017e-14
1.8191e-14
1e-14
3.5589e-13
1.98097e-14
3.68612e-13
1e-14
1e-14
1.00043e-14
1.06878e-14
1.46037e-14
1.00073e-14
1.00061e-14
1.02128e-14
1e-14
1.06694e-13
1.02808e-14
1.1652e-14
1e-14
1.0503e-13
1.03326e-14
1.38714e-13
2.85094e-13
3.09123e-13
1.00907e-14
1e-14
1e-14
1.01427e-14
1.08336e-14
1.00011e-14
1.00077e-14
1.01123e-14
1e-14
2.46981e-14
1.01053e-14
1.06414e-14
1.26294e-14
1e-14
1.2408e-13
1e-14
1.01137e-14
1.08243e-14
1.35542e-13
1.00047e-14
1.00898e-14
1e-14
2.73108e-13
3.15695e-13
1e-14
3.45051e-13
1e-14
2.76693e-13
3.42202e-13
1e-14
3.43476e-13
1e-14
2.94103e-13
3.4565e-13
1e-14
3.15697e-13
1.24076e-13
1e-14
1.02489e-14
1.00899e-14
1.35548e-13
1.00046e-14
1.08243e-14
1.26299e-14
1e-14
1.01122e-14
1e-14
1.06415e-14
1.01054e-14
2.46961e-14
2.85104e-13
3.09142e-13
1.00909e-14
1e-14
1.00581e-14
1.00077e-14
1.08338e-14
1.00012e-14
1.01427e-14
1e-14
1.38717e-13
1.03324e-14
1.02129e-14
9.81485e-14
1.16523e-14
1.02808e-14
1.06691e-13
1e-14
1e-14
1.01865e-14
1.00061e-14
1.46024e-14
1.00073e-14
1.06881e-14
1e-14
3.68615e-13
1.98099e-14
1.00059e-14
1.81914e-14
1.00167e-14
1.00377e-14
1.01178e-14
1.28727e-14
1.03569e-14
1.5721e-13
1.08859e-14
1.05174e-14
1.72347e-13
1.47373e-13
1.02033e-14
1.39634e-13
1.04047e-14
1.61972e-13
1.03442e-14
1.52311e-13
1.46174e-13
1.01462e-14
1.01832e-14
1.83533e-13
1.92706e-13
1.04901e-14
1.05807e-14
1.03519e-14
1e-14
2.02729e-13
1.05938e-14
1.11159e-14
1.00531e-14
1e-14
1.44068e-14
1.05854e-14
1.00046e-14
1e-14
1.01683e-14
1.65424e-14
1e-14
3.55939e-13
3.22404e-14
3.56398e-13
1e-14
1e-14
1.00034e-14
1.14504e-14
2.55792e-14
1.00198e-14
1.0006e-14
1.01885e-14
1e-14
1.2123e-13
1.0209e-14
1.1586e-14
1e-14
1.03483e-13
1.03501e-14
1.35862e-13
2.84328e-13
3.05593e-13
1.01154e-14
1e-14
1e-14
1.01511e-14
1.10134e-14
1.00012e-14
1.00098e-14
1.01122e-14
1e-14
2.80375e-14
1.00591e-14
1.00062e-14
1.19965e-14
1e-14
1.23944e-13
1e-14
1.01147e-14
1.09375e-14
1.50795e-13
1e-14
1.00269e-14
1e-14
2.7289e-13
3.13352e-13
1e-14
3.2304e-13
1e-14
2.76562e-13
3.24477e-13
1e-14
3.24804e-13
1e-14
2.9365e-13
3.23265e-13
1e-14
3.1334e-13
1.23945e-13
1e-14
1.03307e-14
1.00269e-14
1.50799e-13
1e-14
1.09373e-14
1.19975e-14
1e-14
1.01123e-14
1e-14
1.00063e-14
1.00591e-14
2.80379e-14
2.84321e-13
3.05609e-13
1.01156e-14
1e-14
1.00631e-14
1.00098e-14
1.10136e-14
1.00012e-14
1.01512e-14
1e-14
1.35865e-13
1.03499e-14
1.01886e-14
9.80137e-14
1.15867e-14
1.0209e-14
1.21223e-13
1e-14
1e-14
1.01629e-14
1.00061e-14
2.55746e-14
1.00197e-14
1.1451e-14
1e-14
3.56411e-13
3.22405e-14
1.00045e-14
1.65455e-14
1.01685e-14
1.00531e-14
1.05858e-14
1.44074e-14
1.03514e-14
1.55964e-13
1.11149e-14
1.05926e-14
2.02715e-13
1.46177e-13
1.01464e-14
1.38374e-13
1.05803e-14
1.92698e-13
1.04905e-14
1.83628e-13
1.27438e-14
1e-14
1e-14
1.01408e-14
1.01204e-14
1e-14
1.00004e-14
1e-14
1.006e-14
1.00736e-14
1e-14
1.00047e-14
1.02254e-14
1.01128e-14
1e-14
1.00207e-14
1.00063e-14
1e-14
1.3332e-14
1.00092e-14
1.01171e-14
1e-14
1e-14
1e-14
1.04398e-14
1.00003e-14
1e-14
1.00035e-14
1.00077e-14
1e-14
1e-14
1e-14
1.00713e-14