/*--------------------------------*- C++ -*----------------------------------*\
| =========                 |                                                 |
| \\      /  F ield         | OpenFOAM: The Open Source CFD Toolbox           |
|  \\    /   O peration     | Version:  2.1.1                                 |
|   \\  /    A nd           | Web:      www.OpenFOAM.org                      |
|    \\/     M anipulation  |                                                 |
\*---------------------------------------------------------------------------*/
FoamFile
{
    version     2.0;
    format      ascii;
    class       volScalarField;
    location    "0.0035";
    object      p;
}
// * * * * * * * * * * * * * * * * * * * * * * * * * * * * * * * * * * * * * //

dimensions      [0 2 -2 0 0 0 0];

internalField   nonuniform List<scalar> 
10266
(
0.0544687
0.0548729
0.0562472
0.0519541
0.0519837
0.0518676
0.0520595
0.0604886
0.0548601
0.0517492
0.0517435
0.0517881
0.0517413
0.0518513
0.0519849
0.0624545
0.0550092
0.0518927
0.0518997
0.0518658
0.0518928
0.0518243
0.0518145
0.0518901
0.0519913
0.0602914
0.0571153
0.0518028
0.0518052
0.0518135
0.0518159
0.0518284
0.0518533
0.0517979
0.0518088
0.0518529
0.052081
0.072784
0.0518632
0.0518644
0.0518548
0.051859
0.0518448
0.0518465
0.0518564
0.0518479
0.051862
0.051696
0.0520786
0.0704914
0.0518287
0.0518302
0.0518312
0.0518346
0.0518345
0.0518411
0.0518337
0.051839
0.0518493
0.0518621
0.0518531
0.0645525
0.051855
0.0518554
0.0518518
0.051853
0.0518473
0.0518491
0.0518457
0.0518476
0.0518392
0.0518482
0.0518091
0.0519921
0.0618871
0.0518424
0.0518433
0.0518421
0.0518443
0.0518409
0.0518451
0.0518382
0.0518458
0.051834
0.0518569
0.0517985
0.0518909
0.0630197
0.0549722
0.0518558
0.0518561
0.0518535
0.0518543
0.0518495
0.0518515
0.0518454
0.0518495
0.0518417
0.0518472
0.0518541
0.0518155
0.0519861
0.0600679
0.0518515
0.0518521
0.05185
0.0518514
0.0518465
0.0518497
0.0518414
0.0518479
0.0518353
0.0518457
0.0518295
0.0518255
0.0518526
0.0624126
0.0518589
0.0518592
0.0518565
0.0518574
0.0518517
0.0518547
0.051845
0.0518538
0.0518357
0.0518602
0.0518171
0.0518942
0.0517427
0.0520612
0.0679425
0.0518579
0.0518583
0.0518556
0.0518567
0.0518506
0.0518543
0.0518431
0.0518529
0.0518326
0.0518563
0.051815
0.0518675
0.0517897
0.0518693
0.0637749
0.0518614
0.0518618
0.0518587
0.0518598
0.0518531
0.0518571
0.0518446
0.0518568
0.0518318
0.0518661
0.051807
0.0519016
0.0517452
0.0519855
0.0635515
0.0518614
0.0518617
0.0518586
0.0518598
0.0518529
0.0518572
0.0518441
0.0518567
0.0518308
0.0518653
0.0518049
0.0518949
0.0517512
0.0519563
0.0628942
0.0534027
0.0538069
0.0551811
0.0508895
0.0509196
0.0508026
0.0509939
0.0594232
0.0537944
0.050683
0.0506829
0.0507221
0.050675
0.0507851
0.0509188
0.0613888
0.0539432
0.0508271
0.0508302
0.0508002
0.0508272
0.0507586
0.0507488
0.0508243
0.0509254
0.0592256
0.0560492
0.0507347
0.0507349
0.0507459
0.0507489
0.0507624
0.0507868
0.0507316
0.0507426
0.0507864
0.0510125
0.0717027
0.0507974
0.0507983
0.0507889
0.0507932
0.0507786
0.0507805
0.0507906
0.0507819
0.0507959
0.0506301
0.0510146
0.0694257
0.0507613
0.0507628
0.0507641
0.0507676
0.0507679
0.0507744
0.0507672
0.0507728
0.0507831
0.0507962
0.0507872
0.0634869
0.0507876
0.050788
0.0507846
0.0507858
0.0507805
0.0507824
0.0507794
0.0507812
0.050773
0.0507823
0.050743
0.0509262
0.0608214
0.0507741
0.0507751
0.0507741
0.0507766
0.0507735
0.050778
0.0507712
0.0507796
0.0507675
0.0507912
0.0507322
0.0508251
0.0619539
0.0539062
0.0507872
0.0507876
0.0507852
0.0507862
0.0507818
0.0507841
0.0507783
0.0507828
0.050775
0.0507813
0.0507878
0.0507499
0.0509199
0.0590023
0.0507822
0.0507829
0.050781
0.0507827
0.0507783
0.050782
0.050774
0.050781
0.0507688
0.0507796
0.0507635
0.0507599
0.0507865
0.0613473
0.0507892
0.0507896
0.0507872
0.0507884
0.0507831
0.0507867
0.0507774
0.0507867
0.0507688
0.0507945
0.0507502
0.0508287
0.0506766
0.0509957
0.0668772
0.0507877
0.0507883
0.0507858
0.0507874
0.0507817
0.050786
0.0507753
0.0507857
0.0507657
0.0507904
0.0507476
0.050802
0.0507238
0.0508044
0.0627096
0.050791
0.0507915
0.0507887
0.0507902
0.050784
0.0507887
0.0507766
0.0507895
0.0507646
0.0508001
0.0507366
0.0508321
0.0506848
0.0509216
0.0624861
0.0507908
0.0507913
0.0507885
0.0507902
0.0507837
0.0507887
0.050776
0.0507895
0.0507635
0.0507996
0.0507369
0.0508293
0.0506851
0.0508917
0.0618285
0.0523368
0.0527408
0.0541149
0.0498229
0.0498516
0.0497363
0.0499279
0.0583576
0.0527285
0.0496151
0.0496076
0.0496539
0.0496084
0.0497186
0.0498523
0.0603228
0.0528769
0.0497623
0.0497692
0.0497353
0.0497614
0.0496927
0.0496828
0.0497582
0.0498593
0.0581596
0.0549831
0.0496681
0.0496732
0.0496797
0.049682
0.0496961
0.0497203
0.049665
0.0496762
0.0497204
0.0499486
0.0706506
0.0497319
0.0497332
0.0497232
0.0497273
0.0497123
0.0497143
0.0497247
0.0497157
0.0497299
0.0495642
0.0499464
0.0683599
0.0496937
0.0496953
0.0496971
0.0497004
0.0497014
0.0497076
0.0497006
0.0497066
0.0497169
0.04973
0.0497206
0.062421
0.0497204
0.0497209
0.0497174
0.0497187
0.0497135
0.0497156
0.0497131
0.0497147
0.0497068
0.0497162
0.0496767
0.0498602
0.0597554
0.049706
0.0497071
0.0497063
0.0497089
0.0497062
0.0497109
0.0497042
0.0497132
0.049701
0.0497254
0.0496657
0.0497592
0.060888
0.0528399
0.0497187
0.0497192
0.049717
0.0497182
0.0497141
0.0497166
0.0497113
0.049716
0.0497081
0.0497154
0.0497213
0.049684
0.0498536
0.0579364
0.0497132
0.0497141
0.0497124
0.0497144
0.0497103
0.0497143
0.0497067
0.049714
0.0497023
0.0497134
0.0496973
0.0496941
0.0497201
0.0602816
0.0497198
0.0497204
0.0497182
0.0497196
0.0497148
0.0497187
0.0497098
0.0497197
0.0497016
0.0497287
0.0496834
0.0497631
0.0496101
0.0499298
0.0658116
0.049718
0.0497187
0.0497164
0.0497184
0.0497131
0.0497178
0.0497076
0.0497186
0.0496987
0.0497249
0.0496815
0.0497373
0.0496558
0.0497383
0.0616437
0.0497211
0.0497217
0.0497191
0.049721
0.0497151
0.0497203
0.0497087
0.0497225
0.0496972
0.0497352
0.0496751
0.0497712
0.0496095
0.0498537
0.06142
0.0497208
0.0497214
0.0497188
0.0497208
0.0497148
0.0497203
0.0497081
0.0497225
0.049696
0.0497342
0.0496705
0.0497647
0.0496172
0.0498251
0.0607624
0.0512706
0.0516744
0.0530485
0.048758
0.0487877
0.0486707
0.0488618
0.0572915
0.0516621
0.048549
0.0485513
0.0485883
0.0485418
0.048652
0.0487858
0.0592564
0.0518104
0.0486959
0.0486996
0.0486691
0.0486953
0.0486265
0.0486165
0.0486919
0.048793
0.0570934
0.0539169
0.0485996
0.048598
0.0486116
0.0486149
0.0486296
0.0486536
0.0485984
0.0486098
0.0486537
0.04888
0.0695715
0.0486654
0.0486655
0.0486567
0.0486609
0.0486459
0.0486479
0.0486586
0.0486495
0.0486636
0.048498
0.048882
0.0672942
0.048626
0.0486277
0.0486298
0.0486331
0.0486348
0.048641
0.0486341
0.0486402
0.0486506
0.0486639
0.0486545
0.0613552
0.0486533
0.0486537
0.0486503
0.0486516
0.0486465
0.0486487
0.0486469
0.0486483
0.0486403
0.0486499
0.0486104
0.0487941
0.0586894
0.0486381
0.0486392
0.0486387
0.0486413
0.0486389
0.0486437
0.0486369
0.0486465
0.0486343
0.0486593
0.0485992
0.0486931
0.0598218
0.0517737
0.0486504
0.0486509
0.048649
0.0486501
0.0486465
0.0486491
0.0486441
0.048649
0.0486417
0.0486488
0.0486548
0.0486179
0.0487872
0.0568703
0.0486445
0.0486455
0.0486439
0.0486461
0.0486424
0.0486466
0.0486395
0.0486471
0.0486357
0.0486472
0.0486309
0.0486281
0.0486536
0.0592157
0.0486507
0.0486513
0.0486493
0.048651
0.0486465
0.0486507
0.0486422
0.0486528
0.0486344
0.0486625
0.0486165
0.048697
0.0485435
0.0488639
0.0647457
0.0486486
0.0486495
0.0486474
0.0486495
0.0486446
0.0486497
0.04864
0.0486517
0.0486314
0.0486586
0.0486134
0.0486712
0.0485904
0.0486729
0.0605776
0.0486515
0.0486521
0.0486498
0.0486519
0.0486465
0.048652
0.0486409
0.0486555
0.0486296
0.0486674
0.0485997
0.0487018
0.0485537
0.0487901
0.0603539
0.0486511
0.0486518
0.0486495
0.0486517
0.0486461
0.048652
0.0486402
0.0486555
0.0486284
0.048668
0.0486021
0.0486985
0.0485515
0.0487604
0.0596962
0.0502038
0.0506075
0.0519819
0.0476897
0.0477177
0.0476033
0.0477951
0.0562252
0.0505956
0.0474802
0.0474709
0.047519
0.0474749
0.0475854
0.0477191
0.0581901
0.0507441
0.0476307
0.0476361
0.0476035
0.0476291
0.0475602
0.0475502
0.0476257
0.0477268
0.0560273
0.0528508
0.047534
0.0475429
0.0475464
0.0475482
0.0475631
0.0475869
0.0475317
0.0475434
0.0475875
0.0478154
0.0685167
0.0476
0.0476022
0.0475913
0.0475947
0.0475795
0.0475813
0.0475922
0.0475833
0.0475973
0.0474319
0.047814
0.0662285
0.0475586
0.0475606
0.0475628
0.0475658
0.047568
0.0475742
0.0475672
0.0475736
0.0475842
0.0475975
0.0475879
0.0602892
0.0475862
0.0475865
0.0475834
0.0475845
0.0475796
0.0475817
0.0475798
0.0475818
0.0475737
0.0475836
0.0475439
0.0477279
0.0576234
0.0475703
0.0475715
0.0475711
0.0475738
0.0475717
0.0475766
0.0475704
0.04758
0.0475676
0.0475931
0.0475326
0.0476268
0.0587555
0.0507073
0.0475821
0.0475826
0.0475809
0.0475821
0.0475788
0.0475816
0.0475771
0.0475823
0.047575
0.0475823
0.0475881
0.0475516
0.0477206
0.055804
0.0475761
0.0475771
0.0475757
0.047578
0.0475746
0.047579
0.0475724
0.0475804
0.047569
0.0475808
0.0475644
0.0475618
0.047587
0.0581495
0.0475817
0.0475824
0.0475806
0.0475824
0.0475784
0.0475827
0.0475748
0.0475858
0.0475672
0.0475963
0.0475498
0.047631
0.0474766
0.0477972
0.0636792
0.0475795
0.0475804
0.0475785
0.0475809
0.0475764
0.0475817
0.0475725
0.0475849
0.0475645
0.0475933
0.0475483
0.0476058
0.0475211
0.0476055
0.0595109
0.047582
0.0475827
0.0475807
0.0475829
0.0475781
0.0475838
0.0475731
0.0475885
0.0475626
0.0476043
0.0475446
0.047638
0.0474737
0.0477202
0.059287
0.0475816
0.0475824
0.0475803
0.0475827
0.0475776
0.0475837
0.0475724
0.0475885
0.0475612
0.0476028
0.0475366
0.0476336
0.0474827
0.0476923
0.0586292
0.0491368
0.0495407
0.0509152
0.0466237
0.0466518
0.0465372
0.0467289
0.0551589
0.0495291
0.0464135
0.0464055
0.0464523
0.0464083
0.0465188
0.0466526
0.0571238
0.0496778
0.0465645
0.0465693
0.0465373
0.0465628
0.0464938
0.0464839
0.0465593
0.0466605
0.0549612
0.0517847
0.0464664
0.0464747
0.0464791
0.0464811
0.0464965
0.0465202
0.0464652
0.0464768
0.0465208
0.0467478
0.0674429
0.0465332
0.0465353
0.0465247
0.0465281
0.0465128
0.0465148
0.0465259
0.0465166
0.0465308
0.0463655
0.0467485
0.0651624
0.0464908
0.0464929
0.0464953
0.0464985
0.046501
0.0465074
0.0465003
0.0465068
0.0465177
0.0465311
0.0465215
0.0592231
0.0465189
0.0465194
0.0465162
0.0465175
0.0465125
0.0465149
0.0465129
0.0465153
0.0465069
0.0465171
0.0464773
0.0466615
0.0565571
0.0465023
0.0465036
0.0465034
0.0465062
0.0465045
0.0465097
0.0465034
0.0465133
0.0465008
0.0465267
0.046466
0.0465604
0.0576891
0.0496408
0.0465139
0.0465146
0.0465129
0.0465143
0.0465112
0.0465143
0.0465098
0.0465155
0.0465081
0.0465158
0.0465213
0.0464852
0.046654
0.0547376
0.0465076
0.0465088
0.0465074
0.0465101
0.0465068
0.0465117
0.0465051
0.0465136
0.0465021
0.0465143
0.0464978
0.0464954
0.0465204
0.0570831
0.0465128
0.0465136
0.046512
0.046514
0.0465103
0.046515
0.046507
0.0465188
0.0464998
0.0465299
0.0464828
0.0465646
0.0464098
0.0467308
0.0626127
0.0465104
0.0465115
0.0465097
0.0465124
0.0465082
0.0465141
0.0465047
0.046518
0.0464971
0.046527
0.046481
0.0465396
0.0464542
0.0465393
0.0584442
0.0465125
0.0465135
0.0465117
0.0465142
0.0465097
0.0465159
0.046505
0.0465214
0.046495
0.0465378
0.0464767
0.0465712
0.046408
0.0466541
0.0582203
0.0465122
0.0465132
0.0465112
0.046514
0.0465091
0.0465159
0.0465044
0.0465216
0.0464936
0.0465364
0.0464691
0.0465674
0.0464159
0.0466262
0.0575625
0.04807
0.0484744
0.049849
0.0455594
0.0455894
0.0454724
0.045663
0.0540927
0.0484628
0.0453484
0.0453513
0.045388
0.0453419
0.0454523
0.045586
0.0560573
0.0486112
0.0454969
0.0455011
0.0454705
0.0454963
0.0454273
0.0454175
0.0454928
0.045594
0.0538947
0.050718
0.0453976
0.0453957
0.0454098
0.0454138
0.0454298
0.0454534
0.0453984
0.0454102
0.0454543
0.045682
0.0663811
0.0454656
0.0454652
0.045457
0.0454613
0.0454461
0.0454482
0.0454592
0.0454502
0.0454642
0.045299
0.0456814
0.0640961
0.0454226
0.0454245
0.0454273
0.0454311
0.0454339
0.0454405
0.0454333
0.0454401
0.0454513
0.0454645
0.0454548
0.0581566
0.0454516
0.0454523
0.0454489
0.0454506
0.0454454
0.0454483
0.0454459
0.0454489
0.0454401
0.0454507
0.0454106
0.045595
0.0554906
0.0454341
0.0454357
0.0454354
0.0454388
0.0454369
0.0454426
0.0454364
0.0454465
0.0454339
0.0454602
0.0453992
0.0454939
0.0566225
0.0485743
0.0454459
0.0454468
0.045445
0.0454469
0.0454436
0.0454474
0.0454425
0.0454489
0.045441
0.0454492
0.0454544
0.0454188
0.0455873
0.053671
0.0454391
0.0454405
0.045439
0.0454424
0.0454388
0.0454445
0.0454376
0.0454468
0.045435
0.0454477
0.0454311
0.0454289
0.0454537
0.0560167
0.0454439
0.0454451
0.0454433
0.045446
0.0454421
0.0454477
0.0454393
0.045452
0.0454323
0.0454632
0.0454155
0.0454981
0.0453432
0.0456647
0.0615464
0.0454414
0.0454428
0.0454409
0.0454444
0.0454397
0.0454467
0.0454368
0.0454512
0.0454294
0.0454599
0.0454122
0.0454729
0.0453893
0.045474
0.0573779
0.0454432
0.0454446
0.0454425
0.0454459
0.045441
0.0454482
0.0454369
0.0454545
0.0454269
0.0454686
0.0453994
0.0455026
0.0453525
0.0455909
0.0571542
0.0454429
0.0454443
0.0454422
0.0454458
0.0454405
0.0454484
0.0454363
0.0454546
0.0454256
0.045469
0.0454005
0.0455001
0.0453506
0.0455618
0.0564965
0.0470036
0.0474081
0.0487826
0.0444931
0.0445229
0.044406
0.0445966
0.0530264
0.0473964
0.0442816
0.0442839
0.0443212
0.0442752
0.0443856
0.0445194
0.0549908
0.0475446
0.0444304
0.0444351
0.0444042
0.0444299
0.0443608
0.044351
0.0444263
0.0445275
0.0528281
0.0496514
0.0443305
0.0443289
0.0443428
0.0443467
0.0443632
0.0443866
0.0443316
0.0443435
0.0443876
0.0446148
0.0653113
0.0443988
0.0443985
0.0443903
0.0443947
0.0443793
0.0443817
0.0443927
0.0443837
0.0443975
0.0442325
0.0446152
0.0630295
0.0443549
0.0443569
0.0443597
0.0443639
0.0443666
0.0443737
0.0443662
0.0443734
0.0443848
0.0443979
0.0443882
0.0570901
0.0443844
0.0443853
0.0443817
0.0443838
0.0443784
0.0443818
0.0443789
0.0443825
0.0443733
0.0443841
0.0443439
0.0445285
0.0544241
0.044366
0.0443678
0.0443674
0.0443712
0.0443691
0.0443756
0.0443691
0.0443797
0.0443668
0.0443937
0.0443324
0.0444274
0.0555559
0.0475076
0.0443781
0.0443793
0.0443773
0.0443798
0.0443761
0.0443806
0.0443752
0.0443824
0.044374
0.0443827
0.0443876
0.0443523
0.0445206
0.0526045
0.0443705
0.0443722
0.0443705
0.0443745
0.0443705
0.0443772
0.0443698
0.0443799
0.0443678
0.044381
0.0443642
0.0443626
0.044387
0.0549503
0.0443754
0.0443769
0.0443749
0.0443783
0.0443739
0.0443806
0.0443715
0.0443853
0.044365
0.0443967
0.0443485
0.0444317
0.0442765
0.0445981
0.0604799
0.0443725
0.0443742
0.044372
0.0443762
0.0443711
0.0443793
0.0443687
0.0443843
0.0443619
0.0443939
0.0443464
0.044407
0.0443208
0.0444069
0.0563114
0.0443742
0.0443759
0.0443736
0.0443778
0.0443723
0.0443809
0.0443688
0.0443876
0.0443594
0.0444041
0.0443409
0.0444384
0.0442758
0.044522
0.0560877
0.0443739
0.0443756
0.0443732
0.0443777
0.0443718
0.044381
0.0443681
0.0443877
0.0443579
0.0444028
0.044334
0.0444347
0.0442828
0.0444942
0.0554299
0.0459372
0.0463413
0.0477158
0.0434249
0.0434533
0.0433384
0.0435296
0.0519599
0.0463298
0.0432134
0.0432069
0.0432523
0.0432083
0.0433189
0.0434526
0.0539242
0.0464782
0.0433651
0.0433697
0.0433381
0.0433634
0.0432942
0.0432845
0.0433597
0.0434611
0.0517617
0.048585
0.0432645
0.0432718
0.0432775
0.0432799
0.0432966
0.0433198
0.0432649
0.0432769
0.043321
0.0435488
0.0642477
0.0433329
0.0433347
0.0433246
0.0433283
0.0433126
0.0433152
0.0433261
0.0433171
0.0433309
0.043166
0.0435481
0.0619631
0.0432877
0.0432901
0.0432926
0.0432968
0.0432993
0.0433069
0.043299
0.0433067
0.0433181
0.0433313
0.0433215
0.0560237
0.0433174
0.0433184
0.0433147
0.0433172
0.0433114
0.0433152
0.0433118
0.0433161
0.0433064
0.0433176
0.0432772
0.0434621
0.0533576
0.0432978
0.0432998
0.0432993
0.0433036
0.0433013
0.0433084
0.0433017
0.0433128
0.0432995
0.0433271
0.0432656
0.0433609
0.0544893
0.0464412
0.0433105
0.0433119
0.0433098
0.0433127
0.0433087
0.0433138
0.0433078
0.0433159
0.0433069
0.0433163
0.0433207
0.0432859
0.0434539
0.0515381
0.0433018
0.0433037
0.0433019
0.0433064
0.0433021
0.0433098
0.0433018
0.043313
0.0433003
0.0433143
0.0432976
0.0432959
0.0433204
0.0538839
0.0433073
0.0433089
0.0433068
0.0433107
0.0433059
0.0433135
0.0433038
0.0433187
0.0432977
0.0433301
0.0432814
0.0433653
0.0432098
0.0435317
0.0594134
0.0433036
0.0433056
0.0433032
0.0433081
0.0433025
0.0433118
0.0433005
0.0433173
0.0432943
0.0433273
0.0432792
0.0433405
0.0432542
0.0433407
0.0552449
0.0433055
0.0433074
0.043305
0.0433098
0.0433039
0.0433136
0.0433007
0.0433207
0.0432918
0.0433374
0.0432735
0.0433716
0.0432096
0.0434558
0.0550211
0.043305
0.043307
0.0433044
0.0433095
0.0433031
0.0433136
0.0432998
0.0433208
0.0432903
0.0433363
0.043267
0.0433683
0.0432159
0.0434279
0.0543633
0.0448704
0.0452745
0.0466491
0.0423584
0.0423866
0.0422717
0.042463
0.0508932
0.0452631
0.0421467
0.0421402
0.0421855
0.0421415
0.0422522
0.0423859
0.0528576
0.0454118
0.0422985
0.042303
0.0422715
0.0422968
0.0422275
0.042218
0.0422931
0.0423946
0.0506952
0.0475187
0.0421974
0.0422048
0.0422106
0.042213
0.0422298
0.042253
0.042198
0.0422102
0.0422543
0.0424816
0.0631785
0.042266
0.0422682
0.0422579
0.0422617
0.0422459
0.0422486
0.0422594
0.0422506
0.0422643
0.0420995
0.0424818
0.0608968
0.0422201
0.0422228
0.0422252
0.0422297
0.0422319
0.04224
0.0422318
0.0422399
0.0422514
0.0422648
0.0422549
0.0549573
0.0422503
0.0422515
0.0422478
0.0422504
0.0422445
0.0422486
0.0422449
0.0422496
0.0422396
0.0422511
0.0422104
0.0423955
0.052291
0.0422297
0.0422318
0.0422312
0.042236
0.0422333
0.0422411
0.0422341
0.0422458
0.0422323
0.0422605
0.0421987
0.0422943
0.0534226
0.0453746
0.042243
0.0422445
0.0422422
0.0422455
0.0422412
0.0422469
0.0422405
0.0422492
0.04224
0.0422497
0.0422538
0.0422193
0.0423872
0.0504716
0.0422333
0.0422353
0.0422335
0.0422384
0.0422339
0.0422424
0.0422338
0.042246
0.0422328
0.0422476
0.0422308
0.0422294
0.0422537
0.0528174
0.0422392
0.042241
0.0422387
0.0422431
0.0422379
0.0422464
0.0422359
0.042252
0.0422302
0.0422633
0.0422142
0.0422987
0.0421431
0.0424656
0.0583471
0.0422349
0.042237
0.0422345
0.04224
0.0422341
0.0422443
0.0422322
0.0422504
0.0422265
0.04226
0.0422109
0.0422738
0.0421889
0.0422751
0.0541787
0.042237
0.042239
0.0422365
0.0422418
0.0422355
0.0422462
0.0422326
0.042254
0.0422238
0.0422687
0.0421987
0.0423039
0.0421511
0.0423917
0.0539549
0.0422363
0.0422384
0.0422356
0.0422414
0.0422346
0.042246
0.0422316
0.0422539
0.0422224
0.0422691
0.0421991
0.0423009
0.04215
0.0423627
0.053297
0.043804
0.0442083
0.0455829
0.0412932
0.0413228
0.0412061
0.0413967
0.0498266
0.0441963
0.041081
0.0410832
0.0411204
0.0410749
0.0411856
0.0413192
0.0517909
0.0443452
0.0412307
0.0412343
0.0412045
0.0412301
0.0411608
0.0411513
0.0412264
0.0413279
0.0496286
0.0464522
0.0411295
0.0411292
0.0411423
0.0411458
0.041163
0.0411862
0.0411311
0.0411435
0.0411876
0.0414154
0.0621144
0.0411985
0.0411991
0.0411904
0.0411947
0.041179
0.0411818
0.0411928
0.0411839
0.0411976
0.0410329
0.0414148
0.0598304
0.0411524
0.0411549
0.0411574
0.0411623
0.0411644
0.041173
0.0411645
0.0411731
0.0411845
0.0411981
0.0411881
0.0538907
0.0411833
0.0411845
0.0411807
0.0411835
0.0411774
0.0411818
0.0411779
0.041183
0.0411727
0.0411844
0.0411437
0.0413289
0.0512243
0.0411617
0.0411638
0.0411631
0.0411682
0.0411654
0.0411736
0.0411664
0.041179
0.0411649
0.0411939
0.0411318
0.0412277
0.0523558
0.0443078
0.0411755
0.0411771
0.0411747
0.0411782
0.0411737
0.0411799
0.0411734
0.0411824
0.041173
0.0411829
0.041187
0.0411527
0.0413204
0.0494049
0.0411649
0.041167
0.0411651
0.0411705
0.0411659
0.0411749
0.0411659
0.041179
0.0411652
0.0411809
0.041164
0.0411628
0.0411871
0.0517509
0.0411711
0.041173
0.0411706
0.0411755
0.04117
0.0411792
0.0411681
0.0411852
0.0411629
0.0411967
0.0411472
0.0412322
0.0410766
0.0413987
0.0572805
0.0411663
0.0411686
0.041166
0.041172
0.0411657
0.0411768
0.0411641
0.0411834
0.0411588
0.0411936
0.0411447
0.0412075
0.0411212
0.0412081
0.0531121
0.0411685
0.0411707
0.0411681
0.041174
0.0411673
0.0411789
0.0411645
0.0411872
0.0411563
0.0412032
0.041138
0.0412394
0.0410765
0.0413234
0.0528883
0.0411676
0.0411699
0.041167
0.0411733
0.0411662
0.0411786
0.0411633
0.041187
0.0411548
0.0412026
0.0411326
0.041235
0.0410826
0.0412953
0.0522303
0.0427378
0.043142
0.0445166
0.0402256
0.0402541
0.040139
0.0403299
0.04876
0.0431296
0.0400136
0.040007
0.0400527
0.0400084
0.0401189
0.0402525
0.0507242
0.0432784
0.0401647
0.0401706
0.0401381
0.0401634
0.040094
0.0400846
0.0401597
0.0402612
0.0485619
0.0453854
0.0400633
0.0400697
0.0400762
0.0400788
0.0400961
0.0401194
0.0400642
0.0400767
0.0401208
0.0403485
0.0610463
0.0401317
0.0401335
0.0401236
0.0401278
0.0401121
0.0401148
0.0401261
0.0401171
0.0401309
0.0399662
0.0403482
0.0587637
0.0400849
0.0400874
0.0400898
0.040095
0.0400969
0.0401061
0.0400972
0.0401062
0.0401176
0.0401315
0.0401213
0.0528239
0.0401162
0.0401174
0.0401135
0.0401165
0.0401103
0.040115
0.040111
0.0401162
0.0401058
0.0401176
0.0400769
0.0402622
0.0501576
0.0400935
0.0400957
0.040095
0.0401005
0.0400979
0.0401076
0.0400985
0.040112
0.0400976
0.0401273
0.0400648
0.040161
0.0512889
0.0432409
0.040108
0.0401096
0.0401071
0.040111
0.0401063
0.0401128
0.040105
0.0401153
0.040106
0.0401159
0.0401202
0.0400861
0.0402537
0.0483381
0.0400966
0.0400988
0.0400969
0.0401027
0.0400979
0.0401074
0.0400978
0.0401119
0.0400977
0.0401142
0.0400971
0.040096
0.0401203
0.0506841
0.0401031
0.0401051
0.0401027
0.0401079
0.0401021
0.0401119
0.0401004
0.0401182
0.0400955
0.0401298
0.04008
0.0401655
0.0400096
0.0403325
0.0562139
0.0400978
0.0401002
0.0400976
0.040104
0.0400975
0.0401093
0.0400961
0.0401163
0.0400911
0.0401264
0.0400767
0.0401406
0.0400554
0.0401421
0.0520456
0.0401002
0.0401025
0.0400997
0.0401061
0.0400991
0.0401115
0.0400965
0.0401202
0.0400887
0.040135
0.0400645
0.0401708
0.0400174
0.0402586
0.0518218
0.040099
0.0401015
0.0400985
0.0401053
0.0400979
0.040111
0.0400952
0.0401199
0.0400871
0.0401354
0.0400649
0.0401676
0.0400165
0.0402297
0.0511638
0.0416716
0.0420757
0.0434502
0.0391604
0.0391902
0.0390732
0.0392634
0.0476934
0.042063
0.0389483
0.0389504
0.0389877
0.0389419
0.0390523
0.0391858
0.0496575
0.0422115
0.0390967
0.0391018
0.0390709
0.0390964
0.0390271
0.0390178
0.039093
0.0391946
0.0474951
0.0443185
0.0389953
0.0389937
0.0390079
0.0390117
0.0390291
0.0390527
0.0389972
0.03901
0.0390539
0.0392815
0.0599784
0.0390639
0.039064
0.0390556
0.0390605
0.0390452
0.0390476
0.0390595
0.0390503
0.0390642
0.0388994
0.0392817
0.0576969
0.0390172
0.0390194
0.039022
0.0390276
0.0390293
0.0390392
0.0390298
0.0390394
0.0390505
0.0390648
0.0390544
0.0517571
0.0390489
0.0390502
0.0390462
0.0390493
0.039043
0.0390477
0.039044
0.0390494
0.0390389
0.0390509
0.03901
0.0391956
0.0490907
0.0390256
0.0390279
0.0390272
0.0390329
0.0390297
0.0390386
0.0390309
0.0390451
0.0390302
0.0390607
0.0389978
0.0390944
0.0502221
0.042174
0.0390404
0.0390421
0.0390396
0.0390436
0.0390387
0.0390456
0.0390395
0.0390487
0.0390391
0.0390489
0.0390534
0.0390194
0.039187
0.0472714
0.0390285
0.0390308
0.0390288
0.0390348
0.0390299
0.03904
0.0390304
0.039045
0.0390301
0.0390475
0.0390301
0.0390293
0.0390536
0.0496174
0.0390352
0.0390373
0.0390347
0.0390402
0.0390343
0.0390445
0.0390329
0.0390512
0.0390283
0.039063
0.039013
0.0390988
0.0389431
0.0392653
0.0551471
0.0390295
0.039032
0.0390292
0.039036
0.0390293
0.0390417
0.0390282
0.0390491
0.0390237
0.0390598
0.0390105
0.0390741
0.0389876
0.0390749
0.0509788
0.039032
0.0390344
0.0390315
0.0390382
0.039031
0.0390441
0.0390287
0.039053
0.0390214
0.0390694
0.0390036
0.0391058
0.0389434
0.0391902
0.0507549
0.0390306
0.0390332
0.0390302
0.0390373
0.0390297
0.0390434
0.0390273
0.0390527
0.0390196
0.0390688
0.0389984
0.0391016
0.0389491
0.0391621
0.0500969
0.0406053
0.0410093
0.0423837
0.0380935
0.0381232
0.0380063
0.0381964
0.0466267
0.0409964
0.0378818
0.0378839
0.0379211
0.0378753
0.0379857
0.0381194
0.048591
0.041145
0.0380296
0.0380347
0.0380038
0.0380294
0.0379603
0.0379511
0.0380265
0.0381283
0.0464286
0.0432519
0.0379285
0.0379267
0.037941
0.0379447
0.0379622
0.037986
0.0379302
0.0379433
0.0379872
0.0382173
0.0589218
0.0379966
0.0379967
0.0379884
0.0379934
0.0379783
0.0379804
0.0379929
0.0379836
0.0379977
0.0378327
0.0382128
0.0566299
0.0379499
0.0379521
0.0379546
0.0379604
0.0379618
0.0379723
0.0379624
0.0379725
0.0379833
0.0379981
0.0379872
0.0506903
0.0379816
0.0379829
0.0379788
0.0379821
0.0379759
0.0379807
0.037977
0.0379825
0.0379719
0.0379841
0.0379432
0.0381292
0.048024
0.0379579
0.0379602
0.0379594
0.0379653
0.0379623
0.0379726
0.0379632
0.0379781
0.0379627
0.0379942
0.0379307
0.0380278
0.0491552
0.0411075
0.0379729
0.0379745
0.037972
0.0379761
0.0379713
0.0379783
0.0379711
0.0379814
0.0379721
0.0379818
0.0379866
0.0379527
0.0381205
0.0462048
0.0379604
0.0379628
0.0379608
0.037967
0.037962
0.0379725
0.0379624
0.0379777
0.0379625
0.0379807
0.0379631
0.0379626
0.0379868
0.0485507
0.0379672
0.0379693
0.0379668
0.0379725
0.0379664
0.0379771
0.0379653
0.0379841
0.037961
0.037996
0.0379459
0.0380319
0.0378763
0.0381987
0.0540803
0.0379612
0.0379638
0.037961
0.0379681
0.0379613
0.0379741
0.0379603
0.0379819
0.0379561
0.0379926
0.0379427
0.0380071
0.0379217
0.0380086
0.0499121
0.0379638
0.0379662
0.0379634
0.0379704
0.0379631
0.0379765
0.0379609
0.0379859
0.0379539
0.0380013
0.0379307
0.0380374
0.0378833
0.038125
0.0496881
0.0379624
0.0379649
0.0379619
0.0379693
0.0379616
0.0379758
0.0379594
0.0379854
0.0379522
0.0380014
0.0379309
0.038034
0.0378828
0.0380964
0.0490302
0.0395386
0.0399425
0.0413168
0.0370247
0.0370532
0.0369383
0.037129
0.0455599
0.0399301
0.0368141
0.0368073
0.036853
0.0368086
0.0369192
0.0370532
0.0475249
0.0400792
0.036963
0.0369686
0.0369366
0.0369622
0.0368933
0.0368845
0.0369602
0.0370624
0.0453624
0.0421854
0.0368629
0.0368693
0.0368756
0.036878
0.0368953
0.0369194
0.0368632
0.0368766
0.0369194
0.0371409
0.0578123
0.0369298
0.0369316
0.0369216
0.0369262
0.0369113
0.036913
0.0369263
0.0369169
0.0369309
0.0367659
0.0371547
0.0555646
0.036883
0.0368854
0.0368876
0.0368933
0.0368943
0.0369056
0.0368948
0.0369056
0.0369159
0.0369319
0.0369208
0.049624
0.0369142
0.0369154
0.0369114
0.0369147
0.0369086
0.0369134
0.03691
0.0369156
0.0369049
0.0369173
0.0368763
0.0370631
0.0469575
0.0368902
0.0368925
0.0368917
0.0368977
0.0368944
0.0369047
0.0368958
0.0369111
0.036895
0.0369276
0.0368634
0.0369613
0.0480884
0.0400413
0.0369053
0.0369069
0.0369043
0.0369086
0.0369037
0.036911
0.0369042
0.0369143
0.0369051
0.0369147
0.0369198
0.0368861
0.0370542
0.0451384
0.0368924
0.0368948
0.0368928
0.0368992
0.0368941
0.036905
0.0368948
0.0369106
0.036895
0.0369138
0.036896
0.0368958
0.0369201
0.0474839
0.0368993
0.0369014
0.0368988
0.0369048
0.0368987
0.0369097
0.0368977
0.0369169
0.0368938
0.0369291
0.0368789
0.0369649
0.0368095
0.0371316
0.0530135
0.036893
0.0368956
0.0368928
0.0369001
0.0368933
0.0369065
0.0368925
0.0369146
0.0368888
0.0369258
0.0368765
0.0369401
0.0368539
0.0369413
0.0488452
0.0368956
0.0368981
0.0368953
0.0369025
0.0368951
0.036909
0.0368932
0.0369186
0.0368868
0.0369358
0.0368697
0.0369707
0.0368103
0.0370564
0.0486211
0.0368941
0.0368967
0.0368937
0.0369013
0.0368936
0.0369081
0.0368916
0.036918
0.0368848
0.0369344
0.0368642
0.0369677
0.0368154
0.0370288
0.0479633
0.0384717
0.0388758
0.0402502
0.0359582
0.0359877
0.0358715
0.0360615
0.0444933
0.038864
0.035749
0.0357508
0.0357883
0.0357424
0.0358529
0.0359876
0.0464592
0.0390139
0.0358944
0.0358989
0.0358687
0.0358946
0.0358263
0.0358178
0.0358942
0.0359973
0.0442968
0.0411209
0.0357953
0.0357937
0.0358078
0.0358111
0.0358284
0.0358527
0.0357961
0.0358101
0.0358552
0.0361028
0.056876
0.0358616
0.0358621
0.0358535
0.0358587
0.0358441
0.0358458
0.0358597
0.0358505
0.0358656
0.0357
0.0360622
0.0544942
0.0358157
0.035818
0.0358202
0.0358261
0.0358267
0.0358383
0.0358268
0.0358385
0.0358479
0.0358646
0.0358509
0.0485565
0.0358466
0.0358478
0.0358438
0.0358472
0.0358411
0.035846
0.0358427
0.0358486
0.0358376
0.0358504
0.0358089
0.0359976
0.0458911
0.0358225
0.0358248
0.035824
0.0358302
0.0358267
0.0358375
0.0358279
0.0358438
0.035827
0.0358609
0.035796
0.0358951
0.0470216
0.0389755
0.0358375
0.0358391
0.0358365
0.035841
0.0358361
0.0358436
0.0358368
0.035847
0.0358379
0.0358474
0.0358528
0.0358194
0.0359885
0.0440724
0.0358243
0.0358268
0.0358249
0.0358315
0.0358263
0.0358375
0.0358271
0.0358432
0.0358273
0.0358467
0.0358288
0.035829
0.0358536
0.0464172
0.0358312
0.0358334
0.0358309
0.035837
0.0358309
0.0358422
0.0358302
0.0358496
0.0358264
0.0358618
0.0358118
0.0358976
0.0357435
0.036064
0.0519468
0.0358247
0.0358274
0.0358247
0.0358322
0.0358253
0.0358388
0.0358248
0.0358471
0.0358212
0.0358584
0.0358093
0.0358728
0.0357874
0.0358745
0.0477785
0.0358274
0.0358301
0.0358272
0.0358346
0.0358272
0.0358414
0.0358255
0.0358511
0.0358193
0.0358683
0.0358021
0.0359029
0.0357442
0.0359894
0.0475542
0.0358257
0.0358284
0.0358254
0.0358333
0.0358255
0.0358404
0.0358239
0.0358503
0.0358172
0.0358666
0.0357962
0.0359008
0.035749
0.0359622
0.0468965
0.0374059
0.0378099
0.0391843
0.0348896
0.0349178
0.0348035
0.0349933
0.0434273
0.0377991
0.0346824
0.0346779
0.0347217
0.0346762
0.034787
0.0349233
0.0453949
0.0379505
0.0348262
0.0348309
0.0348006
0.0348264
0.0347593
0.0347512
0.0348288
0.0349336
0.0432322
0.0400536
0.0347297
0.0347336
0.0347421
0.0347443
0.0347613
0.034786
0.0347286
0.0347425
0.0347812
0.0349723
0.0555075
0.034794
0.0347954
0.0347859
0.034791
0.0347767
0.0347783
0.034793
0.0347833
0.0347973
0.0346326
0.0350513
0.0534371
0.0347488
0.0347512
0.0347532
0.034759
0.034759
0.0347707
0.034758
0.034771
0.0347788
0.0348006
0.0347893
0.0474943
0.0347789
0.0347801
0.0347761
0.0347796
0.0347736
0.0347785
0.0347754
0.0347813
0.0347702
0.0347839
0.034742
0.0349337
0.0448257
0.0347548
0.0347572
0.0347564
0.0347627
0.0347591
0.0347701
0.0347605
0.0347764
0.0347584
0.034794
0.0347281
0.0348293
0.0459555
0.0379111
0.0347697
0.0347713
0.0347688
0.0347734
0.0347685
0.0347761
0.0347694
0.0347795
0.0347706
0.0347798
0.0347859
0.0347527
0.0349242
0.0430074
0.0347562
0.0347589
0.034757
0.0347637
0.0347586
0.0347699
0.0347595
0.0347757
0.0347594