/*--------------------------------*- C++ -*----------------------------------*\
| =========                 |                                                 |
| \\      /  F ield         | OpenFOAM: The Open Source CFD Toolbox           |
|  \\    /   O peration     | Version:  2.1.1                                 |
|   \\  /    A nd           | Web:      www.OpenFOAM.org                      |
|    \\/     M anipulation  |                                                 |
\*---------------------------------------------------------------------------*/
FoamFile
{
    version     2.0;
    format      ascii;
    class       volScalarField;
    location    "0.14";
    object      p;
}
// * * * * * * * * * * * * * * * * * * * * * * * * * * * * * * * * * * * * * //

dimensions      [0 2 -2 0 0 0 0];

internalField   nonuniform List<scalar> 
163952
(
0.0416757
0.0410994
0.0363634
0.0311686
0.0299719
0.0273605
0.0267704
0.0264468
0.0366834
0.0323413
0.0272998
0.0248102
0.0235666
0.0227876
0.0224733
0.0223321
0.0337145
0.0279777
0.024474
0.0228344
0.0219218
0.021384
0.0210453
0.020865
0.0207795
0.0335843
0.0260855
0.0232511
0.0219046
0.0211493
0.0206705
0.0203509
0.0201393
0.0200132
0.0199497
0.0335855
0.0255434
0.0227268
0.0214486
0.0207338
0.02027
0.0199461
0.0197153
0.0195558
0.0194553
0.0194029
0.0337147
0.0260855
0.0227268
0.0213051
0.0205425
0.0200538
0.0197083
0.0194544
0.0192678
0.0191358
0.0190502
0.0190048
0.036683
0.0279775
0.023251
0.0214485
0.0205425
0.0199841
0.0195959
0.0193092
0.0190936
0.018933
0.0188181
0.0187426
0.0187021
0.0323412
0.0244738
0.0219044
0.0207337
0.0200537
0.0195958
0.0192623
0.0190105
0.0188192
0.018676
0.0185728
0.0185046
0.0184678
0.0363632
0.0272997
0.0228342
0.0211491
0.0202699
0.0197082
0.0193091
0.0190105
0.0187824
0.0186082
0.0184771
0.0183824
0.0183195
0.0182855
0.0311684
0.0248099
0.0219216
0.0206703
0.0199459
0.0194543
0.0190935
0.0188192
0.0186081
0.0184461
0.0183239
0.0182354
0.0181764
0.0181444
0.0299716
0.0235663
0.0213837
0.0203507
0.0197151
0.0192676
0.0189328
0.0186759
0.018477
0.0183239
0.018208
0.0181239
0.0180677
0.0180372
0.0273602
0.0227873
0.021045
0.020139
0.0195556
0.0191356
0.0188179
0.0185727
0.0183823
0.0182353
0.0181238
0.0180428
0.0179886
0.0179592
0.0416753
0.0267701
0.022473
0.0208647
0.0200129
0.019455
0.01905
0.0187424
0.0185044
0.0183194
0.0181763
0.0180677
0.0179886
0.0179357
0.0179069
0.0410991
0.0264464
0.0223317
0.0207792
0.0199494
0.0194026
0.0190045
0.0187019
0.0184676
0.0182854
0.0181443
0.0180372
0.0179591
0.0179069
0.0178785
0.0235018
0.0235586
0.0224964
0.0237057
0.0224368
0.0221227
0.0220778
0.022057
0.0226011
0.0244151
0.0221023
0.0217901
0.0215296
0.0213388
0.021264
0.0212123
0.0233793
0.0221541
0.0217362
0.0213243
0.0209836
0.020705
0.0205202
0.0204241
0.0203747
0.0221236
0.0218333
0.0213961
0.0209549
0.0205622
0.020251
0.0200148
0.0198551
0.0197629
0.0197187
0.0221243
0.0217041
0.021212
0.0207081
0.0202811
0.0199387
0.0196792
0.0194879
0.0193561
0.0192759
0.0192374
0.0233793
0.0218334
0.0212119
0.020628
0.0201391
0.0197612
0.019472
0.0192542
0.0190934
0.0189811
0.0189108
0.0188768
0.0226011
0.0221541
0.021396
0.020708
0.0201391
0.0197025
0.0193732
0.0191228
0.0189335
0.0187931
0.0186941
0.0186313
0.0186007
0.0244149
0.0217361
0.0209547
0.020281
0.0197611
0.0193731
0.0190803
0.0188571
0.0186875
0.0185613
0.0184717
0.0184143
0.0183864
0.0224962
0.0221021
0.0213241
0.020562
0.0199385
0.0194719
0.0191227
0.018857
0.0186534
0.0184979
0.0183816
0.0182987
0.0182454
0.0182193
0.0237054
0.0217898
0.0209833
0.0202508
0.019679
0.019254
0.0189333
0.0186875
0.0184978
0.0183523
0.0182432
0.0181651
0.0181148
0.0180902
0.0224365
0.0215293
0.0207047
0.0200145
0.0194877
0.0190932
0.018793
0.0185612
0.0183815
0.0182431
0.018139
0.0180645
0.0180163
0.0179927
0.0221223
0.0213385
0.0205199
0.0198548
0.0193559
0.0189809
0.0186939
0.0184716
0.0182986
0.0181651
0.0180644
0.0179923
0.0179456
0.0179227
0.0235014
0.0220775
0.0212637
0.0204238
0.0197626
0.0192756
0.0189106
0.0186311
0.0184142
0.0182453
0.0181147
0.0180163
0.0179456
0.0178998
0.0178774
0.0235582
0.0220566
0.0212119
0.0203743
0.0197184
0.0192371
0.0188766
0.0186005
0.0183862
0.0182192
0.0180901
0.0179926
0.0179226
0.0178774
0.0178551
0.0198581
0.0198724
0.0199372
0.0203191
0.0205427
0.020427
0.0203195
0.0202789
0.0199439
0.0207879
0.0203377
0.0202597
0.0201649
0.0201262
0.0200968
0.0200714
0.0201543
0.0203515
0.0202512
0.0201306
0.019994
0.0198495
0.0197582
0.0197032
0.0196728
0.0205014
0.0202845
0.0201594
0.0199796
0.0197876
0.0196218
0.019482
0.019382
0.0193197
0.0192885
0.0205021
0.0202393
0.0200864
0.0198648
0.0196399
0.0194373
0.0192712
0.0191399
0.0190453
0.0189854
0.0189558
0.0201542
0.0202846
0.0200863
0.0198268
0.019561
0.0193275
0.019131
0.0189728
0.0188501
0.0187617
0.0187051
0.0186773
0.0199438
0.0203514
0.0201594
0.0198647
0.019561
0.01929
0.0190617
0.0188744
0.0187254
0.018611
0.0185285
0.0184753
0.0184492
0.0207877
0.020251
0.0199794
0.0196398
0.0193274
0.0190617
0.018842
0.0186642
0.0185239
0.0184166
0.0183392
0.0182892
0.0182646
0.0199369
0.0203375
0.0201304
0.0197875
0.0194372
0.0191309
0.0188743
0.0186642
0.0184953
0.0183624
0.0182609
0.0181876
0.0181401
0.0181168
0.0203188
0.0202595
0.0199937
0.0196216
0.019271
0.0189727
0.0187253
0.0185238
0.0183623
0.0182353
0.0181384
0.0180683
0.0180228
0.0180005
0.0205424
0.0201646
0.0198492
0.0194818
0.0191397
0.0188499
0.0186108
0.0184165
0.0182608
0.0181383
0.0180448
0.0179772
0.0179333
0.0179116
0.0204266
0.0201258
0.0197579
0.0193817
0.0190451
0.0187615
0.0185283
0.0183391
0.0181875
0.0180683
0.0179772
0.0179113
0.0178684
0.0178473
0.0198577
0.0203191
0.0200964
0.0197028
0.0193194
0.0189851
0.0187048
0.0184751
0.018289
0.01814
0.0180227
0.0179332
0.0178684
0.0178262
0.0178055
0.019872
0.0202785
0.020071
0.0196724
0.0192881
0.0189555
0.018677
0.0184489
0.0182644
0.0181166
0.0180004
0.0179115
0.0178473
0.0178055
0.0177849
0.0185109
0.0185213
0.0186281
0.0188551
0.019186
0.0191857
0.0191332
0.0191112
0.0186429
0.0190689
0.0191089
0.0190965
0.0190672
0.0190687
0.0190674
0.0190639
0.0187838
0.0191128
0.0191003
0.0190933
0.0190646
0.0190129
0.0189771
0.0189518
0.0189375
0.0192161
0.0191161
0.0191101
0.0190599
0.0189937
0.0189295
0.0188667
0.0188169
0.0187823
0.018764
0.0192166
0.0190964
0.0190914
0.0190284
0.0189389
0.0188456
0.0187599
0.0186854
0.0186283
0.0185901
0.0185708
0.0187837
0.0191161
0.0190913
0.019017
0.0189083
0.0187922
0.0186819
0.0185849
0.0185046
0.0184441
0.0184041
0.0183841
0.0186428
0.0191127
0.01911
0.0190283
0.0189083
0.0187735
0.0186416
0.0185221
0.0184203
0.0183383
0.0182772
0.0182369
0.0182169
0.0190687
0.0191001
0.0190597
0.0189388
0.0187921
0.0186415
0.0185009
0.0183775
0.0182747
0.018193
0.0181326
0.0180927
0.018073
0.0186278
0.0191087
0.019093
0.0189935
0.0188455
0.0186818
0.018522
0.0183775
0.0182534
0.0181512
0.0180707
0.0180113
0.0179723
0.017953
0.0188548
0.0190962
0.0190643
0.0189292
0.0187596
0.0185848
0.0184202
0.0182746
0.0181512
0.0180502
0.0179711
0.0179129
0.0178747
0.0178558
0.0191857
0.0190669
0.0190125
0.0188665
0.0186851
0.0185044
0.0183381
0.0181929
0.0180706
0.0179711
0.0178933
0.0178362
0.0177986
0.0177801
0.0191853
0.0190683
0.0189768
0.0188166
0.018628
0.0184439
0.018277
0.0181324
0.0180112
0.0179129
0.0178361
0.0177798
0.0177428
0.0177245
0.0185105
0.0191328
0.019067
0.0189514
0.0187819
0.0185898
0.0184038
0.0182367
0.0180926
0.0179722
0.0178746
0.0177986
0.0177428
0.0177062
0.017688
0.0185208
0.0191108
0.0190635
0.0189371
0.0187636
0.0185704
0.0183838
0.0182166
0.0180728
0.0179528
0.0178556
0.01778
0.0177244
0.017688
0.01767
0.017793
0.0178011
0.017854
0.0180026
0.0182191
0.0182626
0.0182529
0.0182513
0.0178789
0.0181113
0.0182192
0.0182383
0.0182438
0.0182562
0.0182644
0.0182689
0.0179687
0.0182206
0.0182469
0.01828
0.0182984
0.0182979
0.0182949
0.0182888
0.0182846
0.0182531
0.0182426
0.0182865
0.0182999
0.0183001
0.0182926
0.0182772
0.0182612
0.0182474
0.0182395
0.0182534
0.0182373
0.0182934
0.0183088
0.0182964
0.0182713
0.0182398
0.018207
0.0181792
0.0181592
0.0181487
0.0179686
0.0182426
0.0182932
0.0183114
0.0182934
0.0182543
0.0182066
0.0181579
0.0181133
0.0180777
0.0180531
0.0180405
0.0178787
0.0182205
0.0182864
0.0183087
0.0182934
0.0182482
0.018188
0.0181241
0.0180642
0.0180125
0.0179723
0.0179449
0.0179311
0.0181111
0.0182467
0.0182997
0.0182962
0.0182542
0.0181879
0.0181123
0.018038
0.0179712
0.0179154
0.0178726
0.0178438
0.0178294
0.0178536
0.0182189
0.0182797
0.0182999
0.0182711
0.0182065
0.0181241
0.0180379
0.017957
0.0178862
0.0178281
0.0177841
0.0177546
0.0177398
0.0180022
0.018238
0.0182981
0.0182923
0.0182396
0.0181577
0.018064
0.0179711
0.0178862
0.0178132
0.0177539
0.0177092
0.0176794
0.0176645
0.0182186
0.0182434
0.0182975
0.0182769
0.0182067
0.0181131
0.0180123
0.0179152
0.0178281
0.0177538
0.017694
0.0176491
0.0176192
0.0176043
0.0182621
0.0182557
0.0182945
0.0182608
0.0181789
0.0180774
0.017972
0.0178724
0.0177839
0.0177091
0.017649
0.0176041
0.0175742
0.0175592
0.0177925
0.0182524
0.0182639
0.0182884
0.018247
0.0181588
0.0180528
0.0179447
0.0178436
0.0177544
0.0176793
0.0176191
0.0175741
0.0175443
0.0175294
0.0178006
0.0182508
0.0182684
0.0182841
0.0182391
0.0181483
0.0180401
0.0179308
0.0178291
0.0177396
0.0176643
0.0176042
0.0175592
0.0175293
0.0175145
0.0172828
0.0172895
0.017302
0.0173949
0.0175202
0.0175705
0.0175756
0.0175817
0.0173242
0.0174682
0.0175502
0.0175812
0.0176025
0.0176219
0.0176325
0.0176385
0.0173791
0.0175506
0.0175921
0.0176362
0.0176702
0.0176908
0.0177047
0.0177104
0.0177122
0.0175511
0.0175779
0.0176361
0.0176747
0.0177038
0.0177236
0.0177338
0.0177382
0.0177384
0.0177377
0.0175512
0.0175821
0.0176528
0.0176988
0.0177243
0.0177372
0.0177396
0.0177349
0.0177282
0.0177219
0.0177182
0.0173789
0.0175779
0.0176527
0.0177072
0.0177349
0.0177422
0.0177364
0.0177227
0.0177058
0.0176901
0.0176783
0.017672
0.017324
0.0175504
0.017636
0.0176987
0.0177349
0.0177436
0.0177329
0.017711
0.0176845
0.0176584
0.0176364
0.0176206
0.0176125
0.0174679
0.0175919
0.0176745
0.0177242
0.0177421
0.0177328
0.0177064
0.017672
0.0176362
0.0176035
0.0175771
0.0175587
0.0175493
0.0173017
0.0175498
0.0176359
0.0177036
0.017737
0.0177362
0.0177109
0.0176719
0.0176282
0.0175859
0.0175488
0.0175195
0.0174994
0.0174891
0.0173945
0.0175808
0.0176698
0.0177233
0.0177393
0.0177225
0.0176844
0.0176361
0.0175858
0.0175391
0.0174991
0.0174679
0.0174466
0.0174358
0.0175197
0.0176021
0.0176904
0.0177334
0.0177346
0.0177055
0.0176582
0.0176034
0.0175487
0.017499
0.0174571
0.0174247
0.0174027
0.0173916
0.0175699
0.0176214
0.0177042
0.0177377
0.0177278
0.0176898
0.0176361
0.0175769
0.0175194
0.0174678
0.0174246
0.0173915
0.017369
0.0173577
0.0172823
0.0175751
0.017632
0.0177099
0.017738
0.0177215
0.017678
0.0176203
0.0175585
0.0174992
0.0174464
0.0174026
0.017369
0.0173463
0.0173349
0.017289
0.0175811
0.0176379
0.0177117
0.0177372
0.0177178
0.0176716
0.0176122
0.0175491
0.0174889
0.0174357
0.0173915
0.0173577
0.0173349
0.0173234
0.0168494
0.016857
0.0168498
0.0169095
0.0169765
0.0170225
0.0170316
0.0170394
0.0168677
0.0169689
0.0170162
0.0170476
0.0170727
0.0170956
0.0171077
0.0171144
0.0169021
0.0170163
0.0170598
0.0171039
0.0171404
0.0171671
0.0171879
0.0171996
0.0172049
0.0170033
0.0170419
0.0171005
0.0171462
0.0171854
0.0172168
0.0172393
0.0172547
0.0172632
0.0172669
0.0170034
0.0170494
0.0171188
0.017174
0.017216
0.0172481
0.0172699
0.0172828
0.0172901
0.0172934
0.0172945
0.0169019
0.0170418
0.0171187
0.0171839
0.0172323
0.0172653
0.0172855
0.0172954
0.0172983
0.0172976
0.0172958
0.0172944
0.0168675
0.0170161
0.0171003
0.0171738
0.0172322
0.017271
0.0172919
0.0172994
0.017298
0.0172918
0.0172846
0.0172785
0.0172751
0.0169686
0.0170595
0.017146
0.0172158
0.0172652
0.0172918
0.0173001
0.017296
0.017285
0.0172717
0.0172593
0.01725
0.017245
0.0168494
0.0170158
0.0171035
0.0171851
0.0172479
0.0172853
0.0172993
0.0172959
0.0172822
0.0172638
0.0172451
0.0172289
0.0172173
0.0172112
0.016909
0.0170471
0.0171399
0.0172165
0.0172695
0.0172952
0.0172978
0.0172849
0.0172637
0.0172399
0.0172172
0.0171984
0.0171851
0.0171783
0.016976
0.0170722
0.0171667
0.0172389
0.0172825
0.017298
0.0172916
0.0172715
0.0172449
0.0172172
0.0171918
0.0171711
0.0171567
0.0171493
0.0170219
0.017095
0.0171873
0.0172542
0.0172896
0.0172973
0.0172843
0.0172591
0.0172288
0.0171983
0.0171711
0.0171492
0.017134
0.0171263
0.0168488
0.017031
0.0171071
0.017199
0.0172627
0.0172929
0.0172954
0.0172781
0.0172497
0.0172171
0.017185
0.0171566
0.017134
0.0171183
0.0171103
0.0168563
0.0170388
0.0171138
0.0172043
0.0172664
0.0172941
0.017294
0.0172747
0.0172447
0.017211
0.0171781
0.0171492
0.0171262
0.0171103
0.0171022
0.0164594
0.0164674
0.0164565
0.0164956
0.0165277
0.016566
0.0165758
0.0165834
0.0164698
0.016547
0.0165685
0.016596
0.0166195
0.0166422
0.0166547
0.0166617
0.0164927
0.0165685
0.0166085
0.0166487
0.0166829
0.0167096
0.0167317
0.0167455
0.0167523
0.0165502
0.0165899
0.0166438
0.0166891
0.0167298
0.0167646
0.0167918
0.0168122
0.0168248
0.0168309
0.0165502
0.0165976
0.0166608
0.0167159
0.0167632
0.0168034
0.0168348
0.0168576
0.0168732
0.0168825
0.0168868
0.0164925
0.0165898
0.0166607
0.0167256
0.0167811
0.0168263
0.0168611
0.0168855
0.0169013
0.016911
0.0169162
0.0169185
0.0164695
0.0165682
0.0166436
0.0167158
0.016781
0.0168341
0.0168733
0.0168997
0.0169155
0.0169239
0.0169278
0.0169291
0.0169295
0.0165467
0.0166082
0.0166888
0.0167629
0.0168262
0.0168733
0.0169039
0.0169211
0.0169287
0.0169304
0.0169293
0.0169274
0.0169262
0.016456
0.016568
0.0166482
0.0167294
0.016803
0.0168608
0.0168995
0.016921
0.0169297
0.0169303
0.0169266
0.0169215
0.0169171
0.0169146
0.016495
0.0165954
0.0166824
0.0167641
0.0168344
0.0168852
0.0169153
0.0169285
0.0169302
0.0169252
0.0169172
0.0169092
0.0169029
0.0168995
0.0165271
0.0166189
0.016709
0.0167913
0.0168572
0.0169009
0.0169236
0.0169302
0.0169264
0.0169171
0.0169061
0.0168959
0.0168882
0.0168842
0.0165653
0.0166415
0.0167311
0.0168116
0.0168727
0.0169105
0.0169274
0.016929
0.0169213
0.016909
0.0168958
0.0168841
0.0168755
0.016871
0.0164587
0.016575
0.016654
0.0167448
0.0168242
0.016882
0.0169157
0.0169287
0.0169271
0.0169168
0.0169027
0.0168881
0.0168755
0.0168663
0.0168615
0.0164667
0.0165827
0.016661
0.0167516
0.0168303
0.0168863
0.016918
0.016929
0.0169258
0.0169143
0.0168993
0.016884
0.0168709
0.0168615
0.0168565
0.0161041
0.0161116
0.0161033
0.0161293
0.016141
0.0161716
0.0161806
0.0161873
0.016113
0.0161746
0.0161789
0.016202
0.0162224
0.0162428
0.0162545
0.0162612
0.0161296
0.0161791
0.0162141
0.0162493
0.0162797
0.016304
0.0163249
0.0163386
0.0163456
0.0161601
0.0161968
0.0162443
0.0162859
0.0163242
0.0163581
0.0163858
0.0164075
0.0164217
0.0164287
0.0161601
0.0162037
0.0162591
0.0163101
0.0163566
0.0163984
0.0164334
0.0164606
0.0164805
0.0164931
0.0164993
0.0161294
0.0161966
0.016259
0.0163188
0.0163741
0.0164233
0.0164646
0.0164968
0.0165202
0.0165363
0.0165462
0.0165508
0.0161127
0.0161787
0.016244
0.0163099
0.016374
0.0164318
0.0164799
0.016517
0.0165437
0.0165618
0.0165734
0.0165801
0.0165832
0.0161742
0.0162137
0.0162855
0.0163564
0.0164231
0.0164798
0.0165234
0.0165543
0.0165747
0.0165874
0.0165947
0.0165986
0.0166002
0.0161027
0.0161784
0.0162488
0.0163237
0.0163981
0.0164643
0.0165168
0.0165542
0.0165786
0.0165931
0.0166009
0.0166045
0.016606
0.0166064
0.0161287
0.0162014
0.0162791
0.0163575
0.016433
0.0164964
0.0165434
0.0165746
0.016593
0.0166025
0.0166062
0.016607
0.0166065
0.016606
0.0161402
0.0162217
0.0163034
0.0163852
0.0164601
0.0165198
0.0165615
0.0165871
0.0166007
0.0166062
0.0166069
0.0166054
0.0166035
0.0166023
0.0161708
0.0162421
0.0163242
0.0164068
0.0164799
0.0165358
0.016573
0.0165944
0.0166043
0.0166068
0.0166053
0.0166023
0.0165994
0.0165977
0.0161032
0.0161797
0.0162537
0.0163378
0.016421
0.0164925
0.0165456
0.0165797
0.0165982
0.0166057
0.0166063
0.0166034
0.0165994
0.0165958
0.0165938
0.0161107
0.0161864
0.0162603
0.0163448
0.016428
0.0164986
0.0165503
0.0165827
0.0165998
0.0166061
0.0166058
0.0166022
0.0165976
0.0165938
0.0165917
0.0157781
0.0157846
0.0157797
0.0157975
0.0157966
0.0158209
0.0158285
0.015834
0.0157872
0.0158376
0.0158305
0.0158496
0.0158668
0.0158843
0.0158944
0.0159003
0.0158001
0.015831
0.015861
0.0158912
0.0159174
0.0159386
0.0159572
0.0159696
0.0159762
0.0158134
0.0158457
0.0158867
0.0159234
0.0159577
0.0159887
0.0160147
0.0160356
0.0160497
0.0160568
0.0158133
0.0158518
0.0158995
0.0159448
0.0159876
0.0160274
0.0160622
0.0160904
0.0161117
0.0161256
0.0161326
0.0157998
0.0158455
0.0158993
0.0159524
0.0160038
0.016052
0.0160947
0.0161299
0.016157
0.0161765
0.016189
0.0161951
0.0157868
0.0158306
0.0158864
0.0159445
0.0160036
0.0160604
0.016111
0.016153
0.0161856
0.0162096
0.0162261
0.0162364
0.0162413
0.015837
0.0158604
0.015923
0.0159873
0.0160518
0.0161109
0.0161605
0.0161992
0.0162278
0.0162477
0.016261
0.0162689
0.0162726
0.015779
0.0158298
0.0158905
0.0159572
0.016027
0.0160943
0.0161528
0.0161991
0.0162334
0.0162575
0.0162735
0.0162837
0.0162895
0.0162922
0.0157968
0.0158488
0.0159166
0.0159881
0.0160617
0.0161294
0.0161853
0.0162276
0.0162574
0.0162773
0.0162899
0.0162975
0.0163016
0.0163034
0.0157957
0.0158659
0.0159379
0.016014
0.0160897
0.0161565
0.0162092
0.0162475
0.0162734
0.0162899
0.0162997
0.0163052
0.016308
0.0163091
0.0158199
0.0158833
0.0159563
0.0160348
0.016111
0.016176
0.0162257
0.0162606
0.0162834
0.0162973
0.0163051
0.0163091
0.0163109
0.0163116
0.0157769
0.0158275
0.0158934
0.0159687
0.0160488
0.0161249
0.0161884
0.0162359
0.0162685
0.0162892
0.0163014
0.0163078
0.0163108
0.016312
0.0163124
0.0157834
0.015833
0.0158993
0.0159752
0.0160559
0.0161318
0.0161944
0.0162407
0.0162722
0.0162918
0.0163031
0.0163089
0.0163115
0.0163123
0.0163125
0.0154756
0.015481
0.0154792
0.0154921
0.0154822
0.0155016
0.0155078
0.0155123
0.0154852
0.0155272
0.0155121
0.0155279
0.0155422
0.0155567
0.0155651
0.0155702
0.0154959
0.0155132
0.0155385
0.0155641
0.0155863
0.0156043
0.0156202
0.0156309
0.0156367
0.0154975
0.0155256
0.0155606
0.0155922
0.015622
0.0156492
0.0156724
0.0156913
0.0157043
0.015711
0.0154974
0.0155309
0.0155716
0.0156108
0.0156487
0.0156847
0.015717
0.015744
0.0157648
0.0157788
0.0157858
0.0154955
0.0155254
0.0155714
0.0156174
0.0156631
0.0157076
0.0157485
0.0157835
0.0158115
0.0158323
0.0158459
0.0158526
0.0154847
0.0155127
0.0155602
0.0156105
0.015663
0.0157155
0.0157646
0.0158074
0.0158423
0.0158691
0.0158883
0.0159006
0.0159066
0.0155265
0.0155379
0.0155917
0.0156483
0.0157073
0.0157645
0.0158153
0.0158573
0.0158902
0.0159146
0.0159315
0.0159421
0.0159472
0.0154784
0.0155113
0.0155633
0.0156214
0.0156842
0.0157481
0.0158072
0.0158572
0.015897
0.0159269
0.0159484
0.015963
0.0159719
0.0159762
0.0154911
0.0155269
0.0155854
0.0156485
0.0157164
0.015783
0.015842
0.01589
0.0159268
0.0159536
0.0159724
0.0159849
0.0159924
0.015996
0.0154811
0.0155411
0.0156034
0.0156716
0.0157432
0.0158109
0.0158687
0.0159142
0.0159482
0.0159723
0.0159888
0.0159996
0.0160059
0.0160089
0.0155005
0.0155556
0.0156191
0.0156904
0.015764
0.0158316
0.0158878
0.0159311
0.0159627
0.0159847
0.0159995
0.0160089
0.0160144
0.0160169
0.0154743
0.0155066
0.015564
0.0156298
0.0157033
0.0157779
0.0158451
0.0159
0.0159416
0.0159716
0.0159922
0.0160058
0.0160143
0.0160192
0.0160214
0.0154796
0.0155111
0.015569
0.0156356
0.01571
0.0157849
0.0158518
0.0159059
0.0159467
0.0159758
0.0159957
0.0160087
0.0160168
0.0160214
0.0160235
0.0151915
0.0151959
0.0151965
0.0152071
0.0151901
0.0152057
0.0152105
0.0152142
0.0152017
0.0152373
0.0152166
0.0152295
0.0152412
0.0152531
0.0152598
0.015264
0.0152109
0.0152183
0.0152396
0.015261
0.0152795
0.0152944
0.0153074
0.0153163
0.0153212
0.0152047
0.0152291
0.0152587
0.0152854
0.0153106
0.0153337
0.0153536
0.0153699
0.0153812
0.0153872
0.0152046
0.0152336
0.0152682
0.0153015
0.0153339
0.0153653
0.0153939
0.0154183
0.0154374
0.0154505
0.0154571
0.0152105
0.0152288
0.015268
0.0153072
0.0153466
0.0153859
0.015423
0.0154558
0.0154827
0.0155031
0.0155167
0.0155235
0.0152011
0.0152177
0.0152582
0.0153012
0.0153464
0.015393
0.0154381
0.015479
0.0155135
0.0155408
0.0155609
0.0155741
0.0155806
0.0152365
0.0152389
0.0152848
0.0153335
0.0153856
0.015438
0.0154867
0.0155288
0.0155631
0.0155894
0.0156083
0.0156205
0.0156264
0.0151955
0.0152156
0.0152601
0.0153098
0.0153647
0.0154226
0.0154787
0.0155286
0.0155703
0.0156031
0.0156277
0.0156451
0.015656
0.0156614
0.0152059
0.0152284
0.0152784
0.0153328
0.0153932
0.0154552
0.015513
0.0155628
0.015603
0.0156339
0.0156566
0.0156724
0.0156822
0.015687
0.0151888
0.01524
0.0152932
0.0153525
0.0154174
0.015482
0.0155403
0.015589
0.0156275
0.0156565
0.0156775
0.0156919
0.0157008
0.0157051
0.0152043
0.0152518
0.0153062
0.0153688
0.0154365
0.0155023
0.0155603
0.0156078
0.0156447
0.0156722
0.0156918
0.0157051
0.0157133
0.0157172
0.01519
0.015209
0.0152584
0.015315
0.0153801
0.0154495
0.0155158
0.0155734
0.0156199
0.0156556
0.0156819
0.0157006
0.0157133
0.015721
0.0157247
0.0151944
0.0152127
0.0152626
0.0153199
0.0153859
0.0154561
0.0155226
0.0155798
0.0156258
0.0156609
0.0156866
0.0157049
0.0157171
0.0157246
0.0157281
0.0149216
0.0149253
0.0149279
0.0149369
0.0149151
0.0149277
0.014931
0.0149341
0.0149329
0.0149637
0.0149389
0.0149494
0.0149587
0.0149682
0.0149731
0.0149766
0.0149412
0.0149416
0.0149593
0.0149769
0.0149918
0.0150036
0.0150139
0.0150209
0.0150248
0.0149298
0.014951
0.0149759
0.014998
0.0150186
0.0150375
0.0150537
0.0150672
0.0150766
0.0150815
0.0149296
0.0149548
0.0149841
0.0150118
0.0150387
0.0150649
0.0150891
0.0151101
0.0151268
0.0151384
0.0151443
0.0149406
0.0149506
0.0149839
0.0150166
0.0150495
0.0150829
0.0151151
0.0151442
0.0151687
0.0151876
0.0152004
0.0152069
0.0149321
0.0149409
0.0149754
0.0150114
0.0150493
0.0150891
0.0151287
0.0151657
0.015198
0.0152242
0.0152439
0.015257
0.0152636
0.0149627
0.0149584
0.0149973
0.0150381
0.0150825
0.0151285
0.0151729
0.0152128
0.0152463
0.0152728
0.0152923
0.0153051
0.0153114
0.0149267
0.0149377
0.0149759
0.0150177
0.0150641
0.0151145
0.0151654
0.0152126
0.0152535
0.015287
0.0153129
0.0153316
0.0153436
0.0153496
0.0149355
0.014948
0.0149906
0.0150364
0.0150882
0.0151435
0.0151974
0.0152459
0.0152868
0.0153195
0.0153443
0.015362
0.0153733
0.0153789
0.0149135
0.0149572
0.0150023
0.0150525
0.015109
0.0151678
0.0152235
0.0152723
0.0153126
0.0153442
0.0153679
0.0153846
0.0153952
0.0154004
0.014926
0.0149665
0.0150124
0.0150659
0.0151257
0.0151867
0.0152432
0.0152917
0.0153312
0.0153618
0.0153845
0.0154004
0.0154105
0.0154154
0.0149199
0.0149292
0.0149714
0.0150193
0.0150752
0.0151371
0.0151994
0.0152562
0.0153044
0.0153431
0.015373
0.015395
0.0154105
0.0154202
0.0154249
0.0149235
0.0149323
0.0149749
0.0150232
0.0150801
0.015143
0.0152058
0.0152626
0.0153106
0.015349
0.0153785
0.0154001
0.0154153
0.0154248
0.0154294
0.0146626
0.0146659
0.0146705
0.0146783
0.0146537
0.0146639
0.0146654
0.0146681
0.0146756
0.014703
0.0146757
0.0146839
0.014691
0.014698
0.0147012
0.014704
0.0146836
0.0146796
0.014694
0.0147081
0.0147195
0.0147282
0.0147356
0.0147406
0.0147435
0.0146695
0.014688
0.0147087
0.0147262
0.0147422
0.0147567
0.0147691
0.0147794
0.0147867
0.0147906
0.0146693
0.014691
0.0147157
0.0147379
0.0147591
0.0147797
0.0147992
0.0148162
0.01483
0.0148397
0.0148447
0.0146829
0.0146876
0.0147154
0.0147419
0.0147681
0.014795
0.0148215
0.0148462
0.0148673
0.014884
0.0148955
0.0149013
0.0146747
0.0146788
0.014708
0.0147374
0.0147679
0.0148002
0.0148334
0.0148654
0.0148941
0.0149181
0.0149365
0.0149489
0.0149551
0.0147018
0.0146929
0.0147253
0.0147584
0.0147945
0.0148332
0.0148718
0.0149078
0.0149391
0.0149645
0.0149835
0.0149962
0.0150025
0.014669
0.0146742
0.0147068
0.0147411
0.0147788
0.0148209
0.0148649
0.0149076
0.014946
0.0149784
0.0150042
0.0150232
0.0150357
0.0150419
0.0146766
0.0146823
0.014718
0.0147554
0.0147981
0.0148453
0.0148935
0.0149387
0.0149782
0.0150109
0.0150364
0.015055
0.0150671
0.0150731
0.0146518
0.0146891
0.0147265
0.0147676
0.014815
0.0148663
0.0149173
0.0149639
0.0150038
0.0150363
0.0150613
0.0150793
0.015091
0.0150967
0.0146618
0.014696
0.0147338
0.0147778
0.0148286
0.0148829
0.0149356
0.0149829
0.0150227
0.0150547
0.0150792
0.0150967
0.0151081
0.0151136
0.0146605
0.0146633
0.0146992
0.0147387
0.014785
0.0148382
0.0148943
0.0149479
0.0149954
0.0150351
0.0150667
0.0150908
0.015108
0.015119
0.0151244
0.0146638
0.0146659
0.0147019
0.0147416
0.0147889
0.0148432
0.0149001
0.0149541
0.0150017
0.0150412
0.0150726
0.0150964
0.0151134
0.0151243
0.0151297
0.014412
0.0144151
0.014422
0.0144291
0.014404
0.0144117
0.0144113
0.0144137
0.0144278
0.0144531
0.0144244
0.0144305
0.0144351
0.0144396
0.0144409
0.014443
0.014436
0.0144302
0.0144413
0.0144516
0.0144595
0.0144647
0.0144691
0.0144718
0.0144738
0.0144222
0.0144377
0.0144541
0.0144669
0.014478
0.0144879
0.0144962
0.0145031
0.014508
0.0145108
0.0144219
0.0144396
0.0144598
0.0144764
0.0144915
0.0145064
0.0145206
0.0145334
0.0145439
0.0145515
0.0145555
0.0144353
0.0144372
0.0144595
0.0144796
0.0144988
0.0145187
0.0145391
0.0145587
0.014576
0.01459
0.0145998
0.0146049
0.0144267
0.0144292
0.0144533
0.0144758
0.0144985
0.0145229
0.014549
0.0145752
0.0145996
0.0146207
0.0146372
0.0146485
0.0146543
0.0144517
0.01444
0.0144658
0.0144907
0.0145181
0.0145487
0.0145808
0.0146119
0.01464
0.0146634
0.0146814
0.0146935
0.0146997
0.0144202
0.0144226
0.01445
0.0144767
0.0145053
0.0145383
0.0145747
0.0146117
0.0146464
0.0146767
0.0147015
0.0147201
0.0147325
0.0147387
0.0144271
0.0144285
0.0144576
0.0144863
0.0145193
0.0145577
0.0145989
0.0146395
0.0146765
0.014708
0.0147333
0.0147521
0.0147644
0.0147706
0.0144016
0.0144328
0.0144627
0.0144944
0.0145319
0.0145748
0.0146198
0.0146628
0.0147011
0.0147331
0.0147584
0.014777
0.0147892
0.0147953
0.0144092
0.0144372
0.0144669
0.0145012
0.0145423
0.0145887
0.0146362
0.0146806
0.0147196
0.0147517
0.0147769
0.0147953
0.0148073
0.0148132
0.0144095
0.0144086
0.0144384
0.0144695
0.014506
0.0145498
0.0145984
0.0146474
0.0146927
0.0147318
0.014764
0.014789
0.0148072
0.0148191
0.0148249
0.0144125
0.014411
0.0144405
0.0144715
0.0145088
0.0145537
0.0146034
0.0146531
0.0146987
0.014738
0.01477
0.0147949
0.014813
0.0148248
0.0148306
0.0141673
0.0141704
0.0141805
0.0141876
0.0141652
0.0141698
0.0141664
0.014169
0.0141872
0.014212
0.0141839
0.0141874
0.0141889
0.0141902
0.0141894
0.014191
0.0141968
0.0141924
0.0141994
0.0142052
0.0142089
0.0142102
0.0142109
0.0142112
0.0142122
0.014188
0.0141985
0.01421
0.0142172
0.0142227
0.0142274
0.0142312
0.0142345
0.014237
0.0142387
0.0141877
0.0141985
0.014214
0.0142241
0.0142325
0.014241
0.0142497
0.014258
0.0142652
0.0142706
0.0142736
0.0141959
0.014198
0.0142136
0.0142265
0.0142378
0.0142502
0.0142641
0.0142784
0.0142918
0.014303
0.014311
0.0143153
0.0141859
0.0141912
0.014209
0.0142235
0.0142374
0.0142533
0.0142719
0.0142921
0.014312
0.0143299
0.0143443
0.0143544
0.0143596
0.0142103
0.0141978
0.0142159
0.0142315
0.0142496
0.0142716
0.0142967
0.0143227
0.0143472
0.0143684
0.014385
0.0143963
0.0144021
0.0141783
0.0141816
0.0142032
0.0142211
0.0142397
0.0142631
0.0142915
0.0143225
0.014353
0.0143808
0.014404
0.0144219
0.0144339
0.01444
0.014185
0.0141849
0.0142066
0.0142255
0.0142481
0.0142772
0.0143112
0.0143467
0.0143805
0.0144103
0.0144347
0.0144532
0.0144656
0.0144718
0.0141623
0.0141861
0.0142077
0.014229
0.0142562
0.0142904
0.0143288
0.0143676
0.0144036
0.0144345
0.0144596
0.0144783
0.0144907
0.0144969
0.0141667
0.0141873
0.0142082
0.0142322
0.0142632
0.0143014
0.0143431
0.0143841
0.0144213
0.0144529
0.0144781
0.0144969
0.0145093
0.0145154
0.0141642
0.0141632
0.0141863
0.0142084
0.0142346
0.0142685
0.0143094
0.014353
0.0143953
0.0144332
0.0144651
0.0144904
0.0145091
0.0145215
0.0145276
0.0141673
0.0141658
0.014188
0.0142095
0.0142362
0.0142715
0.0143136
0.0143582
0.014401
0.0144392
0.0144712
0.0144965
0.0145152
0.0145275
0.0145336
0.0139245
0.0139281
0.0139428
0.0139519
0.0139391
0.0139376
0.0139294
0.0139328
0.0139507
0.0139786
0.0139536
0.0139534
0.0139505
0.0139472
0.0139434
0.0139448
0.0139644
0.0139669
0.0139671
0.0139661
0.0139643
0.0139606
0.013957
0.0139544
0.0139546
0.0139765
0.0139693
0.0139731
0.0139731
0.0139718
0.0139706
0.0139696
0.0139691
0.0139691
0.0139698
0.0139763
0.0139643
0.0139741
0.0139765
0.0139771
0.0139787
0.0139818
0.0139857
0.0139897
0.0139931
0.0139952
0.0139635
0.0139687
0.0139737
0.0139779
0.0139801
0.0139846
0.0139921
0.0140014
0.0140111
0.0140198
0.0140263
0.0140298
0.0139492
0.0139655
0.013972
0.0139757
0.0139798
0.0139867
0.0139979
0.0140124
0.0140282
0.0140431
0.0140556
0.0140646
0.0140693
0.0139765
0.0139651
0.0139716
0.0139759
0.0139839
0.0139975
0.0140161
0.0140374
0.0140586
0.0140776
0.0140929
0.0141035
0.014109
0.0139399
0.0139508
0.0139637
0.0139698
0.0139772
0.013991
0.0140117
0.0140371
0.0140638
0.0140891
0.0141108
0.0141279
0.0141396
0.0141455
0.0139486
0.0139501
0.0139615
0.0139683
0.0139799
0.014
0.0140272
0.014058
0.0140888
0.0141168
0.0141403
0.0141584
0.0141706
0.0141768
0.0139353
0.013947
0.0139575
0.013967
0.0139836
0.0140094
0.0140419
0.0140767
0.0141103
0.0141401
0.0141647
0.0141833
0.0141958
0.014202
0.0139337
0.0139436
0.0139537
0.0139663
0.0139874
0.0140179
0.0140542
0.0140918
0.0141272
0.014158
0.0141831
0.014202
0.0142146
0.0142209
0.0139206
0.0139254
0.0139397
0.0139511
0.0139662
0.0139907
0.0140243
0.014063
0.0141023
0.0141387
0.0141701
0.0141954
0.0142144
0.014227
0.0142333
0.0139242
0.0139288
0.0139411
0.0139512
0.0139669
0.0139928
0.0140278
0.0140677
0.0141077
0.0141446
0.0141762
0.0142016
0.0142206
0.0142332
0.0142395
0.0136747
0.0136801
0.0137009
0.0137192
0.0137323
0.0137141
0.0136973
0.0137035
0.0137107
0.013753
0.0137335
0.0137267
0.0137168
0.0137061
0.013698
0.0136996
0.0137381
0.0137543
0.0137414
0.0137291
0.0137193
0.0137093
0.0137008
0.0136953
0.0136948
0.0138134
0.0137535
0.0137366
0.0137274
0.0137183
0.0137107
0.0137048
0.0137009
0.0136989
0.013699
0.0138136
0.0137421
0.0137355
0.0137259
0.013718
0.013713
0.0137111
0.0137113
0.013713
0.013715
0.0137165
0.0137372
0.0137529
0.0137351
0.0137268
0.0137188
0.0137158
0.0137178
0.0137232
0.0137302
0.0137371
0.0137426