/*--------------------------------*- C++ -*----------------------------------*\
| =========                 |                                                 |
| \\      /  F ield         | OpenFOAM: The Open Source CFD Toolbox           |
|  \\    /   O peration     | Version:  2.1.1                                 |
|   \\  /    A nd           | Web:      www.OpenFOAM.org                      |
|    \\/     M anipulation  |                                                 |
\*---------------------------------------------------------------------------*/
FoamFile
{
    version     2.0;
    format      ascii;
    class       volScalarField;
    location    "0.105";
    object      p;
}
// * * * * * * * * * * * * * * * * * * * * * * * * * * * * * * * * * * * * * //

dimensions      [0 2 -2 0 0 0 0];

internalField   nonuniform List<scalar> 
163952
(
0.0416861
0.0411099
0.0363737
0.031179
0.0299823
0.0273709
0.0267809
0.0264572
0.0366938
0.0323517
0.0273102
0.0248206
0.023577
0.0227981
0.0224838
0.0223426
0.0337249
0.0279881
0.0244844
0.0228448
0.0219323
0.0213944
0.0210558
0.0208756
0.0207901
0.0335947
0.0260959
0.0232616
0.021915
0.0211598
0.0206811
0.0203615
0.0201499
0.0200238
0.0199603
0.0335959
0.0255539
0.0227373
0.0214591
0.0207443
0.0202806
0.0199567
0.0197259
0.0195665
0.019466
0.0194136
0.0337252
0.0260959
0.0227373
0.0213156
0.0205531
0.0200644
0.019719
0.0194651
0.0192785
0.0191465
0.019061
0.0190156
0.0366935
0.027988
0.0232615
0.0214591
0.0205531
0.0199948
0.0196066
0.01932
0.0191043
0.0189438
0.0188289
0.0187535
0.018713
0.0323518
0.0244844
0.021915
0.0207443
0.0200644
0.0196066
0.019273
0.0190214
0.0188301
0.0186869
0.0185838
0.0185156
0.0184788
0.0363738
0.0273103
0.0228448
0.0211598
0.0202806
0.019719
0.01932
0.0190214
0.0187934
0.0186191
0.0184881
0.0183935
0.0183306
0.0182966
0.0311791
0.0248206
0.0219323
0.0206811
0.0199567
0.0194651
0.0191044
0.0188301
0.0186191
0.0184572
0.018335
0.0182465
0.0181875
0.0181556
0.0299823
0.023577
0.0213945
0.0203615
0.0197259
0.0192786
0.0189438
0.0186869
0.0184881
0.018335
0.0182192
0.0181351
0.0180789
0.0180485
0.027371
0.0227981
0.0210558
0.0201499
0.0195665
0.0191465
0.0188289
0.0185838
0.0183935
0.0182465
0.0181351
0.018054
0.0179999
0.0179704
0.0416862
0.0267809
0.0224838
0.0208756
0.0200238
0.019466
0.019061
0.0187535
0.0185156
0.0183306
0.0181875
0.0180789
0.0179999
0.017947
0.0179183
0.0411099
0.0264572
0.0223426
0.0207901
0.0199603
0.0194136
0.0190156
0.018713
0.0184788
0.0182966
0.0181555
0.0180485
0.0179704
0.0179182
0.0178899
0.0235122
0.023569
0.0225068
0.0237161
0.0224472
0.0221331
0.0220883
0.0220674
0.0226115
0.0244255
0.0221127
0.0218005
0.02154
0.0213492
0.0212745
0.0212228
0.0233897
0.0221645
0.0217466
0.0213348
0.020994
0.0207155
0.0205308
0.0204347
0.0203852
0.022134
0.0218437
0.0214066
0.0209654
0.0205727
0.0202615
0.0200254
0.0198657
0.0197736
0.0197293
0.0221347
0.0217145
0.0212225
0.0207186
0.0202917
0.0199493
0.0196898
0.0194986
0.0193668
0.0192866
0.0192481
0.0233898
0.021844
0.0212225
0.0206386
0.0201498
0.0197719
0.0194827
0.0192649
0.0191042
0.0189919
0.0189216
0.0188877
0.0226116
0.0221646
0.0214066
0.0207186
0.0201498
0.0197133
0.0193839
0.0191336
0.0189443
0.018804
0.018705
0.0186422
0.0186116
0.0244255
0.0217467
0.0209654
0.0202917
0.0197719
0.0193839
0.0190911
0.018868
0.0186985
0.0185723
0.0184827
0.0184254
0.0183974
0.0225068
0.0221127
0.0213348
0.0205727
0.0199493
0.0194827
0.0191336
0.018868
0.0186643
0.0185089
0.0183926
0.0183098
0.0182565
0.0182304
0.0237161
0.0218006
0.0209941
0.0202616
0.0196898
0.0192649
0.0189443
0.0186985
0.0185089
0.0183634
0.0182543
0.0181763
0.018126
0.0181014
0.0224472
0.02154
0.0207155
0.0200254
0.0194986
0.0191042
0.018804
0.0185723
0.0183926
0.0182543
0.0181503
0.0180757
0.0180276
0.018004
0.0221331
0.0213493
0.0205308
0.0198657
0.0193668
0.0189919
0.018705
0.0184827
0.0183098
0.0181763
0.0180757
0.0180035
0.0179569
0.017934
0.0235122
0.0220883
0.0212745
0.0204347
0.0197736
0.0192866
0.0189216
0.0186422
0.0184253
0.0182565
0.018126
0.0180276
0.0179569
0.0179112
0.0178888
0.023569
0.0220675
0.0212228
0.0203853
0.0197293
0.0192481
0.0188876
0.0186116
0.0183974
0.0182304
0.0181014
0.0180039
0.017934
0.0178887
0.0178665
0.0198685
0.0198828
0.0199476
0.0203295
0.020553
0.0204374
0.0203299
0.0202893
0.0199543
0.0207982
0.0203481
0.0202701
0.0201753
0.0201366
0.0201072
0.0200819
0.0201647
0.0203618
0.0202615
0.020141
0.0200044
0.01986
0.0197687
0.0197137
0.0196833
0.0205118
0.0202949
0.0201698
0.01999
0.0197981
0.0196323
0.0194926
0.0193926
0.0193303
0.0192991
0.0205125
0.0202497
0.0200968
0.0198752
0.0196504
0.0194479
0.0192818
0.0191506
0.019056
0.0189961
0.0189665
0.0201647
0.0202951
0.0200968
0.0198374
0.0195716
0.0193381
0.0191417
0.0189835
0.0188609
0.0187725
0.0187159
0.0186881
0.0199544
0.0203619
0.0201699
0.0198753
0.0195716
0.0193007
0.0190724
0.0188852
0.0187362
0.0186219
0.0185394
0.0184862
0.0184601
0.0207983
0.0202616
0.0199901
0.0196504
0.0193381
0.0190724
0.0188528
0.0186751
0.0185348
0.0184276
0.0183502
0.0183002
0.0182756
0.0199476
0.0203481
0.0201411
0.0197981
0.0194479
0.0191417
0.0188852
0.0186751
0.0185063
0.0183734
0.018272
0.0181987
0.0181513
0.0181279
0.0203295
0.0202701
0.0200044
0.0196324
0.0192818
0.0189836
0.0187362
0.0185348
0.0183734
0.0182464
0.0181495
0.0180795
0.0180341
0.0180117
0.0205531
0.0201753
0.01986
0.0194926
0.0191506
0.0188609
0.0186219
0.0184276
0.018272
0.0181495
0.0180561
0.0179885
0.0179446
0.0179229
0.0204374
0.0201366
0.0197687
0.0193926
0.019056
0.0187725
0.0185394
0.0183502
0.0181987
0.0180795
0.0179885
0.0179226
0.0178798
0.0178587
0.0198685
0.0203299
0.0201073
0.0197137
0.0193303
0.0189961
0.0187159
0.0184862
0.0183002
0.0181512
0.0180341
0.0179446
0.0178798
0.0178377
0.0178169
0.0198829
0.0202894
0.0200819
0.0196833
0.0192991
0.0189665
0.0186881
0.0184601
0.0182756
0.0181279
0.0180117
0.0179229
0.0178587
0.0178169
0.0177963
0.0185213
0.0185316
0.0186384
0.0188654
0.0191963
0.019196
0.0191436
0.0191216
0.0186532
0.0190791
0.0191192
0.0191068
0.0190775
0.019079
0.0190778
0.0190743
0.0187941
0.019123
0.0191106
0.0191036
0.0190749
0.0190233
0.0189876
0.0189622
0.018948
0.0192264
0.0191264
0.0191204
0.0190702
0.0190041
0.01894
0.0188773
0.0188275
0.0187929
0.0187746
0.0192269
0.0191067
0.0191017
0.0190388
0.0189494
0.0188562
0.0187705
0.018696
0.018639
0.0186009
0.0185815
0.0187941
0.0191265
0.0191017
0.0190275
0.0189188
0.0188028
0.0186926
0.0185956
0.0185153
0.0184549
0.0184149
0.018395
0.0186533
0.0191231
0.0191205
0.0190388
0.0189189
0.0187842
0.0186523
0.0185328
0.0184312
0.0183492
0.0182881
0.0182478
0.0182278
0.0190792
0.0191106
0.0190703
0.0189494
0.0188028
0.0186523
0.0185117
0.0183884
0.0182856
0.018204
0.0181436
0.0181038
0.0180841
0.0186384
0.0191192
0.0191036
0.0190042
0.0188562
0.0186926
0.0185329
0.0183884
0.0182644
0.0181623
0.0180818
0.0180225
0.0179835
0.0179642
0.0188655
0.0191068
0.019075
0.01894
0.0187705
0.0185957
0.0184312
0.0182856
0.0181623
0.0180614
0.0179824
0.0179242
0.017886
0.0178671
0.0191964
0.0190776
0.0190233
0.0188773
0.018696
0.0185154
0.0183492
0.018204
0.0180818
0.0179824
0.0179046
0.0178475
0.01781
0.0177914
0.019196
0.019079
0.0189876
0.0188275
0.018639
0.0184549
0.0182881
0.0181436
0.0180225
0.0179242
0.0178475
0.0177912
0.0177543
0.017736
0.0185213
0.0191436
0.0190778
0.0189623
0.0187929
0.0186009
0.018415
0.0182479
0.0181038
0.0179835
0.017886
0.01781
0.0177542
0.0177177
0.0176996
0.0185317
0.0191216
0.0190743
0.018948
0.0187746
0.0185815
0.018395
0.0182278
0.0180841
0.0179642
0.0178671
0.0177914
0.0177359
0.0176996
0.0176815
0.0178033
0.0178115
0.0178642
0.0180129
0.0182293
0.0182728
0.0182632
0.0182616
0.0178891
0.0181215
0.0182294
0.0182485
0.018254
0.0182665
0.0182747
0.0182793
0.017979
0.0182308
0.0182571
0.0182902
0.0183087
0.0183082
0.0183053
0.0182993
0.018295
0.0182633
0.0182528
0.0182967
0.0183101
0.0183105
0.018303
0.0182877
0.0182717
0.018258
0.0182501
0.0182636
0.0182475
0.0183036
0.0183191
0.0183068
0.0182817
0.0182504
0.0182176
0.0181899
0.0181699
0.0181594
0.017979
0.0182529
0.0183035
0.0183217
0.0183038
0.0182649
0.0182173
0.0181686
0.0181241
0.0180885
0.0180639
0.0180513
0.0178892
0.0182308
0.0182968
0.0183191
0.0183039
0.0182588
0.0181987
0.0181349
0.018075
0.0180234
0.0179832
0.0179559
0.0179421
0.0181216
0.0182571
0.0183102
0.0183068
0.0182649
0.0181987
0.0181232
0.0180489
0.0179822
0.0179264
0.0178837
0.017855
0.0178405
0.0178642
0.0182295
0.0182903
0.0183105
0.0182818
0.0182173
0.0181349
0.0180489
0.0179681
0.0178974
0.0178393
0.0177953
0.0177658
0.0177511
0.0180129
0.0182486
0.0183087
0.018303
0.0182504
0.0181686
0.018075
0.0179822
0.0178974
0.0178244
0.0177652
0.0177206
0.0176908
0.0176759
0.0182293
0.0182541
0.0183083
0.0182877
0.0182176
0.0181241
0.0180234
0.0179264
0.0178393
0.0177652
0.0177054
0.0176606
0.0176307
0.0176158
0.0182728
0.0182665
0.0183053
0.0182717
0.0181899
0.0180885
0.0179833
0.0178837
0.0177953
0.0177206
0.0176606
0.0176156
0.0175857
0.0175708
0.0178033
0.0182632
0.0182747
0.0182993
0.018258
0.0181699
0.0180639
0.0179559
0.017855
0.0177658
0.0176908
0.0176307
0.0175857
0.0175559
0.017541
0.0178115
0.0182617
0.0182793
0.018295
0.0182501
0.0181594
0.0180513
0.0179421
0.0178405
0.0177511
0.0176759
0.0176158
0.0175708
0.017541
0.0175261
0.0172931
0.0172998
0.0173123
0.0174051
0.0175303
0.0175807
0.0175858
0.0175919
0.0173343
0.0174783
0.0175603
0.0175913
0.0176127
0.0176321
0.0176427
0.0176488
0.0173892
0.0175606
0.0176022
0.0176463
0.0176803
0.0177011
0.017715
0.0177208
0.0177226
0.0175612
0.0175879
0.0176462
0.0176848
0.0177141
0.017734
0.0177442
0.0177486
0.0177489
0.0177483
0.0175614
0.0175922
0.0176629
0.017709
0.0177346
0.0177476
0.0177501
0.0177455
0.0177388
0.0177326
0.0177289
0.0173892
0.017588
0.0176628
0.0177175
0.0177453
0.0177527
0.017747
0.0177334
0.0177166
0.017701
0.0176892
0.0176829
0.0173344
0.0175607
0.0176462
0.017709
0.0177453
0.0177542
0.0177435
0.0177218
0.0176954
0.0176694
0.0176474
0.0176317
0.0176236
0.0174783
0.0176022
0.0176848
0.0177346
0.0177527
0.0177435
0.0177173
0.017683
0.0176473
0.0176147
0.0175883
0.01757
0.0175606
0.0173123
0.0175603
0.0176463
0.0177141
0.0177476
0.017747
0.0177218
0.017683
0.0176394
0.0175971
0.0175602
0.0175309
0.0175108
0.0175006
0.0174052
0.0175913
0.0176804
0.017734
0.0177501
0.0177334
0.0176954
0.0176473
0.0175971
0.0175504
0.0175105
0.0174794
0.0174581
0.0174474
0.0175303
0.0176127
0.0177011
0.0177443
0.0177456
0.0177166
0.0176694
0.0176147
0.0175602
0.0175105
0.0174687
0.0174363
0.0174144
0.0174033
0.0175807
0.0176321
0.0177151
0.0177487
0.0177389
0.017701
0.0176474
0.0175884
0.0175309
0.0174794
0.0174363
0.0174032
0.0173808
0.0173695
0.0172931
0.0175859
0.0176428
0.0177208
0.017749
0.0177326
0.0176892
0.0176317
0.01757
0.0175108
0.0174581
0.0174144
0.0173808
0.0173581
0.0173467
0.0172999
0.017592
0.0176488
0.0177227
0.0177483
0.017729
0.0176829
0.0176236
0.0175606
0.0175006
0.0174474
0.0174033
0.0173695
0.0173467
0.0173353
0.0168597
0.0168672
0.0168598
0.0169196
0.0169865
0.0170326
0.0170418
0.0170496
0.0168777
0.0169789
0.0170262
0.0170576
0.0170828
0.0171057
0.0171179
0.0171247
0.0169121
0.0170262
0.0170697
0.0171139
0.0171504
0.0171773
0.0171981
0.0172099
0.0172152
0.0170132
0.0170518
0.0171104
0.0171562
0.0171956
0.0172271
0.0172497
0.0172651
0.0172737
0.0172774
0.0170134
0.0170594
0.0171288
0.017184
0.0172262
0.0172585
0.0172803
0.0172934
0.0173007
0.0173041
0.0173053
0.0169121
0.0170518
0.0171287
0.017194
0.0172425
0.0172757
0.0172961
0.0173061
0.0173091
0.0173085
0.0173068
0.0173054
0.0168778
0.0170262
0.0171104
0.017184
0.0172426
0.0172814
0.0173025
0.0173102
0.0173089
0.0173029
0.0172957
0.0172897
0.0172863
0.016979
0.0170698
0.0171562
0.0172262
0.0172757
0.0173026
0.017311
0.017307
0.0172962
0.017283
0.0172707
0.0172614
0.0172565
0.0168598
0.0170262
0.0171139
0.0171956
0.0172585
0.0172961
0.0173102
0.017307
0.0172934
0.0172752
0.0172565
0.0172405
0.0172289
0.0172228
0.0169197
0.0170576
0.0171505
0.0172271
0.0172803
0.0173062
0.0173089
0.0172962
0.0172752
0.0172514
0.0172289
0.0172101
0.0171969
0.01719
0.0169866
0.0170829
0.0171774
0.0172497
0.0172934
0.0173091
0.0173029
0.017283
0.0172565
0.0172289
0.0172036
0.017183
0.0171686
0.0171612
0.0170327
0.0171058
0.0171982
0.0172652
0.0173008
0.0173086
0.0172957
0.0172707
0.0172405
0.0172101
0.017183
0.0171612
0.017146
0.0171383
0.0168597
0.0170418
0.017118
0.0172099
0.0172737
0.0173041
0.0173068
0.0172897
0.0172614
0.0172289
0.0171969
0.0171686
0.017146
0.0171304
0.0171225
0.0168673
0.0170496
0.0171247
0.0172153
0.0172775
0.0173053
0.0173055
0.0172863
0.0172565
0.0172228
0.01719
0.0171612
0.0171383
0.0171225
0.0171144
0.0164696
0.0164776
0.0164663
0.0165057
0.0165376
0.016576
0.0165859
0.0165935
0.0164796
0.0165568
0.0165782
0.0166059
0.0166295
0.0166522
0.0166648
0.0166719
0.0165026
0.0165781
0.0166182
0.0166585
0.0166928
0.0167197
0.0167419
0.0167558
0.0167626
0.01656
0.0165996
0.0166536
0.0166989
0.0167398
0.0167747
0.0168021
0.0168226
0.0168353
0.0168414
0.0165601
0.0166074
0.0166706
0.0167258
0.0167732
0.0168136
0.0168452
0.0168681
0.0168839
0.0168933
0.0168977
0.0165026
0.0165997
0.0166705
0.0167355
0.0167912
0.0168366
0.0168716
0.0168962
0.0169122
0.0169219
0.0169273
0.0169296
0.0164797
0.0165781
0.0166536
0.0167258
0.0167912
0.0168445
0.0168839
0.0169105
0.0169265
0.0169351
0.016939
0.0169405
0.0169408
0.0165569
0.0166183
0.016699
0.0167732
0.0168367
0.0168839
0.0169148
0.0169322
0.01694
0.0169419
0.0169408
0.016939
0.0169378
0.0164664
0.0165783
0.0166585
0.0167398
0.0168136
0.0168716
0.0169105
0.0169322
0.0169411
0.0169418
0.0169382
0.0169333
0.0169289
0.0169265
0.0165057
0.0166059
0.0166929
0.0167747
0.0168452
0.0168962
0.0169265
0.01694
0.0169419
0.0169369
0.0169291
0.0169211
0.0169149
0.0169115
0.0165377
0.0166295
0.0167197
0.0168021
0.0168682
0.0169122
0.0169351
0.0169419
0.0169382
0.0169291
0.0169182
0.016908
0.0169004
0.0168964
0.0165761
0.0166523
0.0167419
0.0168226
0.0168839
0.016922
0.016939
0.0169408
0.0169333
0.0169212
0.016908
0.0168964
0.0168879
0.0168834
0.0164696
0.0165859
0.0166649
0.0167558
0.0168354
0.0168933
0.0169273
0.0169405
0.016939
0.0169289
0.0169149
0.0169004
0.0168879
0.0168787
0.016874
0.0164776
0.0165936
0.0166719
0.0167626
0.0168415
0.0168977
0.0169296
0.0169409
0.0169378
0.0169265
0.0169115
0.0168964
0.0168834
0.016874
0.0168691
0.0161142
0.0161218
0.0161129
0.0161393
0.0161508
0.0161815
0.0161906
0.0161973
0.0161227
0.0161842
0.0161885
0.0162117
0.0162322
0.0162528
0.0162645
0.0162712
0.0161393
0.0161885
0.0162236
0.0162589
0.0162894
0.016314
0.016335
0.0163488
0.0163558
0.0161697
0.0162062
0.0162537
0.0162955
0.0163339
0.0163681
0.016396
0.0164179
0.0164322
0.0164393
0.0161698
0.0162132
0.0162686
0.0163198
0.0163665
0.0164085
0.0164437
0.0164712
0.0164912
0.016504
0.0165102
0.0161394
0.0162063
0.0162686
0.0163286
0.016384
0.0164335
0.0164751
0.0165075
0.0165312
0.0165474
0.0165574
0.0165621
0.0161227
0.0161885
0.0162538
0.0163198
0.016384
0.0164421
0.0164904
0.0165278
0.0165548
0.0165731
0.0165849
0.0165917
0.0165948
0.0161843
0.0162237
0.0162955
0.0163665
0.0164335
0.0164905
0.0165343
0.0165655
0.0165862
0.016599
0.0166065
0.0166104
0.0166121
0.016113
0.0161886
0.016259
0.016334
0.0164085
0.0164751
0.0165278
0.0165655
0.0165902
0.0166049
0.0166128
0.0166166
0.0166181
0.0166186
0.0161394
0.0162118
0.0162895
0.0163681
0.0164438
0.0165075
0.0165548
0.0165862
0.0166049
0.0166145
0.0166185
0.0166193
0.016619
0.0166185
0.0161508
0.0162323
0.016314
0.0163961
0.0164712
0.0165312
0.0165731
0.0165991
0.0166129
0.0166185
0.0166194
0.016618
0.0166162
0.016615
0.0161816
0.0162529
0.016335
0.0164179
0.0164913
0.0165475
0.0165849
0.0166065
0.0166166
0.0166193
0.016618
0.016615
0.0166122
0.0166106
0.0161142
0.0161907
0.0162646
0.0163488
0.0164322
0.016504
0.0165574
0.0165917
0.0166105
0.0166182
0.016619
0.0166162
0.0166122
0.0166087
0.0166068
0.0161217
0.0161974
0.0162713
0.0163559
0.0164393
0.0165102
0.0165621
0.0165948
0.0166121
0.0166186
0.0166185
0.016615
0.0166105
0.0166068
0.0166046
0.0157881
0.0157946
0.0157891
0.0158074
0.0158062
0.0158307
0.0158385
0.015844
0.0157966
0.0158469
0.0158398
0.0158591
0.0158764
0.0158941
0.0159044
0.0159104
0.0158096
0.01584
0.0158702
0.0159005
0.0159269
0.0159484
0.0159672
0.0159798
0.0159864
0.0158227
0.0158548
0.0158958
0.0159327
0.0159673
0.0159986
0.0160248
0.016046
0.0160602
0.0160674
0.0158227
0.015861
0.0159087
0.0159541
0.0159972
0.0160374
0.0160724
0.0161009
0.0161224
0.0161366
0.0161436
0.0158096
0.0158549
0.0159087
0.0159619
0.0160135
0.016062
0.0161051
0.0161406
0.016168
0.0161878
0.0162004
0.0162066
0.0157967
0.0158401
0.0158959
0.0159541
0.0160135
0.0160705
0.0161215
0.0161639
0.0161969
0.0162211
0.0162379
0.0162483
0.0162532
0.015847
0.0158702
0.0159328
0.0159972
0.016062
0.0161215
0.0161715
0.0162106
0.0162395
0.0162597
0.0162731
0.0162812
0.0162849
0.0157892
0.0158399
0.0159006
0.0159673
0.0160374
0.0161051
0.0161639
0.0162106
0.0162453
0.0162696
0.0162859
0.0162962
0.0163022
0.0163049
0.0158075
0.0158592
0.015927
0.0159986
0.0160725
0.0161406
0.0161969
0.0162395
0.0162696
0.0162898
0.0163026
0.0163103
0.0163145
0.0163164
0.0158063
0.0158765
0.0159485
0.0160249
0.016101
0.0161681
0.0162212
0.0162597
0.0162859
0.0163026
0.0163127
0.0163183
0.0163212
0.0163223
0.0158308
0.0158942
0.0159673
0.016046
0.0161225
0.0161878
0.0162379
0.0162731
0.0162962
0.0163103
0.0163183
0.0163224
0.0163243
0.016325
0.015788
0.0158386
0.0159045
0.0159799
0.0160603
0.0161367
0.0162005
0.0162483
0.0162812
0.0163022
0.0163145
0.0163212
0.0163243
0.0163255
0.0163259
0.0157946
0.0158441
0.0159105
0.0159865
0.0160675
0.0161437
0.0162066
0.0162532
0.0162849
0.0163049
0.0163164
0.0163223
0.016325
0.0163259
0.0163261
0.0154855
0.015491
0.0154883
0.0155017
0.0154916
0.0155113
0.0155177
0.0155222
0.0154943
0.0155362
0.0155212
0.0155371
0.0155516
0.0155664
0.015575
0.0155802
0.0155051
0.0155218
0.0155474
0.0155731
0.0155956
0.015614
0.0156301
0.0156411
0.015647
0.0155065
0.0155344
0.0155693
0.0156012
0.0156313
0.0156589
0.0156824
0.0157017
0.0157149
0.0157217
0.0155066
0.0155397
0.0155804
0.0156198
0.015658
0.0156945
0.0157272
0.0157545
0.0157757
0.0157899
0.015797
0.0155051
0.0155344
0.0155804
0.0156265
0.0156726
0.0157175
0.0157589
0.0157943
0.0158227
0.0158438
0.0158576
0.0158644
0.0154944
0.0155219
0.0155694
0.0156198
0.0156726
0.0157255
0.0157752
0.0158184
0.0158538
0.0158809
0.0159004
0.0159129
0.015919
0.0155363
0.0155474
0.0156013
0.0156581
0.0157175
0.0157752
0.0158265
0.015869
0.0159023
0.0159269
0.0159441
0.0159549
0.0159601
0.0154884
0.0155213
0.0155732
0.0156314
0.0156945
0.0157589
0.0158185
0.015869
0.0159092
0.0159395
0.0159613
0.015976
0.0159851
0.0159895
0.0155018
0.0155373
0.0155957
0.015659
0.0157273
0.0157944
0.0158538
0.0159023
0.0159395
0.0159667
0.0159857
0.0159984
0.016006
0.0160096
0.0154918
0.0155517
0.0156141
0.0156825
0.0157546
0.0158228
0.015881
0.015927
0.0159613
0.0159857
0.0160025
0.0160133
0.0160198
0.0160228
0.0155115
0.0155666
0.0156302
0.0157018
0.0157758
0.0158439
0.0159005
0.0159442
0.0159761
0.0159984
0.0160133
0.0160229
0.0160285
0.016031
0.0154855
0.0155178
0.0155752
0.0156412
0.015715
0.01579
0.0158577
0.0159129
0.0159549
0.0159852
0.016006
0.0160198
0.0160285
0.0160335
0.0160357
0.015491
0.0155224
0.0155803
0.0156471
0.0157218
0.0157971
0.0158645
0.015919
0.0159601
0.0159895
0.0160096
0.0160228
0.016031
0.0160357
0.0160378
0.0152013
0.0152059
0.0152054
0.0152159
0.0151993
0.0152153
0.0152202
0.015224
0.0152105
0.015246
0.0152253
0.0152385
0.0152505
0.0152627
0.0152696
0.0152739
0.0152199
0.0152265
0.015248
0.0152697
0.0152885
0.0153039
0.0153173
0.0153265
0.0153315
0.0152133
0.0152373
0.015267
0.015294
0.0153196
0.0153432
0.0153635
0.0153803
0.0153919
0.015398
0.0152134
0.015242
0.0152766
0.0153101
0.015343
0.0153749
0.0154041
0.0154289
0.0154485
0.0154619
0.0154687
0.0152199
0.0152374
0.0152765
0.0153159
0.0153557
0.0153956
0.0154334
0.0154668
0.0154942
0.015515
0.0155288
0.0155357
0.0152106
0.0152265
0.015267
0.0153101
0.0153558
0.0154029
0.0154487
0.0154902
0.0155253
0.0155531
0.0155736
0.0155869
0.0155935
0.0152461
0.0152481
0.0152941
0.015343
0.0153957
0.0154487
0.0154981
0.0155408
0.0155756
0.0156024
0.0156216
0.0156339
0.0156399
0.0152055
0.0152254
0.0152698
0.0153197
0.0153749
0.0154335
0.0154902
0.0155409
0.015583
0.0156163
0.0156413
0.0156589
0.01567
0.0156754
0.0152161
0.0152387
0.0152887
0.0153433
0.0154042
0.0154668
0.0155253
0.0155757
0.0156164
0.0156477
0.0156707
0.0156867
0.0156967
0.0157015
0.0151995
0.0152506
0.015304
0.0153637
0.015429
0.0154942
0.0155531
0.0156024
0.0156413
0.0156707
0.015692
0.0157065
0.0157156
0.0157199
0.0152155
0.0152629
0.0153174
0.0153804
0.0154487
0.015515
0.0155736
0.0156216
0.0156589
0.0156867
0.0157065
0.01572
0.0157283
0.0157323
0.0152014
0.0152204
0.0152698
0.0153266
0.0153921
0.015462
0.0155289
0.015587
0.015634
0.01567
0.0156967
0.0157156
0.0157283
0.0157362
0.0157399
0.015206
0.0152242
0.0152741
0.0153317
0.0153981
0.0154688
0.0155358
0.0155936
0.01564
0.0156754
0.0157015
0.0157199
0.0157323
0.0157399
0.0157434
0.0149314
0.0149353
0.0149365
0.0149457
0.0149241
0.0149371
0.0149407
0.0149439
0.0149412
0.0149719
0.0149471
0.0149581
0.0149678
0.0149776
0.0149829
0.0149865
0.0149497
0.014949
0.0149671
0.0149852
0.0150006
0.015013
0.0150238
0.0150311
0.0150352
0.0149379
0.0149586
0.0149836
0.0150061
0.0150273
0.0150469
0.0150637
0.0150777
0.0150875
0.0150927
0.014938
0.0149628
0.0149919
0.0150199
0.0150474
0.0150743
0.0150993
0.015121
0.0151383
0.0151502
0.0151563
0.0149498
0.0149587
0.0149919
0.0150249
0.0150584
0.0150925
0.0151256
0.0151555
0.0151806
0.0152
0.0152132
0.0152198
0.0149414
0.0149491
0.0149837
0.0150199
0.0150584
0.0150989
0.0151394
0.0151773
0.0152103
0.0152371
0.0152573
0.0152706
0.0152773
0.014972
0.0149672
0.0150062
0.0150475
0.0150925
0.0151395
0.0151847
0.0152254
0.0152595
0.0152866
0.0153064
0.0153194
0.0153258
0.0149366
0.0149473
0.0149853
0.0150274
0.0150744
0.0151256
0.0151773
0.0152254
0.015267
0.015301
0.0153273
0.0153463
0.0153586
0.0153646
0.0149459
0.0149583
0.0150008
0.015047
0.0150994
0.0151556
0.0152103
0.0152596
0.0153011
0.0153342
0.0153594
0.0153773
0.0153888
0.0153944
0.0149243
0.014968
0.0150131
0.0150639
0.0151211
0.0151807
0.0152372
0.0152866
0.0153274
0.0153594
0.0153834
0.0154003
0.0154111
0.0154163
0.0149374
0.0149779
0.015024
0.0150779
0.0151384
0.0152001
0.0152573
0.0153065
0.0153464
0.0153773
0.0154003
0.0154165
0.0154267
0.0154316
0.0149316
0.0149409
0.0149832
0.0150313
0.0150877
0.0151503
0.0152133
0.0152707
0.0153195
0.0153586
0.0153888
0.0154111
0.0154267
0.0154365
0.0154413
0.0149355
0.0149442
0.0149868
0.0150354
0.0150928
0.0151565
0.0152199
0.0152774
0.0153259
0.0153646
0.0153944
0.0154163
0.0154316
0.0154412
0.0154459
0.0146724
0.014676
0.0146787
0.014687
0.0146624
0.0146731
0.0146751
0.014678
0.0146836
0.0147107
0.0146834
0.0146922
0.0146997
0.0147074
0.0147111
0.014714
0.0146918
0.0146861
0.014701
0.0147158
0.014728
0.0147374
0.0147455
0.014751
0.0147542
0.014677
0.0146948
0.0147155
0.0147337
0.0147505
0.014766
0.0147792
0.0147902
0.014798
0.0148022
0.0146771
0.0146984
0.0147228
0.0147454
0.0147674
0.0147891
0.0148096
0.0148275
0.014842
0.0148522
0.0148574
0.0146918
0.0146948
0.0147228
0.0147496
0.0147767
0.0148046
0.0148323
0.0148579
0.0148799
0.0148973
0.0149091
0.0149152
0.0146837
0.0146862
0.0147156
0.0147455
0.0147767
0.0148101
0.0148444
0.0148775
0.0149072
0.0149319
0.0149508
0.0149636
0.01497
0.0147108
0.0147012
0.0147338
0.0147675
0.0148047
0.0148445
0.0148842
0.0149212
0.0149533
0.0149793
0.0149988
0.0150117
0.0150182
0.0146789
0.0146836
0.0147159
0.0147507
0.0147892
0.0148323
0.0148775
0.0149212
0.0149605
0.0149936
0.0150199
0.0150392
0.0150519
0.0150582
0.0146872
0.0146925
0.0147282
0.0147661
0.0148097
0.014858
0.0149072
0.0149533
0.0149936
0.0150269
0.0150528
0.0150717
0.0150839
0.01509
0.0146627
0.0147
0.0147376
0.0147794
0.0148276
0.01488
0.0149319
0.0149793
0.0150199
0.0150528
0.0150781
0.0150964
0.0151082
0.015114
0.0146734
0.0147076
0.0147458
0.0147904
0.0148422
0.0148974
0.0149509
0.0149989
0.0150393
0.0150717
0.0150964
0.0151142
0.0151256
0.0151312
0.0146727
0.0146755
0.0147114
0.0147512
0.0147982
0.0148523
0.0149092
0.0149636
0.0150118
0.015052
0.0150839
0.0151082
0.0151256
0.0151367
0.0151422
0.0146763
0.0146783
0.0147143
0.0147545
0.0148024
0.0148576
0.0149153
0.01497
0.0150182
0.0150582
0.01509
0.015114
0.0151312
0.0151422
0.0151475
0.0144219
0.0144254
0.0144299
0.0144377
0.0144124
0.0144206
0.014421
0.0144237
0.0144351
0.01446
0.0144317
0.0144385
0.0144436
0.0144488
0.0144509
0.0144533
0.0144436
0.0144353
0.0144473
0.0144587
0.0144677
0.0144739
0.0144791
0.0144826
0.014485
0.014429
0.0144433
0.01446
0.0144737
0.0144861
0.0144972
0.0145066
0.0145144
0.0145201
0.0145232
0.0144291
0.0144466
0.0144662
0.0144834
0.0144997
0.0145159
0.0145315
0.0145454
0.0145568
0.014565
0.0145693
0.0144436
0.0144434
0.0144662
0.0144868
0.0145072
0.0145286
0.0145504
0.0145713
0.0145897
0.0146045
0.0146148
0.0146201
0.0144352
0.0144354
0.0144601
0.0144834
0.0145072
0.0145331
0.0145607
0.0145883
0.0146139
0.0146358
0.0146529
0.0146646
0.0146706
0.0144602
0.0144474
0.0144738
0.0144998
0.0145286
0.0145607
0.0145942
0.0146266
0.0146556
0.0146798
0.0146982
0.0147106
0.0147169
0.0144302
0.0144319
0.0144589
0.0144862
0.014516
0.0145505
0.0145883
0.0146266
0.0146623
0.0146934
0.0147187
0.0147377
0.0147504
0.0147566
0.014438
0.0144388
0.0144679
0.0144974
0.0145316
0.0145714
0.0146139
0.0146556
0.0146935
0.0147256
0.0147513
0.0147703
0.0147829
0.0147891
0.0144128
0.0144439
0.0144742
0.0145068
0.0145455
0.0145898
0.0146359
0.0146798
0.0147188
0.0147513
0.014777
0.0147958
0.0148081
0.0148142
0.014421
0.0144491
0.0144794
0.0145147
0.014557
0.0146046
0.014653
0.0146983
0.0147378
0.0147704
0.0147958
0.0148144
0.0148265
0.0148325
0.0144223
0.0144213
0.0144512
0.0144829
0.0145203
0.0145652
0.0146149
0.0146647
0.0147107
0.0147504
0.0147829
0.0148081
0.0148265
0.0148384
0.0148443
0.0144258
0.0144241
0.0144537
0.0144853
0.0145235
0.0145695
0.0146202
0.0146707
0.0147169
0.0147567
0.0147891
0.0148142
0.0148325
0.0148443
0.0148501
0.0141773
0.014181
0.0141883
0.0141963
0.0141732
0.0141781
0.0141762
0.0141792
0.0141939
0.0142182
0.0141905
0.014195
0.0141971
0.0141993
0.0141996
0.0142017
0.0142032
0.0141952
0.014204
0.0142116
0.0142169
0.0142194
0.0142213
0.0142227
0.0142242
0.0141945
0.0142024
0.0142146
0.0142234
0.0142307
0.0142371
0.0142423
0.0142468
0.0142502
0.0142523
0.0141945
0.0142051
0.0142194
0.0142307
0.0142408
0.0142512
0.0142616
0.0142712
0.0142795
0.0142856
0.0142889
0.0142033
0.0142025
0.0142194
0.0142332
0.0142463
0.0142608
0.0142766
0.0142925
0.014307
0.0143191
0.0143277
0.0143323
0.0141941
0.0141954
0.0142147
0.0142307
0.0142464
0.0142643
0.0142849
0.0143068
0.014328
0.0143468
0.0143619
0.0143724
0.0143778
0.0142184
0.0142042
0.0142236
0.0142409
0.0142609
0.0142849
0.0143118
0.0143392
0.0143648
0.0143867
0.0144038
0.0144154
0.0144213
0.0141887
0.0141908
0.0142119
0.0142309
0.0142513
0.0142767
0.0143068
0.0143392
0.014371
0.0143995
0.0144233
0.0144415
0.0144538
0.0144599
0.0141967
0.0141954
0.0142172
0.0142373
0.0142617
0.0142926
0.0143281
0.0143648
0.0143995
0.0144299
0.0144548
0.0144735
0.014486
0.0144922
0.0141737
0.0141976
0.0142198
0.0142426
0.0142714
0.0143072
0.0143469
0.0143867
0.0144234
0.0144548
0.0144801
0.014499
0.0145116
0.0145178
0.0141786
0.0141997
0.0142217
0.014247
0.0142797
0.0143193
0.014362
0.0144038
0.0144416
0.0144736
0.0144991
0.014518
0.0145304
0.0145366
0.0141778
0.0141767
0.0142
0.014223
0.0142504
0.0142858
0.0143279
0.0143725
0.0144155
0.0144538
0.014486
0.0145116
0.0145304
0.0145428
0.0145489
0.0141815
0.0141797
0.0142022
0.0142246
0.0142526
0.0142892
0.0143324
0.0143779
0.0144214
0.01446
0.0144923
0.0145178
0.0145366
0.0145489
0.014555
0.0139347
0.0139393
0.0139508
0.013961
0.0139459
0.0139443
0.0139394
0.0139435
0.013957
0.013984
0.0139597
0.0139608
0.0139583
0.0139559
0.0139543
0.0139564
0.0139688
0.0139656
0.0139697
0.013972
0.0139726
0.0139704
0.0139682
0.0139672
0.013968
0.013984
0.01397
0.0139768
0.0139793
0.0139805
0.0139815
0.0139822
0.0139831
0.0139842
0.0139855
0.013984
0.0139715
0.0139787
0.0139833
0.0139864
0.0139905
0.0139956
0.0140011
0.0140063
0.0140105
0.014013
0.0139689
0.01397
0.0139787
0.0139846
0.0139897
0.0139969
0.0140067
0.0140178
0.0140288
0.0140384
0.0140455
0.0140493
0.0139572
0.0139657
0.0139769
0.0139834
0.0139897
0.0139994
0.0140131
0.0140296
0.0140468
0.0140627
0.0140758
0.0140852
0.01409
0.0139843
0.01397
0.0139795
0.0139865
0.013997
0.0140131
0.0140338
0.0140565
0.0140788
0.0140985
0.0141142
0.0141251
0.0141307
0.0139513
0.0139601
0.0139723
0.0139807
0.0139906
0.0140068
0.0140296
0.0140566
0.0140844
0.0141105
0.0141327
0.0141501
0.0141619
0.0141678
0.0139616
0.0139613
0.0139729
0.0139818
0.0139958
0.014018
0.0140468
0.0140789
0.0141105
0.0141391
0.0141629
0.0141812
0.0141935
0.0141996
0.0139467
0.0139589
0.0139708
0.0139825
0.0140013
0.0140289
0.0140628
0.0140986
0.0141328
0.0141629
0.0141877
0.0142064
0.0142189
0.0142252
0.013945
0.0139565
0.0139686
0.0139833
0.0140065
0.0140385
0.0140759
0.0141143
0.0141501
0.0141812
0.0142064
0.0142254
0.014238
0.0142442
0.0139352
0.01394
0.0139548
0.0139676
0.0139845
0.0140107
0.0140456
0.0140853
0.0141252
0.0141619
0.0141935
0.0142189
0.014238
0.0142505
0.0142568
0.0139399
0.0139441
0.0139569
0.0139684
0.0139858
0.0140132
0.0140494
0.0140901
0.0141307
0.0141679
0.0141997
0.0142252
0.0142442
0.0142568
0.014263
0.0136867
0.0136939
0.0137103
0.0137291
0.0137375
0.0137175
0.0137082
0.0137153
0.0137182
0.013758
0.0137392
0.0137343
0.0137243
0.0137146
0.0137102
0.013713
0.0137383
0.0137462
0.013742
0.0137352
0.0137289
0.0137206
0.0137138
0.0137105
0.0137109
0.0138241
0.0137485
0.0137412
0.0137353
0.0137292
0.0137243
0.0137202
0.0137178
0.0137172
0.0137179
0.0138239
0.0137521
0.0137402
0.0137348
0.0137301
0.013728
0.0137283
0.0137302
0.013733
0.0137358
0.0137377
0.0137383
0.0137484
0.0137401
0.0137347
0.0137311
0.0137316
0.0137361
0.0137434
0.0137516
0.0137593
0.0137652
0.0137685