/*--------------------------------*- C++ -*----------------------------------*\
| =========                 |                                                 |
| \\      /  F ield         | OpenFOAM: The Open Source CFD Toolbox           |
|  \\    /   O peration     | Version:  2.1.1                                 |
|   \\  /    A nd           | Web:      www.OpenFOAM.org                      |
|    \\/     M anipulation  |                                                 |
\*---------------------------------------------------------------------------*/
FoamFile
{
    version     2.0;
    format      ascii;
    class       volScalarField;
    location    "0.0035";
    object      Th;
}
// * * * * * * * * * * * * * * * * * * * * * * * * * * * * * * * * * * * * * //

dimensions      [0 0 0 0 0 0 0];

internalField   nonuniform List<scalar> 
10260
(
4.01936e-13
1.0616e-14
1.0002e-14
1.00002e-14
1.00001e-14
1.00001e-14
1.00002e-14
1.00003e-14
1.00002e-14
1.00001e-14
1e-14
1e-14
1.00001e-14
1.00002e-14
1.00001e-14
4.47247e-13
1.17122e-14
1.00058e-14
1.00001e-14
1.00001e-14
1e-14
1e-14
1e-14
1e-14
1e-14
1e-14
1e-14
1e-14
1.00001e-14
1e-14
1e-14
1e-14
1e-14
1e-14
1e-14
1e-14
1e-14
1e-14
1e-14
1e-14
1e-14
1e-14
1e-14
1.00002e-14
1.26013e-14
1.00355e-14
1e-14
1e-14
1e-14
1e-14
1e-14
1e-14
1e-14
1.00001e-14
1.00001e-14
1e-14
1e-14
1.00002e-14
3.76156e-14
1.00675e-14
1.00002e-14
1e-14
1e-14
1e-14
1e-14
1.00001e-14
1.00001e-14
1.00001e-14
1.00001e-14
1.00001e-14
1.00001e-14
1.00001e-14
2.76375e-13
1.23746e-14
1.00055e-14
1e-14
1e-14
1e-14
1e-14
1.00001e-14
1.00001e-14
1e-14
1e-14
1.00001e-14
1e-14
1.00001e-14
1.10794e-14
1.00591e-14
1e-14
1e-14
1e-14
1e-14
1e-14
1e-14
1e-14
1e-14
1e-14
1e-14
1.00002e-14
1e-14
1.42749e-14
1.0006e-14
1e-14
1e-14
1e-14
1e-14
1.00001e-14
1.00001e-14
1.00001e-14
1.00001e-14
1e-14
1.00001e-14
1.93638e-14
1.02999e-14
1.00003e-14
1.00001e-14
1e-14
1e-14
1e-14
1e-14
1.00001e-14
1.00001e-14
1e-14
1.00001e-14
8.95319e-13
1e-14
1.0323e-14
1.00004e-14
1e-14
1e-14
1e-14
1e-14
1e-14
1e-14
1e-14
1.00001e-14
4.18056e-13
1e-14
1.02988e-14
1.0006e-14
1e-14
1e-14
1e-14
1e-14
1e-14
1e-14
1e-14
3.55982e-13
1.30934e-14
1.42737e-14
1.00594e-14
1.00058e-14
1.00001e-14
1.00001e-14
1.00001e-14
1e-14
1.00001e-14
3.15406e-14
1e-14
1.24061e-14
1.00686e-14
1.0036e-14
1e-14
1.0006e-14
1.00025e-14
1.22238e-13
2.54622e-14
1.02431e-14
1e-14
1e-14
1.17345e-14
1.06496e-14
1.16903e-12
1e-14
1e-14
1.44475e-14
1.77111e-14
4.05571e-13
1.05504e-14
1.00008e-14
1.00002e-14
1.00002e-14
1.00002e-14
1.00003e-14
1.00003e-14
1.00002e-14
1.00001e-14
1e-14
1e-14
1.00001e-14
1.00003e-14
1.00001e-14
4.53359e-13
1.15658e-14
1.00028e-14
1e-14
1.00001e-14
1e-14
1e-14
1e-14
1e-14
1e-14
1e-14
1e-14
1e-14
1e-14
1e-14
1e-14
1e-14
1e-14
1e-14
1e-14
1e-14
1e-14
1e-14
1e-14
1e-14
1e-14
1e-14
1e-14
1.00002e-14
1.24369e-14
1.00302e-14
1e-14
1e-14
1e-14
1e-14
1e-14
1e-14
1e-14
1e-14
1.00001e-14
1e-14
1e-14
1.00001e-14
3.70739e-14
1.00572e-14
1.00001e-14
1e-14
1e-14
1e-14
1e-14
1e-14
1.00001e-14
1e-14
1e-14
1e-14
1e-14
1e-14
2.79476e-13
1.22371e-14
1.00029e-14
1e-14
1e-14
1e-14
1e-14
1e-14
1.00001e-14
1e-14
1e-14
1.00001e-14
1e-14
1.00001e-14
1.09445e-14
1.00525e-14
1e-14
1e-14
1e-14
1e-14
1e-14
1e-14
1e-14
1e-14
1e-14
1e-14
1.00001e-14
1e-14
1.3996e-14
1.00033e-14
1e-14
1e-14
1e-14
1e-14
1e-14
1.00001e-14
1.00001e-14
1.00001e-14
1e-14
1e-14
1.91793e-14
1.02678e-14
1e-14
1e-14
1e-14
1e-14
1e-14
1e-14
1e-14
1e-14
1e-14
1e-14
8.97245e-13
1e-14
1.02914e-14
1.00001e-14
1e-14
1e-14
1e-14
1e-14
1e-14
1e-14
1e-14
1e-14
4.39397e-13
1e-14
1.02666e-14
1.00033e-14
1e-14
1e-14
1e-14
1e-14
1e-14
1e-14
1e-14
3.76501e-13
1.28247e-14
1.39961e-14
1.00526e-14
1.0003e-14
1e-14
1.00001e-14
1e-14
1e-14
1e-14
3.37184e-14
1e-14
1.22404e-14
1.00577e-14
1.00306e-14
1e-14
1.00029e-14
1.00011e-14
1.3014e-13
2.54127e-14
1.02583e-14
1e-14
1e-14
1.15694e-14
1.05592e-14
1.16319e-12
1e-14
1e-14
1.43382e-14
1.76227e-14
4.06009e-13
1.05333e-14
1e-14
1.00002e-14
1.00002e-14
1.00001e-14
1.00001e-14
1.00002e-14
1.00002e-14
1e-14
1e-14
1e-14
1e-14
1.00002e-14
1.00002e-14
4.53891e-13
1.15255e-14
1.00001e-14
1e-14
1e-14
1e-14
1e-14
1e-14
1e-14
1e-14
1e-14
1e-14
1e-14
1e-14
1e-14
1e-14
1e-14
1e-14
1e-14
1e-14
1e-14
1e-14
1e-14
1e-14
1e-14
1e-14
1e-14
1e-14
1.00002e-14
1.24513e-14
1.00287e-14
1e-14
1e-14
1e-14
1e-14
1e-14
1e-14
1e-14
1e-14
1.00001e-14
1e-14
1e-14
1.00002e-14
3.73646e-14
1.00557e-14
1e-14
1e-14
1e-14
1e-14
1e-14
1e-14
1e-14
1e-14
1e-14
1e-14
1e-14
1e-14
2.79652e-13
1.21958e-14
1.00012e-14
1e-14
1e-14
1e-14
1e-14
1e-14
1.00001e-14
1e-14
1e-14
1e-14
1e-14
1e-14
1.09645e-14
1.00508e-14
1e-14
1e-14
1e-14
1e-14
1e-14
1e-14
1e-14
1e-14
1e-14
1e-14
1.00001e-14
1e-14
1.39182e-14
1.00018e-14
1e-14
1e-14
1e-14
1e-14
1e-14
1.00001e-14
1.00001e-14
1e-14
1e-14
1e-14
1.92513e-14
1.02618e-14
1e-14
1.00001e-14
1e-14
1e-14
1e-14
1e-14
1e-14
1e-14
1e-14
1.00001e-14
8.96823e-13
1e-14
1.02847e-14
1e-14
1e-14
1e-14
1e-14
1e-14
1e-14
1e-14
1e-14
1.00002e-14
4.39847e-13
1e-14
1.02606e-14
1.00019e-14
1e-14
1e-14
1e-14
1e-14
1e-14
1e-14
1.00001e-14
3.76689e-13
1.27822e-14
1.39183e-14
1.00509e-14
1.00014e-14
1e-14
1.00001e-14
1e-14
1e-14
1e-14
3.42282e-14
1e-14
1.21972e-14
1.00558e-14
1.00289e-14
1e-14
1.00002e-14
1e-14
1.29881e-13
2.55886e-14
1.02641e-14
1e-14
1e-14
1.15261e-14
1.05354e-14
1.16083e-12
1e-14
1e-14
1.43369e-14
1.76897e-14
4.0597e-13
1.05165e-14
1e-14
1.00001e-14
1.00001e-14
1.00001e-14
1.00001e-14
1.00002e-14
1.00002e-14
1.00002e-14
1e-14
1e-14
1e-14
1.00002e-14
1.00001e-14
4.53757e-13
1.15132e-14
1e-14
1e-14
1e-14
1e-14
1e-14
1.00001e-14
1e-14
1e-14
1e-14
1e-14
1e-14
1e-14
1e-14
1e-14
1e-14
1e-14
1e-14
1e-14
1e-14
1e-14
1e-14
1e-14
1e-14
1e-14
1e-14
1e-14
1.00001e-14
1.24545e-14
1.00281e-14
1e-14
1e-14
1e-14
1e-14
1e-14
1e-14
1e-14
1e-14
1e-14
1e-14
1e-14
1.00001e-14
3.74838e-14
1.00551e-14
1e-14
1e-14
1e-14
1e-14
1e-14
1e-14
1e-14
1e-14
1e-14
1e-14
1e-14
1e-14
2.79729e-13
1.21834e-14
1e-14
1e-14
1e-14
1e-14
1e-14
1e-14
1e-14
1e-14
1e-14
1e-14
1e-14
1e-14
1.09851e-14
1.00494e-14
1e-14
1e-14
1e-14
1e-14
1e-14
1e-14
1e-14
1e-14
1e-14
1e-14
1e-14
1e-14
1.39183e-14
1e-14
1e-14
1e-14
1e-14
1e-14
1e-14
1e-14
1e-14
1e-14
1e-14
1.00001e-14
1.92734e-14
1.02615e-14
1e-14
1e-14
1e-14
1e-14
1e-14
1e-14
1e-14
1e-14
1e-14
1.00001e-14
8.96843e-13
1e-14
1.0284e-14
1e-14
1e-14
1e-14
1e-14
1e-14
1e-14
1e-14
1.00001e-14
1.00001e-14
4.39551e-13
1e-14
1.02603e-14
1e-14
1e-14
1e-14
1e-14
1e-14
1e-14
1e-14
1e-14
3.76327e-13
1.27746e-14
1.39179e-14
1.00495e-14
1e-14
1e-14
1e-14
1e-14
1e-14
1e-14
3.41606e-14
1e-14
1.21839e-14
1.00551e-14
1.00281e-14
1e-14
1e-14
1e-14
1.29444e-13
2.54986e-14
1.02625e-14
1e-14
1e-14
1.15126e-14
1.05168e-14
1.16011e-12
1e-14
1e-14
1.4251e-14
1.76898e-14
4.05238e-13
1.0587e-14
1e-14
1.00001e-14
1.00001e-14
1.00001e-14
1.00001e-14
1.00002e-14
1.00002e-14
1.00001e-14
1.00001e-14
1e-14
1.00001e-14
1.00001e-14
1.00002e-14
4.52788e-13
1.16029e-14
1e-14
1e-14
1e-14
1e-14
1e-14
1.00001e-14
1e-14
1e-14
1e-14
1e-14
1e-14
1e-14
1e-14
1e-14
1e-14
1e-14
1e-14
1e-14
1e-14
1e-14
1e-14
1e-14
1e-14
1e-14
1e-14
1e-14
1e-14
1.24672e-14
1.00281e-14
1e-14
1e-14
1e-14
1e-14
1e-14
1e-14
1e-14
1e-14
1e-14
1e-14
1e-14
1e-14
3.77467e-14
1.00619e-14
1e-14
1e-14
1e-14
1e-14
1e-14
1e-14
1e-14
1e-14
1.00001e-14
1e-14
1e-14
1e-14
2.79714e-13
1.223e-14
1e-14
1e-14
1e-14
1e-14
1e-14
1e-14
1e-14
1.00001e-14
1e-14
1e-14
1e-14
1e-14
1.10159e-14
1.00481e-14
1e-14
1e-14
1e-14
1e-14
1e-14
1e-14
1e-14
1e-14
1e-14
1e-14
1.00001e-14
1e-14
1.38184e-14
1e-14
1e-14
1e-14
1e-14
1e-14
1e-14
1e-14
1e-14
1e-14
1e-14
1.00001e-14
1.92411e-14
1.02552e-14
1e-14
1e-14
1e-14
1e-14
1e-14
1e-14
1e-14
1e-14
1.00001e-14
1e-14
8.96704e-13
1e-14
1.02811e-14
1e-14
1e-14
1e-14
1e-14
1e-14
1.00001e-14
1.00001e-14
1e-14
1e-14
4.39345e-13
1e-14
1.0254e-14
1e-14
1e-14
1e-14
1.00001e-14
1.00001e-14
1e-14
1e-14
1e-14
3.76039e-13
1.27605e-14
1.38168e-14
1.00481e-14
1e-14
1e-14
1e-14
1e-14
1e-14
1e-14
3.3857e-14
1e-14
1.223e-14
1.00619e-14
1.00282e-14
1e-14
1e-14
1e-14
1.28395e-13
2.52684e-14
1.02565e-14
1e-14
1e-14
1.16027e-14
1.05867e-14
1.15891e-12
1e-14
1e-14
1.41082e-14
1.76768e-14
4.02635e-13
1.03725e-14
1e-14
1e-14
1e-14
1e-14
1.00001e-14
1.00001e-14
1e-14
1e-14
1e-14
1e-14
1e-14
1e-14
1.00003e-14
4.49337e-13
1.14166e-14
1e-14
1e-14
1e-14
1e-14
1e-14
1e-14
1e-14
1e-14
1e-14
1e-14
1e-14
1e-14
1e-14
1e-14
1e-14
1e-14
1e-14
1e-14
1e-14
1e-14
1e-14
1e-14
1e-14
1e-14
1e-14
1e-14
1e-14
1.25111e-14
1.00255e-14
1e-14
1e-14
1e-14
1e-14
1e-14
1e-14
1e-14
1e-14
1e-14
1e-14
1e-14
1e-14
3.85585e-14
1.00417e-14
1e-14
1e-14
1e-14
1e-14
1e-14
1e-14
1e-14
1.00001e-14
1e-14
1e-14
1e-14
1.00002e-14
2.79222e-13
1.20582e-14
1e-14
1e-14
1e-14
1e-14
1e-14
1e-14
1.00001e-14
1e-14
1e-14
1e-14
1e-14
1.00002e-14
1.10323e-14
1.00421e-14
1e-14
1e-14
1e-14
1e-14
1e-14
1e-14
1e-14
1e-14
1e-14
1.00001e-14
1.00001e-14
1e-14
1.40609e-14
1e-14
1e-14
1e-14
1e-14
1e-14
1e-14
1e-14
1e-14
1.00001e-14
1.00001e-14
1e-14
1.90299e-14
1.02976e-14
1e-14
1e-14
1e-14
1e-14
1e-14
1e-14
1e-14
1.00001e-14
1e-14
1e-14
8.95624e-13
1e-14
1.03012e-14
1e-14
1e-14
1e-14
1.00001e-14
1.00001e-14
1.00001e-14
1e-14
1e-14
1e-14
4.38349e-13
1e-14
1.02961e-14
1e-14
1e-14
1.00001e-14
1.00001e-14
1e-14
1e-14
1e-14
1e-14
3.7475e-13
1.26962e-14
1.40598e-14
1.00421e-14
1e-14
1e-14
1e-14
1e-14
1e-14
1e-14
3.28744e-14
1e-14
1.20582e-14
1.00417e-14
1.00255e-14
1e-14
1e-14
1e-14
1.25018e-13
2.4771e-14
1.02317e-14
1e-14
1e-14
1.14169e-14
1.03728e-14
1.15499e-12
1e-14
1e-14
1.36927e-14
1.73709e-14
3.86969e-13
1.12762e-14
1e-14
1e-14
1e-14
1e-14
1.00001e-14
1.00001e-14
1e-14
1e-14
1e-14
1e-14
1e-14
1e-14
1.00001e-14
4.32982e-13
1.2739e-14
1e-14
1e-14
1e-14
1e-14
1e-14
1e-14
1e-14
1e-14
1e-14
1e-14
1e-14
1e-14
1e-14
1e-14
1e-14
1e-14
1e-14
1e-14
1e-14
1e-14
1e-14
1e-14
1e-14
1e-14
1e-14
1e-14
1e-14
1.1523e-14
1.00352e-14
1e-14
1e-14
1e-14
1e-14
1e-14
1.00001e-14
1.00001e-14
1.00001e-14
1e-14
1e-14
1e-14
1e-14
3.69802e-14
1.01323e-14
1e-14
1e-14
1e-14
1e-14
1e-14
1e-14
1e-14
1e-14
1e-14
1e-14
1e-14
1.00001e-14
2.74712e-13
1.30453e-14
1e-14
1e-14
1e-14
1e-14
1e-14
1e-14
1e-14
1e-14
1e-14
1e-14
1.00001e-14
1.00001e-14
1.14277e-14
1.00394e-14
1e-14
1e-14
1e-14
1e-14
1e-14
1e-14
1e-14
1e-14
1.00001e-14
1.00001e-14
1e-14
1e-14
1.39893e-14
1e-14
1e-14
1e-14
1e-14
1e-14
1e-14
1e-14
1e-14
1.00001e-14
1e-14
1e-14
1.91802e-14
1.01471e-14
1e-14
1e-14
1e-14
1e-14
1e-14
1.00001e-14
1.00001e-14
1e-14
1e-14
1e-14
8.92431e-13
1e-14
1.02115e-14
1e-14
1e-14
1e-14
1.00001e-14
1.00001e-14
1e-14
1e-14
1e-14
1.00001e-14
4.37628e-13
1e-14
1.01454e-14
1e-14
1e-14
1e-14
1e-14
1e-14
1e-14
1.00001e-14
1.00001e-14
3.69653e-13
1.32138e-14
1.39894e-14
1.00393e-14
1e-14
1e-14
1e-14
1e-14
1.00001e-14
1e-14
4.35438e-14
1e-14
1.30456e-14
1.01323e-14
1.00353e-14
1e-14
1e-14
1e-14
1.03762e-13
2.31461e-14
1.01483e-14
1e-14
1e-14
1.27398e-14
1.12764e-14
1.15788e-12
1e-14
1e-14
1.28261e-14
1.29114e-14
5.97923e-14
1.04118e-14
1e-14
1e-14
1e-14
1.00001e-14
1.00001e-14
1e-14
1e-14
1e-14
1e-14
1e-14
1e-14
1e-14
1e-14
5.00025e-14
1.06524e-14
1e-14
1e-14
1e-14
1e-14
1e-14
1e-14
1e-14
1e-14
1e-14
1e-14
1e-14
1e-14
1e-14
1e-14
1.00001e-14
1e-14
1e-14
1e-14
1e-14
1e-14
1e-14
1e-14
1e-14
1e-14
1e-14
1e-14
1.00001e-14
1.13799e-14
1.0008e-14
1e-14
1e-14
1e-14
1e-14
1e-14
1e-14
1e-14
1e-14
1e-14
1e-14
1.00001e-14
1.00001e-14
2.18149e-14
1.00368e-14
1e-14
1e-14
1e-14
1e-14
1e-14
1e-14
1e-14
1e-14
1e-14
1e-14
1.00001e-14
1.00002e-14
5.42171e-14
1.05098e-14
1e-14
1e-14
1e-14
1e-14
1e-14
1e-14
1e-14
1e-14
1e-14
1e-14
1.00001e-14
1.00001e-14
1.08444e-14
1.00059e-14
1e-14
1e-14
1e-14
1e-14
1e-14
1e-14
1e-14
1.00001e-14
1e-14
1e-14
1.00001e-14
3.49903e-14
1.06738e-14
1e-14
1.00001e-14
1e-14
1e-14
1e-14
1e-14
1.00001e-14
1.00001e-14
1e-14
1e-14
1e-14
1.42771e-14
1.00201e-14
1e-14
1e-14
1e-14
1e-14
1.00001e-14
1.00001e-14
1e-14
1e-14
1e-14
1e-14
1e-14
1e-14
1.00341e-14
1e-14
1e-14
1e-14
1e-14
1e-14
1e-14
1e-14
1e-14
1.00002e-14
1e-14
1e-14
1.00197e-14
1e-14
1e-14
1e-14
1e-14
1e-14
1e-14
1.00001e-14
1.00001e-14
1e-14
1e-14
1.06738e-14
1.00058e-14
1e-14
1e-14
1e-14
1.00001e-14
1.00001e-14
1e-14
2.263e-14
1.00605e-14
1.05099e-14
1.00368e-14
1.0008e-14
1.00001e-14
1e-14
1e-14
1e-14
2.15271e-14
1e-14
1.00266e-14
1e-14
1.06527e-14
1.0412e-14
1e-14
6.68712e-14
1.56367e-14
1.77556e-14
1.00004e-14
1.1031e-14
1.01033e-14
1e-14
1e-14
1e-14
1e-14
1e-14
1e-14
1e-14
1e-14
1e-14
1e-14
1e-14
1e-14
1.00001e-14
1.04664e-14
1.01586e-14
1e-14
1e-14
1e-14
1e-14
1e-14
1e-14
1e-14
1e-14
1e-14
1e-14
1e-14
1e-14
1e-14
1.00347e-14
1e-14
1e-14
1e-14
1e-14
1e-14
1e-14
1e-14
1e-14
1e-14
1e-14
1e-14
1e-14
1e-14
1e-14
1.00057e-14
1.00018e-14
1e-14
1e-14
1e-14
1e-14
1e-14
1e-14
1e-14
1e-14
1e-14
1e-14
1e-14
1.00001e-14
1.02262e-14
1.00091e-14
1e-14
1e-14
1e-14
1e-14
1e-14
1e-14
1e-14
1e-14
1e-14
1e-14
1e-14
1.00001e-14
1.0553e-14
1.01032e-14
1e-14
1e-14
1e-14
1e-14
1e-14
1e-14
1e-14
1e-14
1e-14
1e-14
1.00001e-14
1e-14
1.00308e-14
1.00009e-14
1e-14
1e-14
1e-14
1e-14
1e-14
1e-14
1e-14
1.00001e-14
1e-14
1e-14
1e-14
1.01593e-14
1.01301e-14
1e-14
1.00001e-14
1e-14
1e-14
1e-14
1e-14
1.00001e-14
1e-14
1e-14
1e-14
1e-14
1.01551e-14
1.00021e-14
1e-14
1e-14
1e-14
1e-14
1e-14
1e-14
1e-14
1e-14
1e-14
1e-14
1.0006e-14
1e-14
1.00049e-14
1e-14
1e-14
1e-14
1e-14
1e-14
1e-14
1e-14
1e-14
1.00001e-14
1.00011e-14
1e-14
1.00021e-14
1e-14
1e-14
1e-14
1e-14
1.00001e-14
1.00001e-14
1.00001e-14
1.00001e-14
1.00043e-14
1e-14
1.01302e-14
1.00008e-14
1e-14
1e-14
1e-14
1.00001e-14
1.00001e-14
1e-14
1.03135e-14
1e-14
1.01033e-14
1.00092e-14
1.00019e-14
1.00001e-14
1e-14
1e-14
1.00012e-14
1.03215e-14
1e-14
1.00058e-14
1e-14
1.01587e-14
1.01035e-14
1.06771e-14
1.00887e-14
1.02943e-14
1e-14
1.00159e-14
1.0022e-14
1e-14
1e-14
1e-14
1e-14
1e-14
1e-14
1e-14
1e-14
1e-14
1e-14
1e-14
1e-14
1.00002e-14
1.00055e-14
1.00343e-14
1e-14
1e-14
1e-14
1e-14
1e-14
1e-14
1e-14
1e-14
1e-14
1e-14
1e-14
1e-14
1e-14
1.00002e-14
1.00002e-14
1e-14
1e-14
1e-14
1e-14
1e-14
1e-14
1e-14
1e-14
1e-14
1e-14
1e-14
1e-14
1e-14
1.00004e-14
1.00004e-14
1e-14
1e-14
1e-14
1e-14
1e-14
1e-14
1e-14
1e-14
1e-14
1e-14
1e-14
1e-14
1.00033e-14
1.00018e-14
1e-14
1e-14
1e-14
1e-14
1e-14
1e-14
1e-14
1e-14
1e-14
1e-14
1e-14
1e-14
1.00047e-14
1.00183e-14
1e-14
1e-14
1e-14
1e-14
1e-14
1e-14
1e-14
1e-14
1e-14
1e-14
1e-14
1e-14
1.00014e-14
1.00002e-14
1e-14
1e-14
1e-14
1e-14
1e-14
1e-14
1e-14
1e-14
1e-14
1e-14
1e-14
1.00013e-14
1.00219e-14
1e-14
1e-14
1e-14
1e-14
1e-14
1e-14
1e-14
1e-14
1e-14
1e-14
1e-14
1.00038e-14
1.00002e-14
1e-14
1e-14
1e-14
1e-14
1e-14
1e-14
1e-14
1e-14
1e-14
1e-14
1.00001e-14
1.00004e-14
1.00006e-14
1e-14
1e-14
1e-14
1e-14
1e-14
1e-14
1e-14
1e-14
1.00001e-14
1e-14
1.00004e-14
1.00002e-14
1e-14
1e-14
1e-14
1e-14
1e-14
1e-14
1e-14
1e-14
1e-14
1.00001e-14
1.0022e-14
1.00002e-14
1e-14
1e-14
1e-14
1e-14
1e-14
1e-14
1.00052e-14
1e-14
1.00184e-14
1.00018e-14
1.00004e-14
1e-14
1e-14
1e-14
1e-14
1.00067e-14
1.00001e-14
1.00004e-14
1.00002e-14
1.00343e-14
1.00221e-14
1.00092e-14
1.00012e-14
1.00074e-14
1.00012e-14
1.00007e-14
1.00042e-14
1e-14
1e-14
1e-14
1e-14
1e-14
1e-14
1e-14
1e-14
1e-14
1e-14
1e-14
1e-14
1.00002e-14
1.00002e-14
1.00065e-14
1e-14
1e-14
1e-14
1e-14
1e-14
1e-14
1e-14
1e-14
1e-14
1e-14
1e-14
1e-14
1e-14
1e-14
1.00001e-14
1e-14
1e-14
1e-14
1e-14
1e-14
1e-14
1e-14
1e-14
1e-14
1e-14
1e-14
1e-14
1.00001e-14
1e-14
1.00001e-14
1e-14
1e-14
1e-14
1e-14
1e-14
1e-14
1e-14
1e-14
1e-14
1e-14
1e-14
1.00001e-14
1e-14
1.00003e-14
1e-14
1e-14
1e-14
1e-14
1e-14
1e-14
1e-14
1e-14
1e-14
1e-14
1e-14
1e-14
1e-14
1.00029e-14
1e-14
1e-14
1e-14
1e-14
1e-14
1e-14
1e-14
1e-14
1e-14
1e-14
1e-14
1e-14
1.00001e-14
1e-14
1e-14
1e-14
1e-14
1e-14
1e-14
1e-14
1e-14
1e-14
1e-14
1e-14
1e-14
1e-14
1.00032e-14
1e-14
1e-14
1e-14
1e-14
1e-14
1e-14
1e-14
1e-14
1e-14
1e-14
1e-14
1.00001e-14
1e-14
1e-14
1e-14
1e-14
1e-14
1e-14
1e-14
1e-14
1e-14
1e-14
1e-14
1e-14
1.00001e-14
1.00001e-14
1e-14
1e-14
1e-14
1e-14
1e-14
1e-14
1e-14
1e-14
1e-14
1e-14
1.00001e-14
1.00001e-14
1e-14
1e-14
1e-14
1e-14
1e-14
1e-14
1e-14
1e-14
1e-14
1.00001e-14
1.00033e-14
1.00001e-14
1e-14
1e-14
1e-14
1e-14
1e-14
1e-14
1.00002e-14
1e-14
1.00028e-14
1.00003e-14
1.00001e-14
1e-14
1e-14
1e-14
1e-14
1.00001e-14
1.00001e-14
1.00001e-14
1.00001e-14
1.00065e-14
1.00042e-14
1e-14
1e-14
1.00005e-14
1.00002e-14
1e-14
1.00007e-14
1e-14
1e-14
1e-14
1e-14
1e-14
1e-14
1e-14
1e-14
1e-14
1e-14
1.00001e-14
1.00001e-14
1.00002e-14
1e-14
1.00011e-14
1e-14
1e-14
1e-14
1e-14
1e-14
1e-14
1e-14
1e-14
1e-14
1.00001e-14
1.00001e-14
1e-14
1.00001e-14
1e-14
1e-14
1e-14
1e-14
1e-14
1e-14
1e-14
1e-14
1e-14
1e-14
1e-14
1e-14
1e-14
1e-14
1.00001e-14
1e-14
1e-14
1e-14
1e-14
1e-14
1e-14
1e-14
1e-14
1e-14
1e-14
1e-14
1e-14
1e-14
1e-14
1e-14
1e-14
1e-14
1e-14
1e-14
1e-14
1e-14
1e-14
1e-14
1e-14
1e-14
1e-14
1e-14
1e-14
1e-14
1.00004e-14
1e-14
1e-14
1e-14
1e-14
1e-14
1e-14
1e-14
1e-14
1e-14
1e-14
1e-14
1e-14
1.00001e-14
1e-14
1.00001e-14
1.00001e-14
1e-14
1e-14
1e-14
1e-14
1e-14
1e-14
1e-14
1e-14
1.00001e-14
1.00003e-14
1.00004e-14
1.00001e-14
1e-14
1e-14
1e-14
1e-14
1e-14
1e-14
1e-14
1e-14
1e-14
1e-14
1e-14
1e-14
1e-14
1e-14
1e-14
1e-14
1e-14
1e-14
1e-14
1e-14
1e-14
1e-14
1.00001e-14
1e-14
1.00001e-14
1e-14
1e-14
1e-14
1e-14
1e-14
1e-14
1e-14
1e-14
1e-14
1e-14
1.00001e-14
1e-14
1e-14
1e-14
1e-14
1e-14
1e-14
1e-14
1e-14
1e-14
1e-14
1e-14
1.00005e-14
1e-14
1e-14
1e-14
1e-14
1e-14
1e-14
1e-14
1e-14
1e-14
1.00004e-14
1e-14
1e-14
1e-14
1e-14
1e-14
1e-14
1e-14
1e-14
1.00001e-14
1e-14
1.00011e-14
1.00007e-14
1e-14
1.00001e-14
1.00001e-14
1e-14
1e-14
1.00001e-14
1e-14
1e-14
1e-14
1.00001e-14
1.00001e-14
1.00001e-14
1e-14
1e-14
1.00001e-14
1.00001e-14
1.00002e-14
1.00001e-14
1.00003e-14
1e-14
1.00001e-14
1e-14
1e-14
1e-14
1e-14
1.00001e-14
1e-14
1e-14
1e-14
1.00001e-14
1.00001e-14
1e-14
1e-14
1.00001e-14
1e-14
1e-14
1e-14
1e-14
1e-14
1e-14
1e-14
1e-14
1e-14
1e-14
1.00001e-14
1e-14
1e-14
1e-14
1.00001e-14
1e-14
1e-14
1e-14
1e-14
1e-14
1e-14
1e-14
1e-14
1e-14
1e-14
1e-14
1e-14
1e-14
1e-14
1e-14
1e-14
1e-14
1e-14
1.00001e-14
1.00001e-14
1e-14
1e-14
1e-14
1e-14
1e-14
1e-14
1e-14
1e-14
1e-14
1.00001e-14
1e-14
1.00001e-14
1.00001e-14
1e-14
1e-14
1e-14
1e-14
1e-14
1e-14
1e-14
1.00001e-14
1e-14
1e-14
1.00001e-14
1.00001e-14
1e-14
1e-14
1e-14
1e-14
1e-14
1e-14
1e-14
1e-14
1e-14
1e-14
1e-14
1e-14
1.00001e-14
1e-14
1e-14
1e-14
1e-14
1e-14
1e-14
1e-14
1e-14
1e-14
1e-14
1e-14
1e-14
1e-14
1e-14
1e-14
1e-14
1e-14
1e-14
1e-14
1e-14
1e-14
1e-14
1e-14
1e-14
1e-14
1e-14
1.00001e-14
1e-14
1e-14
1e-14
1e-14
1e-14
1e-14
1.00001e-14
1e-14
1.00001e-14
1e-14
1e-14
1e-14
1e-14
1e-14
1e-14
1e-14
1e-14
1.00001e-14
1e-14
1e-14
1.00001e-14
1e-14
1e-14
1e-14
1e-14
1e-14
1e-14
1.00001e-14
1.00001e-14
1.00001e-14
1e-14
1e-14
1e-14
1e-14
1.00001e-14
1e-14
1.00001e-14
1e-14
1e-14
1e-14
1e-14
1.00002e-14
1.00001e-14
1e-14
1.00002e-14
1e-14
1e-14
1e-14
1e-14
1.00001e-14
1.00001e-14
1.00001e-14
1.00001e-14
1.00001e-14
1.00001e-14
1e-14
1.00001e-14
1.00001e-14
1.00001e-14
1.00001e-14
1.00001e-14
1.00005e-14
1e-14
1e-14
1e-14
1e-14
1e-14
1e-14
1e-14
1e-14
1e-14
1e-14
1.00001e-14
1e-14
1e-14
1e-14
1.00001e-14
1e-14
1e-14
1e-14
1e-14
1e-14
1e-14
1e-14
1e-14
1e-14
1e-14
1e-14
1e-14
1e-14
1e-14
1.00001e-14
1e-14
1e-14
1e-14
1.00001e-14
1e-14
1e-14
1e-14
1e-14
1e-14
1e-14
1e-14
1e-14
1e-14
1.00001e-14
1e-14
1e-14
1e-14
1e-14
1.00001e-14
1.00001e-14
1e-14
1e-14
1e-14
1e-14
1e-14
1e-14
1e-14
1e-14
1e-14
1e-14
1e-14
1.00001e-14
1e-14
1e-14
1e-14
1e-14
1e-14
1e-14
1e-14
1e-14
1e-14
1e-14
1.00001e-14
1e-14
1e-14
1e-14
1e-14
1.00001e-14
1.00001e-14
1e-14
1e-14
1e-14
1e-14
1e-14
1e-14
1e-14
1e-14
1e-14
1e-14
1.00001e-14
1.00001e-14
1.00001e-14
1e-14
1e-14
1e-14
1e-14
1e-14
1e-14
1e-14
1e-14
1e-14
1.00001e-14
1.00001e-14
1.00001e-14
1e-14
1e-14
1e-14
1e-14
1e-14
1e-14
1.00001e-14
1e-14
1.00001e-14
1.00001e-14
1.00001e-14
1.00001e-14
1e-14
1e-14
1e-14
1e-14
1e-14
1.00001e-14
1e-14
1.00001e-14
1.00001e-14
1.00001e-14
1e-14
1e-14
1e-14
1e-14
1e-14
1.00001e-14
1.00001e-14
1e-14
1e-14
1e-14
1e-14
1e-14
1e-14
1e-14
1.00001e-14
1.00001e-14
1e-14
1e-14
1e-14
1e-14
1e-14
1e-14
1e-14
1e-14
1e-14
1.00001e-14
1e-14
1e-14
1e-14
1e-14
1.00001e-14
1e-14
1e-14
1e-14
1e-14
1e-14
1.00002e-14
1e-14
1.00001e-14
1e-14
1e-14
1e-14
1e-14
1e-14
1.00001e-14
1.00001e-14
1e-14
1e-14
1e-14
1e-14
1.00005e-14
1e-14
1e-14
1e-14
1e-14
1e-14
1e-14
1e-14
1e-14
1e-14
1e-14
1e-14
1e-14
1e-14
1e-14
1.00002e-14
1e-14
1e-14
1e-14
1e-14
1e-14
1e-14
1e-14
1e-14
1e-14
1e-14
1e-14
1e-14
1.00001e-14
1.00001e-14
1.00002e-14
1e-14
1e-14
1e-14
1e-14
1e-14
1e-14
1e-14
1e-14
1e-14
1e-14
1e-14
1e-14
1e-14
1.00001e-14
1.00001e-14
1e-14
1.00001e-14
1.00001e-14
1.00001e-14
1e-14
1e-14
1e-14
1e-14
1e-14
1e-14
1e-14
1e-14
1e-14
1e-14
1e-14
1.00001e-14
1e-14
1e-14
1e-14
1e-14
1e-14
1e-14
1e-14
1e-14
1e-14
1e-14
1e-14
1e-14
1e-14
1.00001e-14
1e-14
1.00001e-14
1.00001e-14
1e-14
1e-14
1e-14
1e-14
1e-14
1e-14
1e-14
1e-14
1e-14
1e-14
1.00001e-14
1.00001e-14
1e-14
1.00001e-14
1e-14
1e-14
1e-14
1e-14
1e-14
1e-14
1e-14
1e-14
1.00001e-14
1.00001e-14
1.00001e-14
1e-14
1e-14
1e-14
1e-14
1e-14
1e-14
1e-14
1.00001e-14
1e-14
1.00001e-14
1.00001e-14
1.00001e-14
1e-14
1e-14
1e-14
1e-14
1e-14
1e-14
1e-14
1.00002e-14
1.00001e-14
1.00001e-14
1e-14
1e-14
1e-14
1e-14
1e-14
1e-14
1e-14
1e-14
1.00002e-14
1e-14
1e-14
1e-14
1e-14
1e-14
1e-14
1e-14
1e-14
1e-14
1e-14
1e-14
1e-14
1e-14
1e-14
1e-14
1e-14
1.00001e-14
1.00001e-14
1e-14
1e-14
1e-14
1e-14
1e-14
1.00001e-14
1e-14
1e-14
1e-14
1.00001e-14
5.58973e-13
2.51526e-14
5.95779e-13
2.7334e-14
6.30316e-13
3.22261e-14
4.52686e-14
8.04357e-14
1.39954e-14
1.10905e-14
1.00692e-13
1.36002e-13
1.32037e-12
5.29029e-14
1.29741e-14
5.43754e-14
1.01649e-14
3.7748e-13
2.18772e-14
7.25727e-14
1.15348e-14
4.94357e-13
1.7469e-14
1.01977e-14
5.63898e-14
1.23957e-14
1.13475e-12
1.44327e-13
1.63237e-14
1.22808e-13
1e-14
3.58241e-14
1.04898e-14
4.80674e-13
1.89542e-14
1.17449e-12
1.01789e-13
1.14378e-12
1.16786e-12
9.21887e-14
1.16425e-12
1.14212e-12
1.01611e-13
1.17456e-12
1.89398e-14
1.0491e-14
4.80664e-13
3.58268e-14
1e-14
1.228e-13
1.63325e-14
1.44833e-13
1.24097e-14
1.02173e-14
5.67443e-14
1.78721e-14
1.13331e-12
4.9437e-13
1.22049e-14
7.05162e-14
2.19526e-14
3.78488e-13
1.02084e-14
1.2859e-14
5.42531e-14
5.15576e-14
1.32046e-12
1.23919e-13
9.86954e-14
1.073e-14
1.42122e-14
8.05757e-14
4.44828e-14
3.20568e-14
6.33024e-13
2.72838e-14
2.49205e-14
5.98106e-13
5.59675e-13
1.65338e-14
4.18901e-13
1.76252e-14
5.51183e-13
2.30179e-14
5.89077e-13
2.51509e-14
2.26519e-14
1.43154e-14
6.24035e-13
2.92878e-14
3.97472e-14
3.15622e-14
1e-14
7.07371e-14
1.32181e-14
1.02495e-14
1e-14
1.08125e-14
9.13638e-14
1e-14
1.16085e-12
1.17213e-13
1.31152e-12
1e-14
1e-14
1.02352e-14
4.58874e-14
1.19738e-14
5.06589e-14
1.0206e-14
1.70786e-14
2.5537e-14
3.74868e-13
2.03765e-14
6.44417e-14
1e-14
1.2012e-13
1.27675e-14
4.94223e-13
1.01569e-14
3.71905e-14
1e-14
1.65803e-14
1.01249e-14
5.14086e-14
1.19457e-14
8.33594e-13
1.12726e-12
1.43043e-14
3.1558e-14
1.37507e-13
1.56129e-14
1.11599e-13
1e-14
1e-14
1.00903e-14
3.43343e-13
1.30922e-14
3.37765e-14
1.02982e-14
4.72794e-13
1.73556e-14
2.4514e-14
3.5514e-13
1.16191e-12
9.11073e-14
1.15378e-12
1.9558e-14
4.17584e-13
1.17459e-12
8.19325e-14
1.17076e-12
2.45023e-14
8.9538e-13
1.15205e-12
9.09859e-14
1.16182e-12
1.0091e-14
3.43284e-13
1.93664e-14
1.73472e-14
1.02986e-14
4.72794e-13
3.37726e-14
1e-14
1e-14
1.42966e-14
1e-14
1.11595e-13
1.56064e-14
1.37259e-13
1.01604e-14
3.73827e-14
1.11176e-14
1.19627e-14
1.01281e-14
5.15579e-14
1.66393e-14
8.34001e-13
1.1273e-12
1e-14
4.94393e-13
1.27568e-14
1.71715e-14
2.78174e-13
6.48624e-14
2.05178e-14
3.75186e-13
1e-14
1e-14
3.79538e-14
1.02008e-14
1.20248e-14
5.07021e-14
4.64335e-14
1e-14
1.31194e-12
1.18178e-13
1.02895e-14
9.20968e-14
1.07957e-14
3.28836e-14
1.32695e-14
7.14774e-14
2.26786e-14
4.51628e-13
4.00403e-14
2.94466e-14
6.24496e-13
1.65919e-14
4.22809e-13
4.05166e-13
2.53163e-14
2.31537e-14
5.89561e-13
5.51447e-13
1.64821e-14
4.23414e-13
1.75711e-14
5.51165e-13
2.29343e-14
5.88835e-13
2.50666e-14
2.22235e-14
1.42788e-14
6.24262e-13
2.92048e-14
3.93389e-14
3.42109e-14
1e-14
7.01603e-14
1.31643e-14
1.02333e-14
1e-14
1.07433e-14
9.17808e-14
1e-14
1.16333e-12
1.18311e-13
1.3119e-12
1e-14
1e-14
1.02586e-14
4.57541e-14
1.18729e-14
4.96239e-14
1.01872e-14
1.69075e-14
2.5262e-14
3.75323e-13
2.03458e-14
6.4537e-14
1e-14
1.30263e-13
1.31886e-14
4.92449e-13
1.01419e-14
3.75789e-14
1e-14
1.6656e-14
1.01204e-14
5.15752e-14
1.18266e-14
8.40642e-13
1.12805e-12
1.40978e-14
3.37119e-14
1.39525e-13
1.54982e-14
1.10333e-13
1e-14
1e-14
1.0105e-14
3.44904e-13
1.28232e-14
3.40291e-14
1.03046e-14
4.73169e-13
1.70822e-14
2.66597e-14
3.75635e-13
1.16346e-12
8.91464e-14
1.14906e-12
2.11586e-14
4.38835e-13
1.1701e-12
8.03865e-14
1.16626e-12
2.66462e-14
8.97267e-13
1.14733e-12
8.9026e-14
1.16335e-12
1.01055e-14
3.44874e-13
1.9181e-14
1.70744e-14
1.03042e-14
4.73162e-13
3.40237e-14
1e-14
1e-14
1.40982e-14
1e-14
1.10352e-13
1.54987e-14
1.39483e-13
1.01422e-14
3.7641e-14
1.0958e-14
1.18277e-14
1.01214e-14
5.1592e-14
1.66633e-14
8.4062e-13
1.12821e-12
1e-14
4.9246e-13
1.31847e-14
1.69548e-14
2.79433e-13
6.46034e-14
2.03672e-14
3.75323e-13
1e-14
1e-14
3.72687e-14
1.01866e-14
1.18779e-14
4.96081e-14
4.58399e-14
1e-14
1.31234e-12
1.184e-13
1.0239e-14
9.18591e-14
1.07454e-14
3.4435e-14
1.31763e-14
7.02391e-14
2.22777e-14
4.53278e-13
3.93695e-14
2.92409e-14
6.24234e-13
1.65301e-14
4.23373e-13
4.05436e-13
2.51109e-14
2.29565e-14
5.88954e-13
5.50958e-13
1.65833e-14
4.23883e-13
1.76749e-14
5.5128e-13
2.29761e-14
5.88847e-13
2.51191e-14
2.23023e-14
1.43223e-14
6.24284e-13
2.92803e-14
3.93465e-14
3.496e-14
1e-14
7.03096e-14
1.31581e-14
1.02341e-14
1e-14
1.07369e-14
9.17533e-14
1e-14
1.1609e-12
1.18563e-13
1.31202e-12
1e-14
1e-14
1.02639e-14
4.58551e-14
1.18601e-14
4.94035e-14
1.01845e-14
1.69797e-14
2.55715e-14
3.75607e-13
2.03981e-14
6.4653e-14
1e-14
1.2992e-13
1.32818e-14
4.91616e-13
1.0137e-14
3.79675e-14
1e-14
1.67076e-14
1.01158e-14
5.1716e-14
1.17983e-14
8.41595e-13
1.1285e-12
1.40828e-14
3.42224e-14
1.40768e-13
1.54863e-14
1.10177e-13
1e-14
1e-14
1.01058e-14
3.45263e-13
1.278e-14
3.41075e-14
1.02972e-14
4.73338e-13
1.70624e-14
2.72419e-14
3.7586e-13
1.16368e-12
8.8868e-14
1.14804e-12
2.15732e-14
4.39304e-13
1.16906e-12
8.01695e-14
1.16524e-12
2.72241e-14
8.96858e-13
1.14637e-12
8.87401e-14
1.16369e-12
1.01062e-14
3.4522e-13
1.92499e-14
1.70542e-14
1.02969e-14
4.73304e-13
3.41055e-14
1e-14
1e-14
1.4083e-14
1e-14
1.10184e-13
1.54862e-14
1.4075e-13
1.01374e-14
3.79793e-14
1.09663e-14
1.17987e-14
1.01166e-14
5.17176e-14
1.67093e-14
8.41685e-13
1.12845e-12
1e-14
4.91596e-13
1.32783e-14
1.69847e-14
2.79649e-13
6.46687e-14
2.04019e-14
3.75607e-13
1e-14
1e-14
3.73942e-14
1.01842e-14
1.18614e-14
4.9394e-14
4.58724e-14
1e-14
1.31217e-12
1.18576e-13
1.0238e-14
9.17746e-14
1.07343e-14
3.50012e-14
1.31593e-14
7.03219e-14
2.23207e-14
4.53835e-13
3.93549e-14
2.92912e-14
6.24331e-13
1.65952e-14
4.23715e-13
4.05813e-13
2.51336e-14
2.29802e-14
5.88886e-13
5.50904e-13
1.65911e-14
4.23669e-13
1.76873e-14
5.51213e-13
2.30332e-14
5.89015e-13
2.51983e-14
2.23234e-14
1.42526e-14
6.24511e-13
2.94165e-14
3.95761e-14
3.5197e-14
1e-14
7.07171e-14
1.31539e-14
1.02327e-14
1e-14
1.07457e-14
9.16297e-14
1e-14
1.16009e-12
1.18642e-13
1.31189e-12
1e-14
1e-14
1.02628e-14
4.59787e-14
1.18539e-14
4.90815e-14
1.01823e-14
1.69912e-14
2.54826e-14
3.76023e-13
2.04337e-14
6.47364e-14
1e-14
1.29429e-13
1.33551e-14
4.90892e-13
1.0134e-14
3.8003e-14
1e-14
1.67362e-14
1.01095e-14
5.17372e-14
1.17713e-14
8.41969e-13
1.12866e-12
1.40659e-14
3.41592e-14
1.41878e-13
1.54725e-14
1.09987e-13
1e-14
1e-14
1.01033e-14
3.45398e-13
1.27724e-14
3.41055e-14
1.02903e-14
4.73317e-13
1.70522e-14
2.72851e-14
3.75445e-13
1.1637e-12
8.88598e-14
1.14791e-12
2.16032e-14
4.39051e-13
1.16882e-12
8.01799e-14
1.16501e-12
2.72737e-14
8.96861e-13
1.14621e-12
8.8737e-14
1.16366e-12
1.01039e-14
3.45351e-13
1.92739e-14
1.70445e-14
1.02898e-14
4.73311e-13
3.41018e-14
1e-14
1e-14
1.40662e-14
1e-14
1.09985e-13
1.54717e-14
1.41879e-13
1.01341e-14
3.8004e-14
1.09857e-14
1.17713e-14
1.01097e-14
5.17385e-14
1.67364e-14
8.4175e-13
1.12858e-12
1e-14
4.90853e-13
1.33538e-14
1.69924e-14
2.7973e-13
6.47442e-14
2.04352e-14
3.76042e-13
1e-14
1e-14
3.74915e-14
1.01822e-14
1.18537e-14
4.90859e-14
4.59804e-14
1e-14
1.31181e-12
1.18617e-13
1.0233e-14
9.16258e-14
1.07452e-14
3.52012e-14
1.31565e-14
7.07176e-14
2.23245e-14
4.53705e-13
3.95699e-14
2.94141e-14
6.24447e-13
1.65957e-14
4.23568e-13
4.05732e-13
2.51949e-14
2.30441e-14
5.88993e-13
5.51248e-13
1.65737e-14
4.23059e-13
1.76791e-14
5.51369e-13
2.31523e-14
5.89442e-13
2.53913e-14
2.23439e-14
1.41107e-14
6.24499e-13
2.9805e-14
4.03569e-14
3.56201e-14
1e-14
7.15605e-14
1.32267e-14
1.02219e-14
1e-14
1.08411e-14
9.16426e-14
1e-14
1.15887e-12
1.19237e-13
1.31153e-12
1e-14
1e-14
1.02563e-14
4.64411e-14
1.1842e-14
4.83004e-14
1.01789e-14
1.69815e-14
2.52648e-14
3.77174e-13
2.05069e-14
6.50115e-14
1e-14
1.28376e-13
1.34621e-14
4.89912e-13
1.01326e-14
3.79818e-14
1e-14
1.67768e-14
1.01012e-14
5.18798e-14
1.1744e-14
8.41955e-13
1.12884e-12
1.40108e-14
3.3857e-14
1.43418e-13
1.54913e-14
1.09994e-13
1e-14
1e-14
1.00909e-14
3.45558e-13
1.27584e-14
3.41364e-14
1.02879e-14
4.73257e-13
1.70727e-14
2.72409e-14
3.75228e-13
1.16365e-12
8.92566e-14
1.14748e-12
2.1587e-14
4.38863e-13
1.16841e-12
8.04228e-14
1.1646e-12
2.72235e-14
8.96746e-13
1.14579e-12
8.91415e-14
1.16357e-12
1.00912e-14
3.45512e-13
1.92419e-14
1.70638e-14
1.02871e-14
4.73256e-13
3.41298e-14
1e-14
1e-14
1.40101e-14
1e-14
1.09984e-13
1.54898e-14
1.43406e-13
1.01325e-14
3.79816e-14
1.10154e-14
1.1744e-14
1.01011e-14
5.18815e-14
1.67766e-14
8.41831e-13
1.12876e-12
1e-14
4.8991e-13
1.34615e-14
1.69832e-14
2.79701e-13
6.5012e-14
2.05074e-14
3.77186e-13
1e-14
1e-14
3.77475e-14
1.01788e-14
1.18425e-14
4.82961e-14
4.64474e-14
1e-14
1.31162e-12
1.19259e-13
1.02238e-14
9.16549e-14
1.08388e-14
3.56257e-14
1.32286e-14
7.15661e-14
2.2342e-14
4.52749e-13
4.03572e-14
2.98054e-14
6.24509e-13
1.65784e-14
4.22928e-13
4.05236e-13
2.53886e-14
2.31586e-14
5.89415e-13
5.51434e-13
1.62872e-14
4.20604e-13
1.73719e-14
5.52743e-13
2.39097e-14
5.91645e-13
2.64829e-14