/*--------------------------------*- C++ -*----------------------------------*\
| =========                 |                                                 |
| \\      /  F ield         | OpenFOAM: The Open Source CFD Toolbox           |
|  \\    /   O peration     | Version:  2.1.1                                 |
|   \\  /    A nd           | Web:      www.OpenFOAM.org                      |
|    \\/     M anipulation  |                                                 |
\*---------------------------------------------------------------------------*/
FoamFile
{
    version     2.0;
    format      ascii;
    class       surfaceScalarField;
    location    "0.0005";
    object      phi;
}
// * * * * * * * * * * * * * * * * * * * * * * * * * * * * * * * * * * * * * //

dimensions      [0 3 -1 0 0 0 0];

internalField   nonuniform List<scalar> 
29776
(
-3.06902e-12
-2.95213e-12
-8.97333e-14
6.11037e-12
4.03388e-12
2.87776e-12
1.04454e-09
6.90122e-11
6.92291e-11
-6.62831e-11
-6.64777e-11
5.73636e-12
-9.63962e-13
1.19594e-09
5.38957e-12
1.00223e-12
1.18401e-09
4.82052e-12
-4.24066e-13
1.17638e-09
3.94605e-12
1.04019e-13
1.17413e-09
3.22865e-12
-2.44477e-13
1.17035e-09
2.50884e-12
-1.28776e-13
1.16823e-09
1.95191e-12
-2.22863e-13
1.16625e-09
1.46491e-12
-2.00557e-13
1.16504e-09
1.08096e-12
-2.28696e-13
1.1642e-09
7.56245e-13
-2.24177e-13
1.16375e-09
4.83217e-13
-2.32939e-13
1.16363e-09
2.39119e-13
-2.30751e-13
1.16376e-09
-2.32383e-13
1.16405e-09
-2.624e-12
2.20094e-13
-2.95945e-12
-3.02049e-13
5.66541e-12
4.56072e-12
7.47964e-11
8.99703e-10
6.98529e-11
7.2997e-11
-6.53909e-11
-6.99392e-11
4.97067e-11
-6.98147e-11
-4.65928e-11
6.05107e-12
-2.03155e-12
1.2007e-09
5.38848e-12
2.66858e-12
1.19263e-09
4.64999e-12
-8.80027e-13
1.17781e-09
3.77907e-12
2.01493e-13
1.17444e-09
3.1206e-12
-5.30505e-13
1.17053e-09
2.44063e-12
-2.97609e-13
1.16836e-09
1.91669e-12
-4.80857e-13
1.16641e-09
1.44704e-12
-4.31052e-13
1.16518e-09
1.07078e-12
-4.79925e-13
1.16433e-09
7.48643e-13
-4.64979e-13
1.16384e-09
4.76891e-13
-4.78043e-13
1.16366e-09
2.37093e-13
-4.71798e-13
1.1637e-09
-4.71023e-13
1.16379e-09
1.94969e-11
-5.65543e-11
-1.60956e-11
1.82019e-11
1.09748e-10
2.16686e-12
2.35986e-12
1.02476e-09
4.76662e-11
6.13593e-11
-4.66238e-11
-6.03231e-11
5.39135e-12
2.75675e-12
1.19391e-09
4.61473e-12
1.23757e-13
1.18297e-09
4.09662e-12
2.57227e-13
1.17586e-09
3.24329e-12
-4.47475e-13
1.17186e-09
2.59092e-12
-4.50169e-13
1.16904e-09
1.97707e-12
-6.62677e-13
1.16703e-09
1.49922e-12
-6.77109e-13
1.1656e-09
1.09402e-12
-7.42759e-13
1.16467e-09
7.63609e-13
-7.37694e-13
1.16407e-09
4.8678e-13
-7.55469e-13
1.16386e-09
2.39831e-13
-7.42076e-13
1.16372e-09
-7.45835e-13
1.16364e-09
1.38349e-11
-5.83932e-11
-7.86499e-12
-1.83895e-11
2.42421e-12
7.58597e-11
1.36932e-11
-1.06752e-11
-1.0489e-11
9.98486e-13
2.40645e-12
1.03446e-09
6.45291e-11
6.66049e-11
-6.2101e-11
-6.43728e-11
4.38021e-12
1.29457e-12
1.19545e-09
3.80365e-12
4.08698e-13
1.18116e-09
3.55002e-12
-1.25211e-13
1.17512e-09
2.92166e-12
-5.98922e-13
1.17182e-09
2.40092e-12
-7.715e-13
1.16932e-09
1.88124e-12
-9.57845e-13
1.16747e-09
1.44758e-12
-1.00235e-12
1.166e-09
1.06441e-12
-1.06177e-12
1.1651e-09
7.42996e-13
-1.05556e-12
1.16444e-09
4.73973e-13
-1.08503e-12
1.16412e-09
2.32079e-13
-1.06472e-12
1.16385e-09
-1.07479e-12
1.16376e-09
-4.86741e-11
1.34787e-11
-1.81395e-11
6.18673e-11
-2.60385e-13
1.18564e-11
-1.02802e-11
-9.68266e-12
-1.01008e-11
1.37787e-11
8.70254e-12
-1.25461e-11
1.26109e-12
4.4702e-12
1.0447e-09
6.67686e-11
6.75822e-11
-6.47441e-11
-6.46101e-11
4.07945e-12
-2.03992e-13
1.19764e-09
3.7729e-12
5.52944e-13
1.18142e-09
3.46514e-12
-5.1836e-13
1.17537e-09
2.9396e-12
-9.19909e-13
1.17292e-09
2.42557e-12
-1.16616e-12
1.17026e-09
1.89631e-12
-1.32343e-12
1.16849e-09
1.46029e-12
-1.38423e-12
1.1669e-09
1.06435e-12
-1.44209e-12
1.16595e-09
7.47976e-13
-1.44073e-12
1.16511e-09
4.87119e-13
-1.49143e-12
1.16468e-09
2.37511e-13
-1.4426e-12
1.16433e-09
-1.4598e-12
1.1642e-09
-3.71864e-12
-5.83264e-13
-2.56848e-12
-3.32034e-13
7.20242e-12
2.45114e-12
6.6715e-11
9.05929e-10
6.76631e-11
6.84729e-11
-6.33781e-11
-6.53711e-11
4.67907e-11
-6.24625e-11
-4.45039e-11
4.3369e-12
-8.05402e-13
1.19304e-09
3.45621e-12
1.10561e-12
1.1849e-09
3.25671e-12
-1.15552e-12
1.17537e-09
2.73997e-12
-1.21697e-12
1.1736e-09
2.33472e-12
-1.68575e-12
1.17132e-09
1.84165e-12
-1.75351e-12
1.16961e-09
1.39863e-12
-1.8299e-12
1.16795e-09
1.00358e-12
-1.8881e-12
1.16693e-09
6.84886e-13
-1.87506e-12
1.16601e-09
4.3961e-13
-1.97055e-12
1.1656e-09
2.10703e-13
-1.91224e-12
1.16518e-09
-1.94791e-12
1.16504e-09
-3.93613e-11
1.31679e-11
-1.39206e-11
1.62812e-11
8.89092e-11
1.71719e-11
-7.74173e-12
-7.79151e-12
8.16747e-13
3.05615e-12
1.00931e-09
4.7621e-11
6.19692e-11
-4.69056e-11
-6.09765e-11
3.7484e-12
-1.63925e-12
1.18815e-09
2.7058e-12
-9.50454e-13
1.17959e-09
2.76006e-12
-2.05763e-12
1.17582e-09
2.26597e-12
-2.12999e-12
1.17351e-09
1.76815e-12
-2.24968e-12
1.17157e-09
1.3228e-12
-2.32759e-12
1.16966e-09
9.58357e-13
-2.41741e-12
1.1685e-09
6.69449e-13
-2.39701e-12
1.16748e-09
4.87587e-13
-2.58382e-12
1.16704e-09
2.32634e-13
-2.4372e-12
1.16642e-09
-2.50751e-12
1.16625e-09
3.07036e-13
-1.46089e-11
1.51901e-12
-3.01915e-12
2.30106e-12
1.3501e-11
1.48102e-12
6.82704e-11
9.2123e-10
6.4145e-11
6.43961e-11
-6.11072e-11
-6.17089e-11
4.6294e-11
-6.37966e-11
-4.51198e-11
2.83868e-12
-2.32861e-13
1.19282e-09
2.96306e-12
-1.44252e-12
1.19329e-09
2.52864e-12
-2.30021e-12
1.18012e-09
2.14032e-12
-2.52261e-12
1.17575e-09
1.68673e-12
-2.75256e-12
1.17358e-09
1.16881e-12
-2.74343e-12
1.17135e-09
7.7853e-13
-2.93582e-12
1.17028e-09
4.60998e-13
-2.92053e-12
1.16934e-09
3.07521e-13
-3.23834e-12
1.16905e-09
1.39884e-13
-3.11632e-12
1.16836e-09
-3.22887e-12
1.16822e-09
-2.75338e-11
1.05612e-11
-5.31741e-12
7.7192e-11
1.69233e-11
-6.42637e-12
-7.1688e-12
-7.9611e-12
1.58511e-11
1.11866e-11
-9.03555e-12
1.3136e-12
6.72085e-11
8.56822e-10
4.4502e-11
6.79618e-11
-4.39626e-11
-6.51712e-11
4.91632e-11
-6.41606e-11
-4.62471e-11
2.29209e-12
-8.4556e-13
1.19226e-09
2.31207e-12
-2.28009e-12
1.19767e-09
2.06344e-12
-2.95412e-12
1.18018e-09
1.21036e-12
-2.69015e-12
1.17588e-09
9.12333e-13
-3.26157e-12
1.17362e-09
6.01815e-13
-3.46478e-12
1.17294e-09
4.50087e-13
-3.55475e-12
1.17184e-09
5.31653e-13
-4.10025e-12
1.17189e-09
2.50819e-13
-3.78558e-12
1.17055e-09
-3.9584e-12
1.17034e-09
-9.49533e-13
5.88413e-13
-2.03347e-12
2.3946e-12
1.83826e-11
-5.83254e-11
-1.50852e-11
1.36544e-11
1.08583e-10
8.51327e-13
6.82924e-11
8.68066e-10
5.03297e-11
6.8184e-11
-4.80612e-11
-6.64117e-11
5.03964e-11
-6.65169e-11
-4.81113e-11
1.44278e-12
-1.30719e-12
1.19233e-09
9.31687e-13
-2.84083e-12
1.1935e-09
1.14549e-12
-3.77463e-12
1.17967e-09
5.29194e-13
-3.49244e-12
1.17543e-09
1.61821e-13
-3.8004e-12
1.17541e-09
-2.19015e-13
-3.82104e-12
1.17515e-09
-1.76511e-13
-4.62783e-12
1.17589e-09
-8.03059e-14
-4.66025e-12
1.17443e-09
-4.84228e-12
1.17409e-09
2.85441e-12
-1.01053e-11
1.42534e-12
5.82554e-12
1.88965e-11
-6.19144e-11
-1.53571e-11
1.32963e-11
1.13371e-10
2.84414e-13
6.79541e-11
8.57382e-10
4.44707e-11
-6.51866e-11
-4.3954e-11
4.91234e-11
6.7196e-11
-4.62132e-11
-6.41468e-11
1.65433e-12
-1.47369e-12
1.19313e-09
-1.13879e-12
-8.02298e-13
1.18819e-09
-6.0485e-13
-4.41569e-12
1.18493e-09
-4.47148e-13
-4.17649e-12
1.18143e-09
-1.26196e-13
-4.49239e-12
1.18118e-09
8.64057e-13
-5.45719e-12
1.18302e-09
4.2577e-13
-5.43527e-12
1.17786e-09
-5.45088e-12
1.1764e-09
3.16674e-12
-1.10019e-11
1.56724e-12
6.26795e-12
-3.83261e-11
1.9175e-11
-8.75081e-12
8.87743e-11
-7.9208e-12
1.29174e-11
1.11748e-11
-9.08902e-12
-3.14698e-12
6.43918e-11
9.21366e-10
4.63145e-11
6.82967e-11
-4.51246e-11
-6.37756e-11
6.41513e-11
-6.1707e-11
-6.1068e-11
8.35393e-13
6.18018e-11
1.00952e-09
4.74731e-11
-6.0969e-11
-4.6916e-11
2.95342e-13
-2.51417e-12
1.19316e-09
-1.16875e-12
-1.39337e-12
1.19767e-09
-2.63629e-12
-1.15805e-12
1.19538e-09
-2.59187e-12
-2.28927e-12
1.19391e-09
-9.55854e-13
-6.18925e-12
1.1926e-09
-5.88159e-12
1.18391e-09
-3.81085e-11
1.10498e-11
-7.26372e-12
8.91631e-11
1.96728e-11
-9.03929e-12
-9.73988e-12
-1.00591e-11
1.35705e-11
1.47683e-11
-9.62146e-12
-4.74995e-11
3.10488e-12
-5.99913e-12
1.41371e-11
9.80589e-11
-4.52122e-12
6.80099e-11
9.06313e-10
4.67764e-11
6.69238e-11
-4.4492e-11
-6.2319e-11
6.70805e-11
-6.56826e-11
-6.36988e-11
-2.43587e-12
6.75366e-11
1.04489e-09
6.62764e-11
-6.47248e-11
-6.47887e-11
-2.22068e-12
6.62889e-11
1.03459e-09
6.41337e-11
-6.43114e-11
-6.21507e-11
2.10169e-12
6.11646e-11
1.0249e-09
4.76249e-11
-6.03638e-11
-4.66804e-11
9.64141e-13
-4.53957e-12
1.20094e-09
-4.05649e-12
1.19615e-09
1.27291e-12
-1.12485e-11
6.58758e-13
-1.99082e-13
9.51594e-12
-4.02043e-11
1.16215e-11
-6.19283e-12
9.21355e-11
1.65637e-11
-7.88138e-12
-7.59147e-12
-9.3732e-12
1.2866e-11
1.44078e-11
-8.34139e-12
-3.85522e-11
3.01861e-13
5.58431e-12
8.95357e-11
-7.1872e-12
1.45234e-11
1.28496e-11
-9.51875e-12
-2.06334e-12
-4.87577e-11
-1.2014e-12
1.91372e-11
9.91739e-11
-4.01737e-11
5.44264e-12
-8.24746e-12
1.56078e-11
8.85356e-11
-2.90569e-12
7.21972e-11
9.00318e-10
6.9554e-11
-7.0238e-11
-6.55003e-11
4.96545e-11
7.46886e-11
-4.65735e-11
-6.96662e-11
6.88257e-11
1.04501e-09
6.8373e-11
-6.66681e-11
-6.65336e-11
-1.24024e-12
-3.12959e-13
-5.07581e-13
2.06078e-12
1.61507e-12
9.03764e-13
-1.41431e-11
1.87152e-13
2.06494e-12
9.37218e-12
4.16872e-12
3.39907e-13
-1.37369e-11
-1.497e-12
2.32425e-12
8.40105e-12
-5.97679e-11
2.17776e-11
-1.52556e-11
1.16891e-10
-9.57893e-12
1.11991e-11
1.42107e-11
-7.27877e-12
-4.14652e-11
6.56129e-12
-1.77057e-12
9.46592e-11
-9.86234e-12
1.53891e-11
1.54035e-11
-1.00894e-11
-3.24001e-12
-2.79056e-12
-8.75711e-14
6.12018e-12
3.43034e-13
1.68294e-12
1.0414e-09
6.63957e-11
6.67866e-11
-6.59534e-11
-6.61146e-11
1.38667e-12
-8.13359e-13
1.19571e-09
1.09306e-12
7.52036e-13
1.18355e-09
1.11195e-12
-2.45116e-13
1.1766e-09
9.0643e-13
1.58762e-13
1.17418e-09
7.66848e-13
-8.41496e-14
1.17057e-09
6.03666e-13
-1.13489e-14
1.16841e-09
4.72814e-13
-5.71554e-14
1.16644e-09
3.53642e-13
-4.29501e-14
1.1652e-09
2.59579e-13
-5.38476e-14
1.16435e-09
1.82183e-13
-5.10433e-14
1.16389e-09
1.17887e-13
-5.29343e-14
1.16376e-09
6.44123e-14
-5.4512e-14
1.16388e-09
-5.41911e-14
1.16416e-09
-2.7898e-12
2.22322e-13
-2.7796e-12
-3.01719e-13
5.64879e-12
1.16186e-12
7.23049e-11
8.96384e-10
6.70689e-11
7.02898e-11
-6.51558e-11
-6.97631e-11
4.83039e-11
-7.09743e-11
-4.82364e-11
2.17659e-12
-1.94454e-12
1.20081e-09
1.13058e-12
2.28649e-12
1.19214e-09
1.09501e-12
-5.67776e-13
1.17816e-09
8.68536e-13
3.28494e-13
1.1745e-09
7.40419e-13
-1.8642e-13
1.17076e-09
5.87642e-13
-3.4711e-14
1.16854e-09
4.65984e-13
-1.22315e-13
1.1666e-09
3.5188e-13
-9.28159e-14
1.16534e-09
2.60038e-13
-1.12881e-13
1.16448e-09
1.81761e-13
-1.07826e-13
1.16398e-09
1.15176e-13
-1.10763e-13
1.16378e-09
6.30925e-14
-1.10938e-13
1.16382e-09
-1.08314e-13
1.16391e-09
1.76707e-11
-5.78504e-11
-1.46902e-11
1.61619e-11
1.11013e-10
-1.14422e-12
1.1077e-12
1.02328e-09
4.69091e-11
6.05265e-11
-4.75568e-11
-6.03119e-11
1.42152e-12
1.28762e-12
1.19234e-09
8.19921e-13
-4.03053e-14
1.18304e-09
1.00181e-12
2.09286e-13
1.1758e-09
7.46577e-13
-1.21051e-13
1.17206e-09
6.3601e-13
-7.62659e-14
1.16919e-09
4.73183e-13
-1.51634e-13
1.16722e-09
3.65725e-13
-1.54151e-13
1.16577e-09
2.62078e-13
-1.73204e-13
1.16484e-09
1.84063e-13
-1.76242e-13
1.16422e-09
1.1731e-13
-1.78645e-13
1.164e-09
6.18216e-14
-1.76782e-13
1.16385e-09
-1.75186e-13
1.16377e-09
1.32428e-11
-5.89115e-11
-6.9537e-12
-1.63434e-11
1.94283e-12
7.55375e-11
1.31049e-11
-1.09325e-11
-1.06869e-11
-1.72025e-12
1.50252e-12
1.03426e-09
6.30378e-11
6.47193e-11
-6.21446e-11
-6.40812e-11
1.26298e-12
-1.8647e-13
1.19394e-09
6.37068e-13
3.49134e-13
1.1814e-09
8.89314e-13
-7.72831e-14
1.17516e-09
6.73251e-13
-9.64571e-14
1.17201e-09
5.98564e-13
-1.76621e-13
1.16949e-09
4.56333e-13
-2.04993e-13
1.16766e-09
3.57611e-13
-2.35148e-13
1.16618e-09
2.56991e-13
-2.44873e-13
1.16527e-09
1.8022e-13
-2.5317e-13
1.1646e-09
1.13797e-13
-2.5705e-13
1.16427e-09
5.9437e-14
-2.55746e-13
1.16399e-09
-2.56423e-13
1.1639e-09
-4.88143e-11
1.29398e-11
-1.55094e-11
6.16579e-11
9.5457e-14
1.12799e-11
-1.05324e-11
-9.8755e-12
-1.03047e-11
1.33085e-11
8.44119e-12
-1.26864e-11
-1.02655e-12
2.7146e-12
1.04348e-09
6.42005e-11
6.59091e-11
-6.48907e-11
-6.41813e-11
1.04652e-12
-9.48761e-13
1.19633e-09
7.03166e-13
5.77946e-13
1.18154e-09
8.1308e-13
-1.87505e-13
1.17538e-09
6.78526e-13
-1.84649e-13
1.17314e-09
5.84224e-13
-2.78528e-13
1.17046e-09
4.45208e-13
-2.94091e-13
1.16872e-09
3.46787e-13
-3.37617e-13
1.1671e-09
2.47535e-13
-3.41303e-13
1.16615e-09
1.76944e-13
-3.54264e-13
1.16528e-09
1.17595e-13
-3.61696e-13
1.16485e-09
6.08583e-14
-3.49679e-13
1.16448e-09
-3.51172e-13
1.16435e-09
-3.88161e-12
-5.31408e-13
-2.45003e-12
-3.36915e-13
7.19996e-12
8.7063e-13
6.58184e-11
9.04005e-10
6.46954e-11
6.6956e-11
-6.37916e-11
-6.58315e-11
4.59829e-11
-6.38638e-11
-4.61972e-11
1.79563e-12
-1.5737e-12
1.19274e-09
7.38279e-13
1.58358e-12
1.18496e-09
8.92634e-13
-5.27132e-13
1.17556e-09
6.60736e-13
-1.45948e-13
1.17379e-09
5.89542e-13
-4.44122e-13
1.17155e-09
4.5246e-13
-3.8681e-13
1.16984e-09
3.40262e-13
-4.4614e-13
1.16817e-09
2.36698e-13
-4.40547e-13
1.16714e-09
1.58345e-13
-4.54346e-13
1.16619e-09
9.78025e-14
-4.70561e-13
1.16577e-09
4.98397e-14
-4.65173e-13
1.16534e-09
-4.71373e-13
1.1652e-09
-4.04175e-11
1.22511e-11
-1.18821e-11
1.494e-11
9.06992e-11
1.6678e-11
-8.32975e-12
-8.12e-12
-1.89427e-12
2.91706e-12
1.00823e-09
4.63689e-11
6.07684e-11
-4.77521e-11
-6.08985e-11
1.33297e-12
-1.25986e-12
1.18777e-09
4.52724e-13
2.57973e-13
1.17969e-09
7.05665e-13
-6.17251e-13
1.17604e-09
5.30957e-13
-5.03471e-13
1.17375e-09
3.8724e-13
-5.24567e-13
1.17185e-09
2.92446e-13
-5.88502e-13
1.1699e-09
2.0449e-13
-5.82165e-13
1.16873e-09
1.53459e-13
-5.99362e-13
1.16768e-09
1.25866e-13
-6.34858e-13
1.16723e-09
6.30143e-14
-5.88861e-13
1.1666e-09
-6.04341e-13
1.16644e-09
-6.28879e-14
-1.43212e-11
1.5296e-12
-2.83658e-12
2.15733e-12
1.35337e-11
7.75662e-13
6.75374e-11
9.19551e-10
6.24448e-11
6.35991e-11
-6.16216e-11
-6.22388e-11
4.51265e-11
-6.43398e-11
-4.66831e-11
7.62581e-13
1.02345e-15
1.19157e-09
9.91345e-13
-4.38966e-13
1.19376e-09
6.44658e-13
-3.90254e-13
1.18025e-09
5.04848e-13
-6.43331e-13
1.17603e-09
4.38712e-13
-7.04838e-13
1.17382e-09
2.77908e-13
-6.64436e-13
1.17159e-09
1.81474e-13
-6.82766e-13
1.17048e-09
8.55289e-14
-6.78704e-13
1.16951e-09
4.52256e-14
-7.48355e-13
1.16921e-09
2.24452e-14
-7.43108e-13
1.16854e-09
-7.71762e-13
1.1684e-09
-2.88547e-11
9.95785e-12
-3.22328e-12
7.88233e-11
1.6595e-11
-6.90434e-12
-7.48891e-12
-8.30595e-12
1.55265e-11
1.07556e-11
-9.34254e-12
-5.56794e-13
6.57543e-11
8.55644e-10
4.30058e-11
6.70468e-11
-4.50384e-11
-6.47448e-11
4.81453e-11
-6.47815e-11
-4.76497e-11
6.55828e-13
8.93329e-14
1.19052e-09
3.98444e-13
-5.97798e-13
1.19814e-09
6.17575e-13
-9.88396e-13
1.18031e-09
1.39664e-13
-4.51845e-13
1.17611e-09
1.82324e-13
-9.07416e-13
1.17382e-09
9.55381e-14
-8.23531e-13
1.17317e-09
1.23542e-13
-9.02599e-13
1.17204e-09
1.90242e-13
-1.0116e-12
1.17208e-09
9.00888e-14
-8.78068e-13
1.17078e-09
-9.21273e-13
1.17057e-09
-9.767e-13
5.52503e-13
-1.98204e-12
2.40624e-12
1.72426e-11
-6.00091e-11
-1.37539e-11
1.20116e-11
1.10263e-10
-8.73877e-14
6.72613e-11
8.67416e-10
4.94658e-11
6.71583e-11
-4.94162e-11
-6.6791e-11
4.95221e-11
-6.69029e-11
-4.94709e-11
3.97588e-13
6.42633e-13
1.19061e-09
-2.76361e-13
-7.8052e-13
1.19397e-09
5.21422e-13
-1.35966e-12
1.17979e-09
1.92536e-13
-7.59238e-13
1.17562e-09
9.26083e-14
-7.29697e-13
1.17542e-09
-1.84303e-13
-6.66128e-13
1.17519e-09
-3.06038e-13
-8.44554e-13
1.17585e-09
-1.37221e-13
-1.11902e-12
1.1745e-09
-1.15353e-12
1.17417e-09
2.66321e-12
-9.94081e-12
1.47258e-12
5.80502e-12
1.78867e-11
-6.37129e-11
-1.37962e-11
1.1826e-11
1.15058e-10
2.4166e-14
6.70449e-11
8.56247e-10
4.29855e-11
-6.47527e-11
-4.50182e-11
4.81128e-11
6.5752e-11
-4.7611e-11
-6.47577e-11
1.25228e-12
-7.82356e-13
1.1919e-09
-1.62055e-12
1.83539e-12
1.18787e-09
-5.94225e-13
-1.88346e-12
1.18503e-09
-3.55369e-13
-1.1245e-12
1.18159e-09
4.87623e-14
-1.3357e-12
1.18144e-09
5.82958e-13
-1.47701e-12
1.18312e-09
2.56062e-13
-1.15433e-12
1.17822e-09
-1.13851e-12
1.17662e-09
2.96731e-12
-1.08378e-11
1.61048e-12
6.26006e-12
-3.97273e-11
1.78492e-11
-6.96992e-12
9.02122e-11
-8.3088e-12
1.26456e-11
1.06499e-11
-9.30563e-12
-2.94085e-12
6.35853e-11
9.19685e-10
4.51437e-11
6.75551e-11
-4.66917e-11
-6.43273e-11
6.24415e-11
-6.22458e-11
-6.16191e-11
1.62998e-12
6.07411e-11
1.00837e-09
4.63532e-11
-6.09132e-11
-4.77586e-11
9.64697e-13
-8.94089e-13
1.19284e-09
1.97535e-13
8.94532e-13
1.19642e-09
-1.23993e-12
1.51972e-12
1.19396e-09
-2.25052e-12
1.00193e-12
1.19244e-09
-6.48134e-13
-2.305e-12
1.19215e-09
-1.50411e-12
1.1836e-09
-3.91805e-11
1.05701e-11
-5.87739e-12
9.09072e-11
1.93741e-11
-9.48276e-12
-1.0127e-11
-1.0475e-11
1.34888e-11
1.44205e-11
-1.00324e-11
-4.91433e-11
2.40085e-12
-4.69452e-12
1.22746e-11
9.99034e-11
-2.69407e-12
6.69766e-11
9.04195e-10
4.599e-11
6.58708e-11
-4.62018e-11
-6.38404e-11
6.47075e-11
-6.58177e-11
-6.37677e-11
-1.44322e-12
6.58729e-11
1.04357e-09
6.42275e-11
-6.42164e-11
-6.49217e-11
-1.03225e-12
6.47152e-11
1.03431e-09
6.29997e-11
-6.41386e-11
-6.2197e-11
2.05051e-12
6.0486e-11
1.02343e-09
4.68599e-11
-6.03562e-11
-4.76057e-11
8.59494e-13
-1.19188e-12
1.20102e-09
-3.50294e-13
1.19582e-09
9.90031e-13
-1.09683e-11
5.92767e-13
-2.43988e-13
9.62946e-12
-4.10568e-11
1.10932e-11
-4.9151e-12
9.37927e-11
1.61756e-11
-8.34566e-12
-7.92957e-12
-9.75001e-12
1.25303e-11
1.40157e-11
-8.63394e-12
-3.94562e-11
-1.96513e-13
5.55419e-12
9.0779e-11
-7.49192e-12
1.41441e-11
1.23242e-11
-9.78416e-12
-1.9065e-12
-5.00217e-11
-9.81222e-13
1.7143e-11
1.00482e-10
-4.18865e-11
4.88725e-12
-6.47459e-12
1.39184e-11
9.00417e-11
-1.67518e-12
7.03213e-11
8.96791e-10
6.71322e-11
-6.97491e-11
-6.5169e-11
4.82768e-11
7.23642e-11
-4.82342e-11
-7.09315e-11
6.68505e-11
1.04179e-09
6.64004e-11
-6.61218e-11
-6.59521e-11
-1.21926e-12
-3.53136e-13
-5.1817e-13
2.09056e-12
1.23511e-12
9.02388e-13
-1.37702e-11
1.66561e-13
2.06222e-12
9.40393e-12
3.74039e-12
3.30385e-13
-1.33934e-11
-1.29411e-12
2.37839e-12
8.23833e-12
-6.06791e-11
2.03091e-11
-1.44406e-11
1.17956e-10
-9.92538e-12
1.09181e-11
1.37366e-11
-7.55316e-12
-4.23964e-11
6.12496e-12
-1.57478e-12
9.55073e-11
-1.0231e-11
1.49364e-11
1.49101e-11
-1.04265e-11
-3.27767e-12
-2.7741e-12
-8.54495e-14
6.13729e-12
-2.6165e-12
4.76728e-13
1.04353e-09
6.59945e-11
6.64655e-11
-6.61536e-11
-6.63073e-11
-2.56015e-12
-2.05093e-13
1.19584e-09
-2.91245e-12
2.13781e-13
1.18368e-09
-2.45758e-12
-4.34216e-14
1.17618e-09
-2.05134e-12
9.2372e-14
1.17368e-09
-1.63347e-12
7.42563e-14
1.17008e-09
-1.27452e-12
9.73571e-14
1.16794e-09
-9.89799e-13
1.05744e-13
1.16604e-09
-7.51774e-13
1.12203e-13
1.16484e-09
-5.59668e-13
1.20299e-13
1.16403e-09
-3.92942e-13
1.2012e-13
1.1636e-09
-2.50453e-13
1.24341e-13
1.16349e-09
-1.17807e-13
1.21322e-13
1.16363e-09
1.23236e-13
1.16392e-09
-2.82275e-12
2.22486e-13
-2.76076e-12
-2.99052e-13
5.66007e-12
-1.75935e-12
7.15252e-11
8.98435e-10
6.67718e-11
7.00734e-11
-6.53624e-11
-6.98729e-11
4.78817e-11
-7.19574e-11
-4.88759e-11
-1.86884e-12
-7.79075e-13
1.20149e-09
-2.84993e-12
8.84628e-13
1.19245e-09
-2.33426e-12
-2.95267e-13
1.1779e-09
-1.98559e-12
2.16076e-13
1.17403e-09
-1.58348e-12
1.53521e-13
1.17028e-09
-1.24226e-12
2.16683e-13
1.16807e-09
-9.67955e-13
2.29776e-13
1.1662e-09
-7.37286e-13
2.40117e-13
1.16498e-09
-5.50348e-13
2.53033e-13
1.16416e-09
-3.87714e-13
2.49234e-13
1.16368e-09
-2.4873e-13
2.57239e-13
1.16351e-09
-1.16588e-13
2.51052e-13
1.16356e-09
2.54948e-13
1.16365e-09
1.72818e-11
-5.80138e-11
-1.48078e-11
1.56714e-11
1.11393e-10
-3.41135e-12
2.56128e-13
1.02524e-09
4.70014e-11
6.10309e-11
-4.75685e-11
-6.00394e-11
-2.44239e-12
-3.15883e-13
1.19258e-09
-2.63712e-12
-2.41546e-13
1.18319e-09
-2.00181e-12
7.55976e-14
1.1753e-09
-1.67639e-12
2.2422e-13
1.17166e-09
-1.28094e-12
2.84534e-13
1.16873e-09
-1.00742e-12
3.53458e-13
1.16682e-09
-7.58442e-13
3.61934e-13
1.1654e-09
-5.6728e-13
3.91502e-13
1.16451e-09
-3.96697e-13
3.83413e-13
1.16391e-09
-2.54524e-13
3.99245e-13
1.16371e-09
-1.2015e-13
3.9001e-13
1.16357e-09
3.97031e-13
1.1635e-09
1.31987e-11
-5.92497e-11
-6.57113e-12
-1.61103e-11
1.66827e-12
7.57246e-11
1.31181e-11
-1.10433e-11
-1.07354e-11
-2.64114e-12
2.72337e-13
1.0357e-09
6.28559e-11
6.47065e-11
-6.23284e-11
-6.40472e-11
-1.79851e-12
-1.37651e-12
1.19416e-09
-2.24302e-12
1.16839e-13
1.18148e-09
-1.72858e-12
4.19e-14
1.17468e-09
-1.51452e-12
4.2518e-13
1.1716e-09
-1.17557e-12
4.13295e-13
1.16903e-09
-9.4615e-13
5.35477e-13
1.16725e-09
-7.20992e-13
5.20257e-13
1.1658e-09
-5.44154e-13
5.63373e-13
1.16492e-09
-3.81961e-13
5.44647e-13
1.16427e-09
-2.47143e-13
5.68568e-13
1.16396e-09
-1.1618e-13
5.5189e-13
1.1637e-09
5.61553e-13
1.16361e-09
-4.90521e-11
1.29207e-11
-1.51973e-11
6.17597e-11
2.06416e-13
1.12759e-11
-1.06074e-11
-9.92537e-12
-1.03976e-11
1.33142e-11
8.44907e-12
-1.27463e-11
-1.96509e-12
7.90527e-13
1.04498e-09
6.37985e-11
6.56879e-11
-6.52164e-11
-6.4326e-11
-1.84054e-12
-1.69041e-12
1.19652e-09
-2.09323e-12
1.80236e-13
1.18173e-09
-1.77927e-12
1.83268e-13
1.17492e-09
-1.51654e-12
5.47866e-13
1.17276e-09
-1.22553e-12
5.9968e-13
1.16998e-09
-9.81806e-13
7.16369e-13
1.16829e-09
-7.50009e-13
6.96676e-13
1.16669e-09
-5.63809e-13
7.49358e-13
1.16577e-09
-3.90778e-13
7.19978e-13
1.16493e-09
-2.51501e-13
7.58693e-13
1.16452e-09
-1.17478e-13
7.37155e-13
1.16416e-09
7.5257e-13
1.16404e-09
-3.91787e-12
-5.20834e-13
-2.44618e-12
-3.36627e-13
7.2215e-12
-2.25955e-13
6.52979e-11
9.04578e-10
6.42968e-11
6.68114e-11
-6.41255e-11
-6.6048e-11
4.56719e-11
-6.47186e-11
-4.67407e-11
-7.58232e-13
-1.4175e-12
1.193e-09
-1.758e-12
9.46999e-13
1.18519e-09
-1.39877e-12
1.39256e-13
1.17524e-09
-1.37669e-12
8.94914e-13
1.17342e-09
-1.11995e-12
7.84864e-13
1.17111e-09
-9.11875e-13
9.49376e-13
1.1694e-09
-6.9909e-13
9.08278e-13
1.16774e-09
-5.21761e-13
9.79497e-13
1.16673e-09
-3.61454e-13
9.43605e-13
1.16581e-09
-2.38406e-13
1.00687e-12
1.1654e-09
-1.09517e-13
9.66229e-13
1.16499e-09
9.90345e-13
1.16485e-09
-4.06883e-11
1.21637e-11
-1.19281e-11
1.46199e-11
9.11091e-11
1.6665e-11
-8.45188e-12
-8.19039e-12
-2.63698e-12
1.83555e-12
1.00845e-09
4.64819e-11
6.11325e-11
-4.77299e-11
-6.07253e-11
-8.70793e-13
-1.08643e-12
1.18804e-09
-1.63592e-12
1.08543e-12
1.17951e-09
-1.28095e-12
7.98971e-13
1.17578e-09
-1.1654e-12
1.08483e-12
1.17333e-09
-9.54803e-13
1.16061e-12
1.17143e-09
-7.20838e-13
1.114e-12
1.16946e-09
-5.38871e-13
1.22171e-12
1.1683e-09
-3.54468e-13
1.17102e-12
1.16726e-09
-2.29134e-13
1.27944e-12
1.16683e-09
-1.03665e-13
1.23859e-12
1.16621e-09
1.27355e-12
1.16605e-09
-1.58517e-13
-1.43123e-11
1.52518e-12
-2.78793e-12
2.1378e-12
1.35958e-11
3.28185e-14
6.73047e-11
9.19849e-10
6.22664e-11
6.34384e-11
-6.1946e-11
-6.2559e-11
4.48899e-11
-6.48319e-11
-4.70563e-11
-1.39884e-12
-2.14318e-13
1.19213e-09
-1.04798e-12
5.37879e-13
1.19396e-09
-1.22694e-12
1.2045e-12
1.18002e-09
-1.09112e-12
1.21762e-12
1.17576e-09
-7.92836e-13
1.27507e-12
1.17341e-09
-6.04143e-13
1.36792e-12
1.17115e-09
-4.14577e-13
1.5097e-12
1.17e-09
-2.8313e-13
1.50749e-12
1.16904e-09
-2.13549e-13
1.67238e-12
1.16875e-09
-9.51083e-14
1.57757e-12
1.16808e-09
1.62505e-12
1.16794e-09
-2.9033e-11
9.88726e-12
-3.21808e-12
7.92058e-11
1.6616e-11
-7.00486e-12
-7.54225e-12
-8.40717e-12
1.55198e-11
1.07041e-11
-9.42208e-12
-1.10296e-12
6.55386e-11
8.56009e-10
4.30185e-11
6.71309e-11
-4.5122e-11
-6.48321e-11
4.79792e-11
-6.51982e-11
-4.79923e-11
-1.01485e-12
1.40274e-13
1.19083e-09
-1.20528e-12
1.02665e-12
1.1985e-09
-8.08649e-13
1.04745e-12
1.18009e-09
-9.05725e-13
1.62705e-12
1.17586e-09
-5.55956e-13
1.3851e-12
1.17346e-09
-4.30125e-13
1.76677e-12
1.17279e-09
-2.24257e-13
1.71511e-12
1.17163e-09
-1.49214e-13
1.99151e-12
1.17169e-09
-6.60456e-14
1.97387e-12
1.1703e-09
2.03848e-12
1.17008e-09
-9.74713e-13
5.44405e-13
-1.98115e-12
2.41146e-12
1.70198e-11
-6.03111e-11
-1.36305e-11
1.17706e-11
1.10691e-10
-1.2824e-13
6.73236e-11
8.67774e-10
4.94012e-11
6.72216e-11
-4.96726e-11
-6.69919e-11
4.9458e-11
-6.71037e-11
-4.97265e-11
-5.42247e-13
1.11048e-12
1.19094e-09
-1.09786e-12
1.39336e-12
1.19418e-09
-1.47703e-13
8.56825e-13
1.17961e-09
-1.85391e-13
1.73843e-12
1.1753e-09
-3.9516e-14
2.07394e-12
1.17497e-09
-6.85985e-14
2.21941e-12
1.17471e-09
-2.09959e-13
2.62137e-12
1.17536e-09
-8.80686e-14
2.30775e-12
1.17404e-09
2.42631e-12
1.17367e-09
2.62841e-12
-9.96428e-12
1.49925e-12
5.83663e-12
1.77115e-11
-6.40457e-11
-1.35226e-11
1.16872e-11
1.15494e-10
2.10228e-13
6.7129e-11
8.56621e-10
4.29982e-11
-6.4842e-11
-4.51034e-11
4.79418e-11
6.55342e-11
-4.79576e-11
-6.51746e-11
1.06757e-12
-3.45714e-14
1.19247e-09
-9.72378e-13
2.60402e-12
1.18816e-09
-1.94546e-13
7.13685e-13
1.18527e-09
-1.24781e-13
1.80081e-12
1.18179e-09
2.41068e-13
1.76365e-12
1.18153e-09
3.03394e-13
2.41547e-12
1.18326e-09
5.56653e-14
2.82828e-12
1.17795e-09
2.87342e-12
1.17621e-09
2.93132e-12
-1.0871e-11
1.64327e-12
6.29638e-12
-3.99392e-11
1.77074e-11
-6.71704e-12
9.06369e-11
-8.42437e-12
1.26548e-11
1.05708e-11
-9.35961e-12
-1.86698e-12
6.3428e-11
9.19989e-10
4.4908e-11
6.73191e-11
-4.70652e-11
-6.48257e-11
6.22626e-11
-6.25599e-11
-6.19382e-11
1.41314e-12
6.11125e-11
1.00857e-09
4.64756e-11
-6.07345e-11
-4.77302e-11
1.68743e-12
1.89723e-13
1.19308e-09
1.38565e-12
1.91678e-12
1.1966e-09
3.32757e-13
2.58768e-12
1.19419e-09
-8.35042e-13
3.37391e-12
1.19265e-09
-2.02649e-13
1.81873e-12
1.19253e-09
2.49757e-12
1.18373e-09
-3.97219e-11
1.05275e-11
-5.64754e-12
9.13354e-11
1.93839e-11
-9.56105e-12
-1.02035e-11
-1.0567e-11
1.35545e-11
1.44038e-11
-1.00756e-11
-4.92558e-11
2.26957e-12
-4.35238e-12
1.21634e-11
1.00287e-10
-7.87799e-13
6.68133e-11
9.04688e-10
4.56813e-11
6.53225e-11
-4.67423e-11
-6.47109e-11
6.43121e-11
-6.60665e-11
-6.41275e-11
-2.59868e-13
6.56852e-11
1.04505e-09
6.37962e-11
-6.43415e-11
-6.52334e-11
-2.45678e-13
6.46979e-11
1.03575e-09
6.2849e-11
-6.40642e-11
-6.23435e-11
8.17946e-13
6.10221e-11
1.02537e-09
4.6993e-11
-6.00615e-11
-4.75849e-11
2.88846e-13
1.72773e-12
1.20164e-09
2.57046e-12
1.19597e-09
9.42131e-13
-1.1e-11
5.8664e-13
-2.27856e-13
9.69913e-12
-4.16505e-11
1.10722e-11
-4.64862e-12
9.42629e-11
1.61507e-11
-8.42329e-12
-7.99971e-12
-9.83155e-12
1.25695e-11
1.3981e-11
-8.66912e-12
-3.987e-11
-3.28739e-13
5.72144e-12
9.11874e-11
-7.56143e-12
1.4119e-11
1.22514e-11
-9.83369e-12
-1.96738e-12
-5.03098e-11
-7.57624e-13
1.69361e-11
1.00797e-10
-4.18681e-11
4.68975e-12
-6.01053e-12
1.38587e-11
9.03529e-11
-4.2818e-13
7.00826e-11
8.98741e-10
6.67981e-11
-6.98913e-11
-6.53858e-11
4.78707e-11
7.1548e-11
-4.88753e-11
-7.19426e-11
6.65196e-11
1.04381e-09
6.59839e-11
-6.6311e-11
-6.61855e-11
-1.21087e-12
-3.73452e-13
-5.2023e-13
2.10455e-12
1.15859e-12
9.1009e-13
-1.37561e-11
1.71783e-13
2.06942e-12
9.4462e-12
3.61206e-12
3.3721e-13
-1.3399e-11
-1.20196e-12
2.39408e-12
8.25758e-12
-6.12539e-11
2.01901e-11
-1.42849e-11
1.18444e-10
-1.00107e-11
1.09155e-11
1.36873e-11
-7.60411e-12
-4.28206e-11
6.02042e-12
-1.5142e-12
9.59422e-11
-1.03225e-11
1.4881e-11
1.4839e-11
-1.05059e-11
-3.28657e-12
-2.77634e-12
-8.49656e-14
6.14757e-12
-5.79965e-12
1.13751e-13
1.04928e-09
6.61249e-11
6.66162e-11
-6.63303e-11
-6.6486e-11
-7.13387e-12
8.74049e-13
1.19629e-09
-7.11879e-12
-9.87931e-14
1.18375e-09
-6.14223e-12
3.06792e-13
1.17489e-09
-5.00842e-12
9.2515e-14
1.17244e-09
-4.01403e-12
2.47983e-13
1.16882e-09
-3.1244e-12
2.0753e-13
1.16684e-09
-2.42696e-12
2.71025e-13
1.16506e-09
-1.83577e-12
2.66931e-13
1.16398e-09
-1.36132e-12
2.92368e-13
1.16326e-09
-9.5387e-13
2.87761e-13
1.16291e-09
-6.07701e-13
2.97293e-13
1.16285e-09
-2.92905e-13
2.91467e-13
1.16302e-09
2.95359e-13
1.16334e-09
-2.8333e-12
2.21845e-13
-2.76251e-12
-2.9913e-13
5.6731e-12
-5.83013e-12
7.0869e-11
9.06335e-10
6.69432e-11
7.04014e-11
-6.55363e-11
-6.98882e-11
4.74441e-11
-7.27846e-11
-4.94076e-11
-6.73795e-12
9.59366e-13
1.20231e-09
-7.15632e-12
-5.66214e-14
1.19282e-09
-5.93084e-12
3.60832e-13
1.17662e-09
-4.86327e-12
2.3222e-13
1.17282e-09
-3.89093e-12
5.13637e-13
1.16904e-09
-3.04454e-12
4.64599e-13
1.16697e-09
-2.37577e-12
5.82865e-13
1.16522e-09
-1.80591e-12
5.69915e-13
1.16411e-09
-1.34412e-12
6.1352e-13
1.16338e-09
-9.44521e-13
5.99975e-13
1.16297e-09
-6.03565e-13
6.17929e-13
1.16285e-09
-2.89626e-13
6.04489e-13
1.16293e-09
6.10056e-13
1.16305e-09
1.71702e-11
-5.82051e-11
-1.52489e-11
1.52762e-11
1.11876e-10
-7.32862e-12
-1.2766e-13
1.03119e-09
4.73858e-11
6.19654e-11
-4.74185e-11
-5.94758e-11
-6.7489e-12
-2.13337e-12
1.19407e-09
-6.27914e-12
-3.0529e-13
1.18338e-09
-5.06959e-12
-3.30727e-14
1.17436e-09
-4.08184e-12
5.6202e-13
1.17062e-09
-3.18296e-12
6.48082e-13
1.16765e-09
-2.46565e-12
8.56052e-13
1.16583e-09
-1.86494e-12
8.7229e-13
1.16449e-09
-1.38079e-12
9.48119e-13
1.16369e-09
-9.65847e-13
9.32994e-13
1.16317e-09
-6.17553e-13
9.66408e-13
1.16301e-09
-2.96314e-13
9.45131e-13
1.16291e-09
9.57239e-13
1.16286e-09
1.32052e-11
-5.94907e-11
-6.27838e-12
-1.63693e-11
1.45387e-12
7.61315e-11
1.3184e-11
-1.11026e-11
-1.07336e-11
-5.30575e-12
-9.12457e-13
1.03894e-09
6.32956e-11
6.53397e-11
-6.21283e-11
-6.36597e-11
-5.35829e-12
-2.62474e-12
1.1947e-09
-5.28082e-12
-1.61126e-14
1.18112e-09
-4.40205e-12
1.87614e-13
1.17358e-09
-3.68611e-12
9.4029e-13
1.1705e-09
-2.93347e-12
1.01079e-12
1.16791e-09
-2.32786e-12
1.27342e-12
1.16623e-09
-1.78349e-12
1.26967e-12
1.16486e-09
-1.33139e-12
1.36044e-12
1.16406e-09
-9.33896e-13
1.32887e-12
1.16348e-09
-6.00631e-13
1.37943e-12
1.16322e-09
-2.86442e-13
1.34431e-12
1.16298e-09
1.36377e-12
1.16292e-09
-4.92346e-11
1.29371e-11
-1.53071e-11
6.20806e-11
2.90205e-13
1.13118e-11
-1.06439e-11
-9.93252e-12
-1.04378e-11
1.32896e-11
8.45505e-12
-1.28086e-11
-4.17971e-12
-1.19399e-12
1.04915e-09
6.39256e-11
6.59476e-11
-6.52972e-11
-6.42842e-11
-5.15613e-12
-2.27689e-12
1.19715e-09
-5.04549e-12
-8.11206e-14
1.18168e-09
-4.43895e-12
6.46885e-13
1.17386e-09
-3.7078e-12
1.29428e-12
1.17167e-09
-3.02766e-12
1.50282e-12
1.16881e-09
-2.3931e-12
1.73205e-12
1.1672e-09
-1.83444e-12
1.72883e-12