/*--------------------------------*- C++ -*----------------------------------*\
| =========                 |                                                 |
| \\      /  F ield         | OpenFOAM: The Open Source CFD Toolbox           |
|  \\    /   O peration     | Version:  2.1.1                                 |
|   \\  /    A nd           | Web:      www.OpenFOAM.org                      |
|    \\/     M anipulation  |                                                 |
\*---------------------------------------------------------------------------*/
FoamFile
{
    version     2.0;
    format      ascii;
    class       volScalarField;
    location    "0.0025";
    object      Th;
}
// * * * * * * * * * * * * * * * * * * * * * * * * * * * * * * * * * * * * * //

dimensions      [0 0 0 0 0 0 0];

internalField   nonuniform List<scalar> 
10260
(
3.08406e-13
1.01485e-14
1.00002e-14
1.00002e-14
1.00001e-14
1.00001e-14
1.00002e-14
1.00002e-14
1.00002e-14
1.00001e-14
1e-14
1e-14
1.00001e-14
1.00003e-14
1.00001e-14
3.45827e-13
1.04713e-14
1.00009e-14
1e-14
1.00001e-14
1e-14
1e-14
1e-14
1e-14
1e-14
1e-14
1e-14
1e-14
1.00001e-14
1e-14
1e-14
1e-14
1e-14
1e-14
1e-14
1e-14
1e-14
1e-14
1e-14
1e-14
1e-14
1e-14
1e-14
1.00002e-14
1.09549e-14
1.00066e-14
1e-14
1e-14
1e-14
1e-14
1e-14
1e-14
1e-14
1.00001e-14
1.00001e-14
1e-14
1e-14
1.00002e-14
1.90413e-14
1.0012e-14
1.00001e-14
1e-14
1e-14
1e-14
1e-14
1.00001e-14
1.00001e-14
1e-14
1e-14
1.00001e-14
1.00001e-14
1e-14
2.12741e-13
1.07366e-14
1.0001e-14
1e-14
1e-14
1e-14
1e-14
1.00001e-14
1.00001e-14
1e-14
1e-14
1.00001e-14
1e-14
1.00001e-14
1.06309e-14
1.00111e-14
1e-14
1e-14
1e-14
1e-14
1e-14
1e-14
1e-14
1e-14
1e-14
1e-14
1.00001e-14
1e-14
1.1199e-14
1.00009e-14
1e-14
1e-14
1e-14
1e-14
1.00001e-14
1.00001e-14
1.00001e-14
1.00001e-14
1e-14
1e-14
1.35771e-14
1.00298e-14
1e-14
1.00001e-14
1e-14
1e-14
1e-14
1e-14
1.00001e-14
1.00001e-14
1e-14
1e-14
6.76711e-13
1e-14
1.00319e-14
1.00001e-14
1e-14
1e-14
1e-14
1e-14
1e-14
1e-14
1e-14
1e-14
4.64539e-13
1.00024e-14
1.00297e-14
1.00009e-14
1e-14
1e-14
1e-14
1e-14
1e-14
1e-14
1e-14
4.34813e-13
1.14222e-14
1.11988e-14
1.00112e-14
1.00011e-14
1e-14
1.00001e-14
1e-14
1e-14
1e-14
1.09392e-14
1e-14
1.0744e-14
1.00123e-14
1.00069e-14
1e-14
1.00009e-14
1.00005e-14
1.56496e-13
1.33957e-14
1.01026e-14
1e-14
1e-14
1.04771e-14
1.01567e-14
8.56327e-13
1e-14
1e-14
1.07056e-14
1.3102e-14
3.10368e-13
1.01342e-14
1.00001e-14
1.00001e-14
1.00002e-14
1.00002e-14
1.00002e-14
1.00002e-14
1.00002e-14
1e-14
1e-14
1e-14
1e-14
1.00002e-14
1.00002e-14
3.4899e-13
1.04314e-14
1.00004e-14
1e-14
1e-14
1e-14
1e-14
1e-14
1e-14
1e-14
1e-14
1e-14
1e-14
1e-14
1e-14
1e-14
1e-14
1e-14
1e-14
1e-14
1e-14
1e-14
1e-14
1e-14
1e-14
1e-14
1e-14
1e-14
1.00001e-14
1.09066e-14
1.00058e-14
1e-14
1e-14
1e-14
1e-14
1e-14
1e-14
1e-14
1e-14
1e-14
1e-14
1e-14
1.00001e-14
1.92317e-14
1.00103e-14
1e-14
1e-14
1e-14
1e-14
1e-14
1e-14
1e-14
1e-14
1e-14
1e-14
1e-14
1e-14
2.14366e-13
1.06902e-14
1.00005e-14
1e-14
1e-14
1e-14
1e-14
1e-14
1e-14
1e-14
1e-14
1e-14
1e-14
1e-14
1.05825e-14
1.00099e-14
1e-14
1e-14
1e-14
1e-14
1e-14
1e-14
1e-14
1e-14
1e-14
1e-14
1.00001e-14
1e-14
1.11229e-14
1.00005e-14
1e-14
1e-14
1e-14
1e-14
1e-14
1.00001e-14
1.00001e-14
1.00001e-14
1e-14
1e-14
1.35382e-14
1.00258e-14
1e-14
1e-14
1e-14
1e-14
1e-14
1e-14
1e-14
1e-14
1e-14
1e-14
6.77684e-13
1e-14
1.00282e-14
1e-14
1e-14
1e-14
1e-14
1e-14
1e-14
1e-14
1e-14
1e-14
4.74593e-13
1e-14
1.00257e-14
1.00005e-14
1e-14
1e-14
1e-14
1e-14
1e-14
1e-14
1e-14
4.44602e-13
1.13687e-14
1.1123e-14
1.00099e-14
1.00005e-14
1e-14
1e-14
1e-14
1e-14
1e-14
1.12533e-14
1e-14
1.06909e-14
1.00104e-14
1.00059e-14
1e-14
1.00004e-14
1.00002e-14
1.60428e-13
1.36895e-14
1.01049e-14
1e-14
1e-14
1.04322e-14
1.01357e-14
8.5348e-13
1e-14
1e-14
1.07972e-14
1.30969e-14
3.10609e-13
1.0131e-14
1e-14
1.00001e-14
1.00001e-14
1.00001e-14
1.00001e-14
1.00001e-14
1.00001e-14
1.00001e-14
1e-14
1e-14
1e-14
1.00001e-14
1.00002e-14
3.49272e-13
1.04223e-14
1e-14
1e-14
1e-14
1e-14
1e-14
1e-14
1e-14
1e-14
1e-14
1e-14
1e-14
1e-14
1e-14
1e-14
1e-14
1e-14
1e-14
1e-14
1e-14
1e-14
1e-14
1e-14
1e-14
1e-14
1e-14
1e-14
1.00001e-14
1.09132e-14
1.00056e-14
1e-14
1e-14
1e-14
1e-14
1e-14
1e-14
1e-14
1e-14
1e-14
1e-14
1e-14
1.00001e-14
1.93655e-14
1.00103e-14
1e-14
1e-14
1e-14
1e-14
1e-14
1e-14
1e-14
1e-14
1e-14
1e-14
1e-14
1e-14
2.14465e-13
1.06802e-14
1.00001e-14
1e-14
1e-14
1e-14
1e-14
1e-14
1e-14
1e-14
1e-14
1e-14
1e-14
1e-14
1.05894e-14
1.00095e-14
1e-14
1e-14
1e-14
1e-14
1e-14
1e-14
1e-14
1e-14
1e-14
1e-14
1e-14
1e-14
1.11094e-14
1.00002e-14
1e-14
1e-14
1e-14
1e-14
1e-14
1.00001e-14
1e-14
1e-14
1e-14
1.00001e-14
1.35628e-14
1.00252e-14
1e-14
1e-14
1e-14
1e-14
1e-14
1e-14
1e-14
1e-14
1e-14
1.00001e-14
6.77471e-13
1e-14
1.00276e-14
1e-14
1e-14
1e-14
1e-14
1e-14
1e-14
1e-14
1e-14
1.00001e-14
4.74688e-13
1e-14
1.0025e-14
1.00002e-14
1e-14
1e-14
1e-14
1e-14
1e-14
1e-14
1.00001e-14
4.44567e-13
1.13668e-14
1.11095e-14
1.00096e-14
1.00002e-14
1e-14
1e-14
1e-14
1e-14
1e-14
1.13134e-14
1e-14
1.06808e-14
1.00102e-14
1.00057e-14
1e-14
1e-14
1e-14
1.60274e-13
1.37446e-14
1.01067e-14
1e-14
1e-14
1.04224e-14
1.01312e-14
8.523e-13
1e-14
1e-14
1.08088e-14
1.31274e-14
3.10588e-13
1.01301e-14
1e-14
1e-14
1.00001e-14
1e-14
1e-14
1.00001e-14
1.00002e-14
1.00001e-14
1e-14
1e-14
1.00001e-14
1.00001e-14
1.00001e-14
3.49213e-13
1.04226e-14
1e-14
1e-14
1e-14
1e-14
1e-14
1.00001e-14
1e-14
1e-14
1e-14
1e-14
1e-14
1e-14
1e-14
1e-14
1e-14
1e-14
1e-14
1e-14
1e-14
1e-14
1e-14
1e-14
1e-14
1e-14
1e-14
1e-14
1e-14
1.09137e-14
1.00055e-14
1e-14
1e-14
1e-14
1e-14
1e-14
1e-14
1e-14
1e-14
1e-14
1e-14
1e-14
1e-14
1.94048e-14
1.00103e-14
1e-14
1e-14
1e-14
1e-14
1e-14
1e-14
1e-14
1e-14
1e-14
1e-14
1e-14
1e-14
2.14522e-13
1.06795e-14
1e-14
1e-14
1e-14
1e-14
1e-14
1e-14
1e-14
1e-14
1e-14
1e-14
1e-14
1e-14
1.05945e-14
1.00093e-14
1e-14
1e-14
1e-14
1e-14
1e-14
1e-14
1e-14
1e-14
1e-14
1e-14
1e-14
1e-14
1.11079e-14
1e-14
1e-14
1e-14
1e-14
1e-14
1e-14
1e-14
1e-14
1e-14
1e-14
1.00001e-14
1.35694e-14
1.0025e-14
1e-14
1e-14
1e-14
1e-14
1e-14
1e-14
1e-14
1e-14
1e-14
1.00001e-14
6.77482e-13
1e-14
1.00276e-14
1e-14
1e-14
1e-14
1e-14
1e-14
1e-14
1e-14
1.00001e-14
1.00001e-14
4.7452e-13
1e-14
1.00248e-14
1e-14
1e-14
1e-14
1e-14
1.00001e-14
1e-14
1e-14
1e-14
4.44392e-13
1.13646e-14
1.11078e-14
1.00094e-14
1e-14
1e-14
1e-14
1e-14
1e-14
1e-14
1.12855e-14
1e-14
1.06798e-14
1.00103e-14
1.00056e-14
1e-14
1e-14
1e-14
1.6001e-13
1.36943e-14
1.01064e-14
1e-14
1e-14
1.04224e-14
1.013e-14
8.51947e-13
1e-14
1e-14
1.07868e-14
1.31301e-14
3.10222e-13
1.01404e-14
1e-14
1e-14
1e-14
1e-14
1.00001e-14
1.00001e-14
1.00001e-14
1e-14
1e-14
1e-14
1.00001e-14
1e-14
1.00002e-14
3.48728e-13
1.04398e-14
1e-14
1e-14
1e-14
1e-14
1e-14
1e-14
1e-14
1e-14
1e-14
1e-14
1e-14
1e-14
1e-14
1e-14
1e-14
1e-14
1e-14
1e-14
1e-14
1e-14
1e-14
1e-14
1e-14
1e-14
1e-14
1e-14
1e-14
1.09187e-14
1.00055e-14
1e-14
1e-14
1e-14
1e-14
1e-14
1e-14
1e-14
1e-14
1e-14
1e-14
1e-14
1e-14
1.94918e-14
1.00111e-14
1e-14
1e-14
1e-14
1e-14
1e-14
1e-14
1e-14
1e-14
1e-14
1e-14
1e-14
1e-14
2.14558e-13
1.06851e-14
1e-14
1e-14
1e-14
1e-14
1e-14
1e-14
1e-14
1.00001e-14
1e-14
1e-14
1e-14
1e-14
1.06017e-14
1.0009e-14
1e-14
1e-14
1e-14
1e-14
1e-14
1e-14
1e-14
1e-14
1e-14
1e-14
1.00001e-14
1e-14
1.10835e-14
1e-14
1e-14
1e-14
1e-14
1e-14
1e-14
1e-14
1e-14
1e-14
1.00001e-14
1.00001e-14
1.3562e-14
1.00247e-14
1e-14
1e-14
1e-14
1e-14
1e-14
1e-14
1e-14
1.00001e-14
1.00001e-14
1e-14
6.77417e-13
1e-14
1.00276e-14
1e-14
1e-14
1e-14
1e-14
1e-14
1.00001e-14
1.00001e-14
1e-14
1e-14
4.74398e-13
1e-14
1.00246e-14
1e-14
1e-14
1e-14
1.00001e-14
1.00001e-14
1e-14
1e-14
1e-14
4.44251e-13
1.13607e-14
1.10829e-14
1.0009e-14
1e-14
1e-14
1e-14
1e-14
1e-14
1e-14
1.12202e-14
1e-14
1.06851e-14
1.00112e-14
1.00055e-14
1e-14
1e-14
1e-14
1.59416e-13
1.35897e-14
1.01052e-14
1e-14
1e-14
1.04398e-14
1.01403e-14
8.51369e-13
1e-14
1e-14
1.07631e-14
1.31321e-14
3.08925e-13
1.01047e-14
1e-14
1e-14
1e-14
1e-14
1.00001e-14
1.00001e-14
1e-14
1e-14
1e-14
1e-14
1e-14
1e-14
1.00002e-14
3.47e-13
1.04265e-14
1e-14
1e-14
1e-14
1e-14
1e-14
1e-14
1e-14
1e-14
1e-14
1e-14
1e-14
1e-14
1e-14
1e-14
1e-14
1e-14
1e-14
1e-14
1e-14
1e-14
1e-14
1e-14
1e-14
1e-14
1e-14
1e-14
1e-14
1.09452e-14
1.00052e-14
1e-14
1e-14
1e-14
1e-14
1e-14
1e-14
1e-14
1e-14
1e-14
1e-14
1e-14
1e-14
1.98039e-14
1.00088e-14
1e-14
1e-14
1e-14
1e-14
1e-14
1e-14
1e-14
1.00001e-14
1e-14
1e-14
1e-14
1.00001e-14
2.14441e-13
1.06714e-14
1e-14
1e-14
1e-14
1e-14
1e-14
1e-14
1e-14
1e-14
1e-14
1e-14
1e-14
1.00001e-14
1.06092e-14
1.00077e-14
1e-14
1e-14
1e-14
1e-14
1e-14
1e-14
1e-14
1e-14
1e-14
1.00001e-14
1.00001e-14
1e-14
1.11877e-14
1e-14
1e-14
1e-14
1e-14
1e-14
1e-14
1e-14
1e-14
1.00001e-14
1e-14
1e-14
1.35023e-14
1.00294e-14
1e-14
1e-14
1e-14
1e-14
1e-14
1e-14
1.00001e-14
1.00001e-14
1e-14
1e-14
6.76903e-13
1e-14
1.00298e-14
1e-14
1e-14
1e-14
1.00001e-14
1.00001e-14
1e-14
1e-14
1e-14
1e-14
4.73864e-13
1e-14
1.00292e-14
1e-14
1e-14
1.00001e-14
1.00001e-14
1e-14
1e-14
1e-14
1e-14
4.43589e-13
1.13456e-14
1.11873e-14
1.00077e-14
1e-14
1e-14
1e-14
1e-14
1e-14
1e-14
1.10462e-14
1e-14
1.06714e-14
1.00087e-14
1.00053e-14
1e-14
1e-14
1e-14
1.57598e-13
1.33919e-14
1.01016e-14
1e-14
1e-14
1.04266e-14
1.01049e-14
8.49498e-13
1e-14
1e-14
1.0719e-14
1.30799e-14
3.00878e-13
1.03243e-14
1e-14
1e-14
1e-14
1e-14
1e-14
1e-14
1e-14
1e-14
1e-14
1e-14
1e-14
1e-14
1e-14
3.38703e-13
1.07529e-14
1e-14
1e-14
1e-14
1e-14
1e-14
1e-14
1e-14
1e-14
1e-14
1e-14
1e-14
1e-14
1e-14
1e-14
1e-14
1e-14
1e-14
1e-14
1e-14
1e-14
1e-14
1e-14
1e-14
1e-14
1e-14
1e-14
1e-14
1.06904e-14
1.00065e-14
1e-14
1e-14
1e-14
1e-14
1e-14
1e-14
1e-14
1e-14
1e-14
1e-14
1e-14
1e-14
1.95938e-14
1.00258e-14
1e-14
1e-14
1e-14
1e-14
1e-14
1e-14
1e-14
1e-14
1e-14
1e-14
1e-14
1.00001e-14
2.12693e-13
1.08657e-14
1e-14
1e-14
1e-14
1e-14
1e-14
1e-14
1e-14
1e-14
1e-14
1e-14
1.00001e-14
1e-14
1.06983e-14
1.0008e-14
1e-14
1e-14
1e-14
1e-14
1e-14
1e-14
1e-14
1e-14
1.00001e-14
1.00001e-14
1e-14
1e-14
1.1015e-14
1e-14
1e-14
1e-14
1e-14
1e-14
1e-14
1e-14
1e-14
1e-14
1e-14
1e-14
1.3915e-14
1.00019e-14
1e-14
1e-14
1e-14
1e-14
1e-14
1e-14
1e-14
1e-14
1e-14
1e-14
6.74784e-13
1e-14
1.00145e-14
1e-14
1e-14
1e-14
1.00001e-14
1e-14
1e-14
1e-14
1e-14
1.00001e-14
4.73138e-13
1.00216e-14
1.00018e-14
1e-14
1e-14
1e-14
1e-14
1e-14
1e-14
1.00001e-14
1.00001e-14
4.41086e-13
1.14947e-14
1.1015e-14
1.0008e-14
1e-14
1e-14
1e-14
1e-14
1e-14
1e-14
1.38905e-14
1e-14
1.08658e-14
1.00258e-14
1.00065e-14
1e-14
1e-14
1e-14
1.4671e-13
1.30328e-14
1.00745e-14
1e-14
1e-14
1.07532e-14
1.03245e-14
8.50447e-13
1e-14
1e-14
1.05474e-14
1.16999e-14
3.4243e-14
1.00773e-14
1e-14
1e-14
1e-14
1e-14
1.00001e-14
1e-14
1e-14
1e-14
1e-14
1e-14
1e-14
1e-14
1e-14
2.92484e-14
1.0125e-14
1e-14
1e-14
1e-14
1e-14
1e-14
1e-14
1e-14
1e-14
1e-14
1e-14
1e-14
1e-14
1e-14
1e-14
1e-14
1e-14
1e-14
1e-14
1e-14
1e-14
1e-14
1e-14
1e-14
1e-14
1e-14
1e-14
1.00001e-14
1.03991e-14
1.0001e-14
1e-14
1e-14
1e-14
1e-14
1e-14
1e-14
1e-14
1e-14
1e-14
1e-14
1e-14
1.00001e-14
1.32267e-14
1.00052e-14
1e-14
1e-14
1e-14
1e-14
1e-14
1e-14
1e-14
1e-14
1e-14
1e-14
1e-14
1.00001e-14
3.12247e-14
1.00996e-14
1e-14
1e-14
1e-14
1e-14
1e-14
1e-14
1e-14
1e-14
1e-14
1e-14
1.00001e-14
1e-14
1.02471e-14
1.00011e-14
1e-14
1e-14
1e-14
1e-14
1e-14
1e-14
1e-14
1.00001e-14
1e-14
1e-14
1e-14
2.09308e-14
1.01032e-14
1e-14
1.00001e-14
1e-14
1e-14
1e-14
1e-14
1.00001e-14
1e-14
1e-14
1e-14
1e-14
1.12288e-14
1.00003e-14
1e-14
1e-14
1e-14
1e-14
1.00001e-14
1e-14
1e-14
1e-14
1e-14
1e-14
1e-14
1e-14
1.00012e-14
1e-14
1e-14
1e-14
1e-14
1e-14
1e-14
1e-14
1e-14
1.00001e-14
1e-14
1e-14
1.00003e-14
1e-14
1e-14
1e-14
1e-14
1e-14
1e-14
1.00001e-14
1.00001e-14
1e-14
1e-14
1.01031e-14
1.0001e-14
1e-14
1e-14
1e-14
1.00001e-14
1e-14
1e-14
1.27801e-14
1.00109e-14
1.00997e-14
1.00052e-14
1.0001e-14
1.00001e-14
1e-14
1e-14
1e-14
1.31775e-14
1e-14
1.00107e-14
1e-14
1.01252e-14
1.00775e-14
1e-14
3.76334e-14
1.19404e-14
1.22779e-14
1e-14
1.02522e-14
1.00142e-14
1e-14
1e-14
1e-14
1e-14
1e-14
1e-14
1e-14
1e-14
1e-14
1e-14
1e-14
1e-14
1.00001e-14
1.01111e-14
1.00218e-14
1e-14
1e-14
1e-14
1e-14
1e-14
1e-14
1e-14
1e-14
1e-14
1e-14
1e-14
1e-14
1e-14
1.00043e-14
1e-14
1e-14
1e-14
1e-14
1e-14
1e-14
1e-14
1e-14
1e-14
1e-14
1e-14
1e-14
1e-14
1e-14
1.00002e-14
1.00002e-14
1e-14
1e-14
1e-14
1e-14
1e-14
1e-14
1e-14
1e-14
1e-14
1e-14
1e-14
1e-14
1.00303e-14
1.00009e-14
1e-14
1e-14
1e-14
1e-14
1e-14
1e-14
1e-14
1e-14
1e-14
1e-14
1e-14
1.00001e-14
1.01302e-14
1.00144e-14
1e-14
1e-14
1e-14
1e-14
1e-14
1e-14
1e-14
1e-14
1e-14
1e-14
1e-14
1e-14
1.00042e-14
1.00002e-14
1e-14
1e-14
1e-14
1e-14
1e-14
1e-14
1e-14
1e-14
1e-14
1e-14
1e-14
1.0033e-14
1.00128e-14
1e-14
1e-14
1e-14
1e-14
1e-14
1e-14
1e-14
1e-14
1e-14
1e-14
1e-14
1.00222e-14
1e-14
1e-14
1e-14
1e-14
1e-14
1e-14
1e-14
1e-14
1e-14
1e-14
1e-14
1.00006e-14
1e-14
1.00001e-14
1e-14
1e-14
1e-14
1e-14
1e-14
1e-14
1e-14
1e-14
1.00001e-14
1.00001e-14
1e-14
1.00001e-14
1e-14
1e-14
1e-14
1e-14
1e-14
1.00001e-14
1.00001e-14
1e-14
1.00003e-14
1e-14
1.00128e-14
1.00002e-14
1e-14
1e-14
1.00001e-14
1.00001e-14
1e-14
1e-14
1.00302e-14
1e-14
1.00144e-14
1.00009e-14
1.00002e-14
1.00001e-14
1e-14
1e-14
1.00001e-14
1.00435e-14
1e-14
1.00003e-14
1e-14
1.00218e-14
1.00143e-14
1.01606e-14
1.00142e-14
1.00428e-14
1e-14
1.00022e-14
1.00022e-14
1e-14
1e-14
1e-14
1e-14
1e-14
1e-14
1e-14
1e-14
1e-14
1e-14
1e-14
1e-14
1.00002e-14
1.00006e-14
1.00034e-14
1e-14
1e-14
1e-14
1e-14
1e-14
1e-14
1e-14
1e-14
1e-14
1e-14
1e-14
1e-14
1e-14
1e-14
1e-14
1e-14
1e-14
1e-14
1e-14
1e-14
1e-14
1e-14
1e-14
1e-14
1e-14
1e-14
1e-14
1e-14
1e-14
1e-14
1e-14
1e-14
1e-14
1e-14
1e-14
1e-14
1e-14
1e-14
1e-14
1e-14
1e-14
1e-14
1.00002e-14
1.00001e-14
1e-14
1e-14
1e-14
1e-14
1e-14
1e-14
1e-14
1e-14
1e-14
1e-14
1e-14
1e-14
1.00006e-14
1.00018e-14
1e-14
1e-14
1e-14
1e-14
1e-14
1e-14
1e-14
1e-14
1e-14
1e-14
1e-14
1e-14
1.00001e-14
1e-14
1e-14
1e-14
1e-14
1e-14
1e-14
1e-14
1e-14
1e-14
1e-14
1e-14
1e-14
1.00001e-14
1.00015e-14
1e-14
1e-14
1e-14
1e-14
1e-14
1e-14
1e-14
1e-14
1e-14
1e-14
1e-14
1.00002e-14
1e-14
1e-14
1e-14
1e-14
1e-14
1e-14
1e-14
1e-14
1e-14
1e-14
1e-14
1e-14
1e-14
1e-14
1e-14
1e-14
1e-14
1e-14
1e-14
1e-14
1e-14
1e-14
1e-14
1e-14
1.00001e-14
1e-14
1e-14
1e-14
1e-14
1e-14
1e-14
1e-14
1e-14
1e-14
1e-14
1.00001e-14
1.00016e-14
1e-14
1e-14
1e-14
1e-14
1e-14
1e-14
1e-14
1.00002e-14
1e-14
1.00018e-14
1.00001e-14
1e-14
1e-14
1e-14
1e-14
1e-14
1.00004e-14
1e-14
1e-14
1e-14
1.00034e-14
1.00023e-14
1.0001e-14
1.00001e-14
1.00005e-14
1.00001e-14
1.00004e-14
1.00003e-14
1e-14
1e-14
1e-14
1e-14
1e-14
1e-14
1e-14
1e-14
1e-14
1e-14
1e-14
1.00001e-14
1.00001e-14
1.00001e-14
1.00005e-14
1e-14
1e-14
1e-14
1e-14
1e-14
1e-14
1e-14
1e-14
1e-14
1e-14
1e-14
1e-14
1e-14
1e-14
1e-14
1e-14
1e-14
1e-14
1e-14
1e-14
1e-14
1e-14
1e-14
1e-14
1e-14
1e-14
1e-14
1.00001e-14
1e-14
1e-14
1e-14
1e-14
1e-14
1e-14
1e-14
1e-14
1e-14
1e-14
1e-14
1e-14
1e-14
1.00001e-14
1e-14
1e-14
1e-14
1e-14
1e-14
1e-14
1e-14
1e-14
1e-14
1e-14
1e-14
1e-14
1e-14
1e-14
1e-14
1.00002e-14
1e-14
1e-14
1e-14
1e-14
1e-14
1e-14
1e-14
1e-14
1e-14
1e-14
1e-14
1e-14
1e-14
1e-14
1e-14
1e-14
1e-14
1e-14
1e-14
1e-14
1e-14
1e-14
1e-14
1e-14
1e-14
1e-14
1.00002e-14
1e-14
1e-14
1e-14
1e-14
1e-14
1e-14
1e-14
1e-14
1e-14
1e-14
1e-14
1e-14
1e-14
1e-14
1e-14
1e-14
1e-14
1e-14
1e-14
1e-14
1e-14
1e-14
1e-14
1e-14
1e-14
1e-14
1e-14
1e-14
1e-14
1e-14
1e-14
1e-14
1e-14
1e-14
1e-14
1e-14
1.00001e-14
1e-14
1e-14
1e-14
1e-14
1e-14
1e-14
1e-14
1e-14
1e-14
1e-14
1.00001e-14
1.00002e-14
1e-14
1e-14
1e-14
1e-14
1e-14
1e-14
1e-14
1e-14
1e-14
1.00002e-14
1e-14
1e-14
1e-14
1e-14
1e-14
1e-14
1e-14
1e-14
1e-14
1e-14
1.00005e-14
1.00004e-14
1e-14
1e-14
1e-14
1e-14
1e-14
1.00001e-14
1e-14
1e-14
1e-14
1e-14
1e-14
1e-14
1e-14
1e-14
1e-14
1e-14
1.00001e-14
1.00001e-14
1.00001e-14
1e-14
1.00001e-14
1e-14
1e-14
1e-14
1e-14
1e-14
1e-14
1e-14
1e-14
1e-14
1.00001e-14
1.00001e-14
1e-14
1.00001e-14
1e-14
1e-14
1e-14
1e-14
1e-14
1e-14
1e-14
1e-14
1e-14
1e-14
1e-14
1e-14
1e-14
1e-14
1.00001e-14
1e-14
1e-14
1e-14
1e-14
1e-14
1e-14
1e-14
1e-14
1e-14
1e-14
1e-14
1e-14
1e-14
1e-14
1e-14
1e-14
1e-14
1e-14
1e-14
1e-14
1e-14
1e-14
1e-14
1e-14
1e-14
1e-14
1e-14
1e-14
1e-14
1e-14
1e-14
1e-14
1e-14
1e-14
1e-14
1e-14
1e-14
1e-14
1e-14
1e-14
1e-14
1e-14
1.00001e-14
1e-14
1.00001e-14
1.00001e-14
1e-14
1e-14
1e-14
1e-14
1e-14
1e-14
1e-14
1e-14
1e-14
1.00001e-14
1e-14
1e-14
1e-14
1e-14
1e-14
1e-14
1e-14
1e-14
1e-14
1e-14
1e-14
1e-14
1e-14
1e-14
1e-14
1e-14
1e-14
1e-14
1e-14
1e-14
1e-14
1e-14
1e-14
1e-14
1e-14
1e-14
1e-14
1e-14
1e-14
1e-14
1e-14
1e-14
1e-14
1e-14
1e-14
1e-14
1e-14
1e-14
1e-14
1e-14
1e-14
1e-14
1e-14
1e-14
1e-14
1e-14
1e-14
1e-14
1e-14
1.00001e-14
1e-14
1e-14
1e-14
1e-14
1e-14
1e-14
1e-14
1e-14
1e-14
1e-14
1e-14
1e-14
1e-14
1e-14
1e-14
1e-14
1e-14
1e-14
1e-14
1e-14
1.00001e-14
1e-14
1e-14
1.00001e-14
1e-14
1e-14
1e-14
1e-14
1e-14
1e-14
1e-14
1.00001e-14
1.00001e-14
1.00001e-14
1e-14
1.00001e-14
1.00001e-14
1.00001e-14
1.00001e-14
1.00001e-14
1.00003e-14
1e-14
1e-14
1e-14
1e-14
1e-14
1e-14
1e-14
1e-14
1e-14
1e-14
1.00001e-14
1e-14
1e-14
1e-14
1.00001e-14
1e-14
1e-14
1e-14
1e-14
1e-14
1e-14
1e-14
1e-14
1e-14
1e-14
1e-14
1e-14
1e-14
1e-14
1.00001e-14
1e-14
1e-14
1e-14
1e-14
1e-14
1e-14
1e-14
1e-14
1e-14
1e-14
1e-14
1e-14
1e-14
1e-14
1e-14
1e-14
1e-14
1e-14
1.00001e-14
1e-14
1e-14
1e-14
1e-14
1e-14
1e-14
1e-14
1e-14
1e-14
1e-14
1e-14
1e-14
1.00001e-14
1.00001e-14
1e-14
1e-14
1e-14
1e-14
1e-14
1e-14
1e-14
1e-14
1e-14
1e-14
1e-14
1e-14
1e-14
1e-14
1e-14
1e-14
1e-14
1e-14
1e-14
1e-14
1e-14
1e-14
1e-14
1e-14
1e-14
1e-14
1e-14
1e-14
1e-14
1e-14
1e-14
1e-14
1e-14
1e-14
1e-14
1e-14
1e-14
1e-14
1e-14
1e-14
1e-14
1e-14
1e-14
1e-14
1e-14
1e-14
1e-14
1e-14
1e-14
1e-14
1e-14
1e-14
1e-14
1e-14
1e-14
1e-14
1e-14
1e-14
1.00001e-14
1e-14
1.00001e-14
1e-14
1e-14
1e-14
1e-14
1e-14
1e-14
1e-14
1e-14
1.00001e-14
1e-14
1e-14
1e-14
1e-14
1e-14
1e-14
1e-14
1e-14
1e-14
1.00001e-14
1.00001e-14
1.00001e-14
1e-14
1e-14
1e-14
1e-14
1.00001e-14
1e-14
1.00001e-14
1e-14
1e-14
1e-14
1e-14
1e-14
1e-14
1e-14
1.00001e-14
1e-14
1e-14
1e-14
1e-14
1.00001e-14
1.00001e-14
1.00001e-14
1.00001e-14
1.00001e-14
1e-14
1e-14
1.00001e-14
1.00001e-14
1e-14
1e-14
1.00001e-14
1.00004e-14
1e-14
1e-14
1e-14
1e-14
1e-14
1e-14
1e-14
1e-14
1e-14
1e-14
1e-14
1e-14
1e-14
1e-14
1.00001e-14
1e-14
1e-14
1e-14
1e-14
1e-14
1e-14
1e-14
1e-14
1e-14
1e-14
1e-14
1e-14
1e-14
1e-14
1.00001e-14
1e-14
1e-14
1e-14
1e-14
1e-14
1e-14
1e-14
1e-14
1e-14
1e-14
1e-14
1e-14
1e-14
1.00001e-14
1e-14
1e-14
1e-14
1.00001e-14
1.00001e-14
1e-14
1e-14
1e-14
1e-14
1e-14
1e-14
1e-14
1e-14
1e-14
1e-14
1e-14
1.00001e-14
1e-14
1e-14
1e-14
1e-14
1e-14
1e-14
1e-14
1e-14
1e-14
1e-14
1e-14
1.00001e-14
1e-14
1e-14
1e-14
1e-14
1e-14
1.00001e-14
1e-14
1e-14
1e-14
1e-14
1e-14
1e-14
1e-14
1e-14
1e-14
1e-14
1.00001e-14
1.00001e-14
1.00001e-14
1e-14
1e-14
1e-14
1e-14
1e-14
1e-14
1e-14
1e-14
1e-14
1.00001e-14
1.00001e-14
1.00001e-14
1e-14
1e-14
1e-14
1e-14
1e-14
1e-14
1e-14
1e-14
1e-14
1e-14
1.00001e-14
1e-14
1e-14
1e-14
1e-14
1e-14
1e-14
1.00001e-14
1.00001e-14
1e-14
1.00001e-14
1e-14
1e-14
1e-14
1e-14
1e-14
1e-14
1e-14
1e-14
1e-14
1e-14
1e-14
1e-14
1e-14
1e-14
1e-14
1e-14
1.00001e-14
1e-14
1e-14
1e-14
1e-14
1e-14
1e-14
1e-14
1e-14
1e-14
1.00001e-14
1e-14
1e-14
1e-14
1e-14
1e-14
1e-14
1e-14
1e-14
1e-14
1e-14
1.00002e-14
1e-14
1.00001e-14
1e-14
1e-14
1e-14
1e-14
1e-14
1.00001e-14
1.00001e-14
1e-14
1e-14
1e-14
1e-14
1.00004e-14
1e-14
1e-14
1e-14
1e-14
1e-14
1e-14
1e-14
1e-14
1e-14
1e-14
1e-14
1e-14
1e-14
1e-14
1.00001e-14
1e-14
1e-14
1e-14
1e-14
1e-14
1e-14
1e-14
1e-14
1e-14
1e-14
1e-14
1e-14
1.00001e-14
1.00001e-14
1.00001e-14
1e-14
1e-14
1e-14
1e-14
1e-14
1e-14
1e-14
1e-14
1e-14
1e-14
1e-14
1e-14
1e-14
1.00001e-14
1e-14
1e-14
1e-14
1.00001e-14
1.00001e-14
1e-14
1e-14
1e-14
1e-14
1e-14
1e-14
1e-14
1e-14
1e-14
1e-14
1e-14
1.00001e-14
1e-14
1e-14
1e-14
1e-14
1e-14
1e-14
1e-14
1e-14
1e-14
1e-14
1e-14
1e-14
1e-14
1e-14
1e-14
1e-14
1e-14
1e-14
1e-14
1e-14
1e-14
1e-14
1e-14
1e-14
1e-14
1e-14
1e-14
1e-14
1e-14
1e-14
1e-14
1e-14
1e-14
1e-14
1e-14
1e-14
1e-14
1e-14
1e-14
1.00001e-14
1e-14
1e-14
1e-14
1e-14
1e-14
1e-14
1e-14
1e-14
1e-14
1e-14
1e-14
1.00001e-14
1e-14
1e-14
1e-14
1e-14
1e-14
1e-14
1e-14
1e-14
1e-14
1.00001e-14
1e-14
1e-14
1e-14
1e-14
1e-14
1e-14
1e-14
1e-14
1e-14
1e-14
1.00001e-14
1e-14
1e-14
1e-14
1e-14
1e-14
1e-14
1e-14
1e-14
1e-14
1e-14
1e-14
1e-14
1e-14
1e-14
1e-14
1e-14
1.00001e-14
1e-14
1e-14
1e-14
1e-14
1e-14
1e-14
1.00001e-14
1e-14
1e-14
1e-14
1e-14
3.90299e-13
1.57985e-14
4.15799e-13
1.66065e-14
4.41083e-13
1.8365e-14
2.42275e-14
4.17162e-14
1.15717e-14
1.04058e-14
5.91277e-14
7.79622e-14
9.33827e-13
2.66102e-14
1.08128e-14
3.41731e-14
1.00887e-14
2.65204e-13
1.4538e-14
3.66947e-14
1.15753e-14
3.60868e-13
1.27309e-14
1.00563e-14
2.82914e-14
1.06648e-14
7.96437e-13
8.46364e-14
1.2273e-14
5.71872e-14
1e-14
2.06789e-14
1.01646e-14
3.40845e-13
1.258e-14
8.18259e-13
4.3284e-14
8.71907e-13
8.75263e-13
3.85655e-14
8.72221e-13
8.70363e-13
4.32139e-14
8.18283e-13
1.25755e-14
1.01659e-14
3.40838e-13
2.06799e-14
1e-14
5.71769e-14
1.22759e-14
8.49362e-14
1.0668e-14
1.00618e-14
2.8401e-14
1.28986e-14
7.95455e-13
3.60713e-13
1.17983e-14
3.59443e-14
1.46133e-14
2.65777e-13
1.0103e-14
1.07852e-14
3.40961e-14
2.61477e-14
9.33638e-13
7.16124e-14
5.80694e-14
1.02678e-14
1.16577e-14
4.18505e-14
2.3952e-14
1.83678e-14
4.42644e-13
1.66335e-14
1.57484e-14
4.17031e-13
3.90462e-13
1.26081e-14
3.23471e-13
1.30591e-14
3.85945e-13
1.4923e-14
4.12128e-13
1.57125e-14
1.48851e-14
1.06092e-14
4.37722e-13
1.71789e-14
2.17823e-14
1.50488e-14
1e-14
3.6689e-14
1.1271e-14
1.00799e-14
1e-14
1.0291e-14
5.39277e-14
1e-14
8.52375e-13
6.75129e-14
9.28934e-13
1e-14
1e-14
1.01018e-14
2.35068e-14
1.05232e-14
3.22531e-14
1.00966e-14
1.27903e-14
1.32493e-14
2.63831e-13
1.39289e-14
3.26048e-14
1e-14
1.55453e-13
1.19186e-14
3.58715e-13
1.00217e-14
1.8622e-14
1e-14
1.23986e-14
1.0036e-14
2.59181e-14
1.05246e-14
6.41718e-13
7.91829e-13
1.16802e-14
1.09401e-14
8.06943e-14
1.19568e-14
5.09192e-14
1.2489e-14
1e-14
1e-14
2.6877e-13
1.14219e-14
1.97447e-14
1.01156e-14
3.36583e-13
1.20806e-14
1.00203e-14
4.34815e-13
8.11812e-13
3.79321e-14
8.72517e-13
1e-14
4.63355e-13
8.74609e-13
3.36046e-14
8.71448e-13
1.00204e-14
6.76732e-13
8.70976e-13
3.78817e-14
8.11759e-13
1e-14
2.68737e-13
1.35779e-14
1.20779e-14
1.01156e-14
3.36581e-13
1.97428e-14
1.24897e-14
1e-14
1.1677e-14
1e-14
5.0918e-14
1.19554e-14
8.05684e-14
1.00224e-14
1.87356e-14
1.06437e-14
1.05301e-14
1.00371e-14
2.59913e-14
1.24212e-14
6.41796e-13
7.91829e-13
1e-14
3.58818e-13
1.1924e-14
1.28339e-14
2.13612e-13
3.2815e-14
1.39831e-14
2.6399e-13
1e-14
1e-14
1.93767e-14
1.00956e-14
1.05382e-14
3.22765e-14
2.3756e-14
1e-14
9.29129e-13
6.80646e-14
1.00894e-14
5.43326e-14
1.02855e-14
1.58238e-14
1.12913e-14
3.69899e-14
1.49146e-14
3.47974e-13
2.18852e-14
1.72427e-14
4.37978e-13
1.26415e-14
3.25397e-13
3.09969e-13
1.5777e-14
1.49768e-14
4.12391e-13
3.86041e-13
1.2628e-14
3.2585e-13
1.30791e-14
3.85975e-13
1.48942e-14
4.12056e-13
1.56836e-14
1.47963e-14
1.0783e-14
4.37935e-13
1.71608e-14
2.15041e-14
1.69408e-14
1e-14
3.61245e-14
1.12529e-14
1.00758e-14
1e-14
1.02643e-14
5.41255e-14
1e-14
8.53549e-13
6.80817e-14
9.28937e-13
1e-14
1e-14
1.01043e-14
2.34524e-14
1.04947e-14
3.17501e-14
1.0092e-14
1.27558e-14
1.3642e-14
2.64074e-13
1.3925e-14
3.25277e-14
1e-14
1.60485e-13
1.21067e-14
3.57973e-13
1.00205e-14
1.90814e-14
1e-14
1.24244e-14
1.00349e-14
2.58921e-14
1.04887e-14
6.44848e-13
7.92415e-13
1.16171e-14
1.1251e-14
8.17876e-14
1.19274e-14
4.98458e-14
1.39973e-14
1e-14
1.00018e-14
2.69507e-13
1.13685e-14
1.98271e-14
1.01145e-14
3.3693e-13
1.20074e-14
1.02327e-14
4.44572e-13
8.12636e-13
3.65672e-14
8.70836e-13
1e-14
4.73352e-13
8.73036e-13
3.2487e-14
8.69861e-13
1.02327e-14
6.7769e-13
8.69287e-13
3.6516e-14
8.12576e-13
1.00018e-14
2.69489e-13
1.35387e-14
1.20052e-14
1.01144e-14
3.36923e-13
1.98247e-14
1.40027e-14
1e-14
1.16177e-14
1e-14
4.98544e-14
1.1928e-14
8.17634e-14
1.00205e-14
1.91062e-14
1.0587e-14
1.04892e-14
1.00355e-14
2.58983e-14
1.24273e-14
6.44831e-13
7.92486e-13
1e-14
3.5798e-13
1.21069e-14
1.27719e-14
2.14336e-13
3.25489e-14
1.39316e-14
2.64075e-13
1e-14
1e-14
1.93034e-14
1.00919e-14
1.0496e-14
3.17408e-14
2.34832e-14
1e-14
9.2917e-13
6.81364e-14
1.00778e-14
5.41695e-14
1.02652e-14
1.70203e-14
1.12588e-14
3.61506e-14
1.48155e-14
3.48945e-13
2.15117e-14
1.71734e-14
4.37926e-13
1.26444e-14
3.2583e-13
3.1025e-13
1.56995e-14
1.49011e-14
4.12123e-13
3.85821e-13
1.26697e-14
3.26113e-13
1.31225e-14
3.86041e-13
1.49053e-14
4.12077e-13
1.5699e-14
1.48341e-14
1.08044e-14
4.37967e-13
1.71851e-14
2.14782e-14
1.73114e-14
1e-14
3.61317e-14
1.1251e-14
1.00769e-14
1e-14
1.0263e-14
5.41101e-14
1e-14
8.52342e-13
6.82266e-14
9.28974e-13
1e-14
1e-14
1.01065e-14
2.34726e-14
1.04904e-14
3.16455e-14
1.00914e-14
1.27864e-14
1.37391e-14
2.64222e-13
1.39396e-14
3.25165e-14
1e-14
1.60293e-13
1.21536e-14
3.57622e-13
1.00196e-14
1.92395e-14
1e-14
1.24376e-14
1.00335e-14
2.59059e-14
1.04797e-14
6.45312e-13
7.92707e-13
1.16154e-14
1.13115e-14
8.24632e-14
1.19216e-14
4.97009e-14
1.43246e-14
1e-14
1.0002e-14
2.69675e-13
1.13663e-14
1.98509e-14
1.01109e-14
3.37054e-13
1.20001e-14
1.02956e-14
4.44563e-13
8.12765e-13
3.63391e-14
8.70554e-13
1.00017e-14
4.73449e-13
8.72722e-13
3.22959e-14
8.69554e-13
1.0295e-14
6.77485e-13
8.69029e-13
3.62843e-14
8.12763e-13
1.00021e-14
2.6965e-13
1.35622e-14
1.19979e-14
1.01108e-14
3.37032e-13
1.98502e-14
1.43295e-14
1e-14
1.16157e-14
1e-14
4.97028e-14
1.19219e-14
8.24532e-14
1.00198e-14
1.92447e-14
1.05903e-14
1.04799e-14
1.0034e-14
2.59071e-14
1.24385e-14
6.45356e-13
7.92677e-13
1e-14
3.57606e-13
1.2152e-14
1.27881e-14
2.14464e-13
3.25252e-14
1.3941e-14
2.64221e-13
1e-14
1e-14
1.93761e-14
1.00913e-14
1.04907e-14
3.16398e-14
2.34792e-14
1e-14
9.2905e-13
6.8235e-14
1.00794e-14
5.41229e-14
1.02614e-14
1.73275e-14
1.12517e-14
3.61338e-14
1.48407e-14
3.49247e-13
2.14801e-14
1.71885e-14
4.37998e-13
1.26736e-14
3.26024e-13
3.10466e-13
1.57041e-14
1.49063e-14
4.12105e-13
3.85802e-13
1.26742e-14
3.26005e-13
1.31296e-14
3.86016e-13
1.49268e-14
4.12174e-13
1.57288e-14
1.48457e-14
1.07881e-14
4.381e-13
1.72377e-14
2.15749e-14
1.74149e-14
1e-14
3.63082e-14
1.12496e-14
1.00771e-14
1e-14
1.02666e-14
5.40504e-14
1e-14
8.51941e-13
6.82898e-14
9.28896e-13
1e-14
1e-14
1.01065e-14
2.35121e-14
1.04883e-14
3.14915e-14
1.00911e-14
1.27899e-14
1.36886e-14
2.64433e-13
1.39493e-14
3.2533e-14
1e-14
1.60006e-13
1.21886e-14
3.57297e-13
1.0019e-14
1.92336e-14
1e-14
1.24438e-14
1.00317e-14
2.58911e-14
1.04716e-14
6.45534e-13
7.92822e-13
1.16071e-14
1.12852e-14
8.30685e-14
1.19116e-14
4.96065e-14
1.43531e-14
1e-14
1.00017e-14
2.69746e-13
1.13639e-14
1.98485e-14
1.01086e-14
3.37048e-13
1.19953e-14
1.02973e-14
4.4436e-13
8.12774e-13
3.63245e-14
8.70547e-13
1.00018e-14
4.73308e-13
8.72647e-13
3.22887e-14
8.69484e-13
1.02975e-14
6.77484e-13
8.69016e-13
3.62737e-14
8.12745e-13
1.00018e-14
2.69717e-13
1.35693e-14
1.19932e-14
1.01083e-14
3.3704e-13
1.98469e-14
1.43616e-14
1e-14
1.16071e-14
1e-14
4.9604e-14
1.19114e-14
8.30689e-14
1.0019e-14
1.92349e-14
1.05947e-14
1.04714e-14
1.00318e-14
2.58925e-14
1.24439e-14
6.45407e-13
7.92769e-13
1e-14
3.57271e-13
1.21883e-14
1.27905e-14
2.14523e-13
3.25362e-14
1.39499e-14
2.64444e-13
1e-14
1e-14
1.9407e-14
1.0091e-14
1.04882e-14
3.14933e-14
2.35118e-14
1e-14
9.28858e-13
6.82755e-14
1.00768e-14
5.40485e-14
1.02666e-14
1.7415e-14
1.12511e-14
3.63087e-14
1.48457e-14
3.49187e-13
2.15724e-14
1.72366e-14
4.3807e-13
1.26762e-14
3.25953e-13
3.10434e-13
1.57276e-14
1.49309e-14
4.12167e-13
3.86013e-13
1.26708e-14
3.25709e-13
1.3133e-14
3.86094e-13
1.4972e-14
4.12412e-13
1.58013e-14
1.48631e-14
1.0764e-14
4.38129e-13
1.7394e-14
2.19335e-14
1.7573e-14
1e-14
3.66764e-14
1.12781e-14
1.00734e-14
1e-14
1.03046e-14
5.40825e-14
1e-14
8.51346e-13
6.86869e-14
9.28711e-13
1e-14
1e-14
1.01051e-14
2.36792e-14
1.04847e-14
3.11232e-14
1.00914e-14
1.27867e-14
1.35888e-14
2.65028e-13
1.39691e-14
3.26315e-14
1e-14
1.59412e-13
1.22443e-14
3.56936e-13
1.0018e-14
1.92018e-14
1e-14
1.24554e-14
1.00297e-14
2.59301e-14
1.04634e-14
6.45579e-13
7.92953e-13
1.15887e-14
1.12208e-14
8.39294e-14
1.1908e-14
4.96384e-14
1.43787e-14
1e-14
1.00009e-14
2.69839e-13
1.13604e-14
1.9858e-14
1.01086e-14
3.37023e-13
1.20008e-14
1.0293e-14
4.44252e-13
8.12733e-13
3.65249e-14
8.70478e-13
1.00016e-14
4.732e-13
8.72552e-13
3.24081e-14
8.69385e-13
1.02927e-14
6.77433e-13
8.68948e-13
3.64759e-14
8.12693e-13
1.00009e-14
2.69811e-13
1.35621e-14
1.19983e-14
1.01082e-14
3.37019e-13
1.9855e-14
1.43836e-14
1e-14
1.15884e-14
1e-14
4.96304e-14
1.19075e-14
8.39243e-14
1.00179e-14
1.92029e-14
1.06014e-14
1.04633e-14
1.00296e-14
2.59316e-14
1.24553e-14
6.45505e-13
7.92903e-13
1e-14
3.56933e-13
1.22443e-14
1.27875e-14
2.1455e-13
3.26309e-14
1.39692e-14
2.65035e-13
1e-14
1e-14
1.94918e-14
1.00913e-14
1.04848e-14
3.11203e-14
2.36824e-14
1e-14
9.28754e-13
6.87003e-14
1.00747e-14
5.40898e-14
1.03036e-14
1.75757e-14
1.12792e-14
3.6678e-14
1.48626e-14
3.48709e-13
2.19335e-14
1.73945e-14
4.38135e-13
1.26729e-14
3.25641e-13
3.10207e-13
1.58006e-14
1.49746e-14
4.12398e-13
3.86127e-13
1.26106e-14
3.24514e-13
1.308e-14
3.86748e-13
1.52009e-14
4.13569e-13
1.61481e-14
1.48915e-14
1.07198e-14
4.38909e-13
1.78784e-14
2.30562e-14
1.83045e-14
1e-14
3.73426e-14
1.14935e-14
1.00662e-14
1e-14
1.04475e-14
5.56981e-14
1e-14
8.49512e-13
7.01702e-14
9.29414e-13
1e-14
1e-14
1.01014e-14
2.45667e-14
1.04843e-14
3.16528e-14
1.01037e-14
1.27492e-14
1.3393e-14
2.66859e-13
1.40739e-14
3.30387e-14
1e-14
1.57611e-13
1.22985e-14
3.56066e-13
1.00158e-14
1.91992e-14
1e-14
1.24907e-14
1.0027e-14
2.63166e-14
1.0464e-14
6.45417e-13
7.94447e-13
1.15398e-14
1.10484e-14
8.75767e-14
1.19813e-14
5.14052e-14
1.44179e-14
1e-14
1.00035e-14
2.6986e-13
1.13453e-14
2.0108e-14
1.00978e-14
3.38677e-13
1.2068e-14
1.02927e-14
4.436e-13
8.13288e-13
3.76195e-14
8.7007e-13
1.00018e-14
4.72685e-13
8.72364e-13
3.28363e-14
8.69355e-13
1.02919e-14
6.76933e-13
8.68561e-13
3.75793e-14
8.13287e-13
1.00035e-14
2.69821e-13
1.35014e-14
1.20651e-14
1.00977e-14
3.38665e-13
2.01064e-14
1.44233e-14
1e-14
1.15395e-14
1e-14