/*--------------------------------*- C++ -*----------------------------------*\
| =========                 |                                                 |
| \\      /  F ield         | OpenFOAM: The Open Source CFD Toolbox           |
|  \\    /   O peration     | Version:  2.1.1                                 |
|   \\  /    A nd           | Web:      www.OpenFOAM.org                      |
|    \\/     M anipulation  |                                                 |
\*---------------------------------------------------------------------------*/
FoamFile
{
    version     2.0;
    format      ascii;
    class       surfaceScalarField;
    location    "0.0035";
    object      phi;
}
// * * * * * * * * * * * * * * * * * * * * * * * * * * * * * * * * * * * * * //

dimensions      [0 3 -1 0 0 0 0];

internalField   nonuniform List<scalar> 
29479
(
8.15503e-13
6.36486e-11
1.73424e-10
-2.50259e-12
8.6911e-12
5.73286e-11
1.51812e-10
-7.04367e-12
8.20722e-11
5.00241e-11
-3.74246e-11
2.0403e-12
3.46473e-11
2.56678e-10
-3.41589e-11
-3.24761e-12
4.85003e-12
3.34044e-11
2.53145e-10
-5.46249e-11
-3.45408e-12
-7.66757e-12
3.71633e-11
2.80122e-10
-7.83026e-11
1.49535e-11
-2.01895e-11
2.73612e-11
2.97626e-10
-7.86754e-11
1.96561e-11
-4.3497e-11
3.90415e-11
3.28781e-10
2.01442e-11
-1.94501e-11
7.49484e-11
1.48247e-10
-1.59452e-11
-3.9015e-14
2.1047e-11
2.48486e-10
-1.62972e-11
7.22869e-13
-8.01122e-13
2.11646e-11
2.47637e-10
-1.62965e-11
1.59021e-12
-2.83694e-12
2.02082e-11
2.49188e-10
-1.54939e-11
3.96076e-12
-8.79453e-12
1.91861e-11
2.53604e-10
-2.71986e-11
8.20335e-12
-1.15186e-11
2.55393e-11
2.5853e-10
-3.28731e-11
1.39767e-11
-2.13939e-11
2.88842e-11
2.6495e-10
-5.73249e-11
3.21004e-11
-3.012e-11
2.71832e-11
2.72555e-10
4.19655e-11
-1.22975e-11
5.71019e-11
1.65065e-10
-8.31759e-12
-2.19041e-13
1.08868e-11
2.48334e-10
-8.56645e-12
5.27928e-13
-1.02385e-12
1.08974e-11
2.48517e-10
-8.28541e-12
1.58805e-12
-2.91262e-12
1.08298e-11
2.48932e-10
-8.18527e-12
2.93362e-12
-7.14513e-12
1.17824e-11
2.50875e-10
-1.19984e-11
6.49465e-12
-1.03602e-11
1.57331e-11
2.50937e-10
-1.60345e-11
8.39796e-12
-1.28748e-11
2.08396e-11
2.51585e-10
-2.82792e-11
1.28614e-11
-1.20058e-11
2.95678e-11
2.51337e-10
-3.33198e-11
9.79304e-12
-1.76898e-11
3.10616e-11
2.63434e-10
-7.47821e-11
3.58398e-11
-6.40741e-11
3.7066e-11
3.41358e-10
2.00683e-11
2.83114e-11
6.92159e-11
-3.33333e-12
-1.92293e-13
6.02905e-12
2.47558e-10
-3.47168e-12
2.43087e-13
-8.02125e-13
6.08745e-12
2.47963e-10
-3.6133e-12
8.10427e-13
-1.91168e-12
6.26566e-12
2.48441e-10
-3.9908e-12
1.46033e-12
-3.92199e-12
6.94867e-12
2.49495e-10
-5.75643e-12
3.01093e-12
-6.11075e-12
8.99447e-12
2.49914e-10
-8.54522e-12
4.36213e-12
-8.80148e-12
1.23684e-11
2.5089e-10
-1.31759e-11
7.75135e-12
-1.1119e-11
1.71406e-11
2.50296e-10
-1.80433e-11
8.76356e-12
-1.20591e-11
2.20858e-11
2.51874e-10
-2.75478e-11
1.09281e-11
-1.21908e-11
2.7154e-11
2.56628e-10
-4.18106e-11
1.31305e-11
-2.6622e-11
3.01231e-11
2.74326e-10
2.36607e-11
4.72366e-11
9.5531e-11
-2.36021e-12
-2.02332e-13
4.42488e-12
2.48137e-10
-2.39749e-12
2.19628e-13
-7.23617e-13
4.48084e-12
2.48421e-10
-2.43401e-12
5.97151e-13
-1.43555e-12
4.61516e-12
2.48656e-10
-2.41667e-12
9.52733e-13
-2.46181e-12
4.86796e-12
2.49056e-10
-2.91695e-12
1.69785e-12
-3.57029e-12
5.62235e-12
2.49165e-10
-3.99478e-12
2.25218e-12
-4.90924e-12
6.93165e-12
2.49731e-10
-6.38074e-12
3.49155e-12
-6.48699e-12
9.14803e-12
2.50344e-10
-9.38011e-12
4.53375e-12
-8.65499e-12
1.19513e-11
2.52313e-10
-1.32876e-11
7.36787e-12
-1.17282e-11
1.54151e-11
2.54992e-10
-1.61042e-11
9.14668e-12
-1.51236e-11
1.79915e-11
2.593e-10
-4.42551e-11
1.93962e-11
-4.27084e-11
2.38253e-11
2.92835e-10
3.67101e-11
2.33663e-11
9.11543e-11
-1.58744e-12
-1.94747e-13
3.43054e-12
2.48347e-10
-1.60051e-12
1.96359e-13
-6.46952e-13
3.47313e-12
2.48578e-10
-1.62989e-12
4.76258e-13
-1.17357e-12
3.57325e-12
2.48754e-10
-1.63672e-12
7.08923e-13
-1.84129e-12
3.72438e-12
2.49045e-10
-1.80022e-12
1.15559e-12
-2.53625e-12
4.07097e-12
2.4911e-10
-2.12174e-12
1.42407e-12
-3.30985e-12
4.57966e-12
2.49427e-10
-2.8657e-12
2.04724e-12
-4.23099e-12
5.41568e-12
2.49641e-10
-3.96861e-12
2.56459e-12
-5.77846e-12
6.51103e-12
2.50806e-10
-6.05326e-12
4.18197e-12
-8.77556e-12
8.21008e-12
2.53258e-10
-9.24668e-12
7.29751e-12
-1.5908e-11
1.0709e-11
2.59886e-10
-1.18626e-11
1.34178e-11
-2.47197e-11
1.38592e-11
2.64598e-10
-3.37539e-11
2.39663e-11
-4.47382e-11
4.0398e-11
2.59473e-10
-1.34465e-12
-1.86996e-13
2.78203e-12
2.48746e-10
-1.34023e-12
1.79993e-13
-5.94427e-13
2.81226e-12
2.48942e-10
-1.3481e-12
4.04171e-13
-1.0366e-12
2.88136e-12
2.49099e-10
-1.3317e-12
5.9637e-13
-1.55131e-12
2.97647e-12
2.4931e-10
-1.3891e-12
9.06706e-13
-2.0917e-12
3.17453e-12
2.49399e-10
-1.48877e-12
1.11725e-12
-2.68852e-12
3.44105e-12
2.49619e-10
-1.76882e-12
1.52466e-12
-3.39404e-12
3.86209e-12
2.49776e-10
-2.13711e-12
1.89067e-12
-4.51062e-12
4.35589e-12
2.50414e-10
-3.04615e-12
2.96697e-12
-7.03245e-12
5.27682e-12
2.51978e-10
-4.90445e-12
5.35585e-12
-1.31833e-11
7.01916e-12
2.56521e-10
-1.04735e-11
1.09677e-11
-2.36554e-11
1.09798e-11
2.64872e-10
-2.85978e-11
2.19016e-11
-3.63942e-11
1.96912e-11
2.77955e-10
-2.32313e-11
5.09082e-11
-4.96751e-11
2.43212e-11
2.62092e-10
-1.02972e-12
-1.76414e-13
2.23462e-12
2.48969e-10
-1.02417e-12
1.642e-13
-5.50631e-13
2.25768e-12
2.49153e-10
-1.0298e-12
3.56542e-13
-9.42954e-13
2.31052e-12
2.49305e-10
-1.02774e-12
5.26351e-13
-1.38259e-12
2.38389e-12
2.495e-10
-1.05033e-12
7.74677e-13
-1.85083e-12
2.51497e-12
2.49611e-10
-1.08677e-12
9.72065e-13
-2.38643e-12
2.68091e-12
2.4982e-10
-1.18691e-12
1.31108e-12
-3.02674e-12
2.94431e-12
2.49958e-10
-1.3179e-12
1.64474e-12
-3.96633e-12
3.28664e-12
2.50353e-10
-1.57476e-12
2.43948e-12
-5.77993e-12
3.83308e-12
2.51093e-10
-2.33053e-12
4.08379e-12
-1.01857e-11
5.01176e-12
2.5354e-10
-5.27722e-12
8.31873e-12
-1.94665e-11
7.75814e-12
2.5941e-10
-1.20732e-11
1.53012e-11
-2.83802e-11
1.28141e-11
2.65193e-10
-2.75131e-11
2.64732e-11
-3.12124e-11
2.03054e-11
2.63533e-10
6.58126e-11
7.92978e-12
7.96695e-11
-8.56805e-13
-1.67411e-13
1.79852e-12
2.49225e-10
-8.49047e-13
1.53073e-13
-5.18067e-13
1.81493e-12
2.49399e-10
-8.50388e-13
3.23517e-13
-8.79182e-13
1.85468e-12
2.49551e-10
-8.4875e-13
4.81803e-13
-1.27461e-12
1.9116e-12
2.4973e-10
-8.61151e-13
6.92399e-13
-1.6977e-12
2.0047e-12
2.49861e-10
-8.84059e-13
8.78733e-13
-2.18495e-12
2.12233e-12
2.50068e-10
-9.42415e-13
1.16939e-12
-2.77065e-12
2.3041e-12
2.50239e-10
-1.02761e-12
1.47448e-12
-3.57884e-12
2.56354e-12
2.50568e-10
-1.22679e-12
2.07494e-12
-4.90645e-12
2.99695e-12
2.51061e-10
-1.73138e-12
3.13452e-12
-7.80916e-12
3.83433e-12
2.52578e-10
-3.60627e-12
5.83399e-12
-1.42584e-11
5.92577e-12
2.56264e-10
-9.65128e-12
1.01884e-11
-2.23498e-11
1.02135e-11
2.62891e-10
-2.36758e-11
1.75833e-11
-2.55533e-11
1.8979e-11
2.66626e-10
-4.05928e-11
3.01641e-11
-5.55552e-11
3.073e-11
3.02714e-10
-6.62799e-13
-1.60697e-13
1.40781e-12
2.49413e-10
-6.55308e-13
1.44449e-13
-4.91589e-13
1.42054e-12
2.49582e-10
-6.56149e-13
2.99328e-13
-8.31496e-13
1.44975e-12
2.49738e-10
-6.5438e-13
4.50368e-13
-1.19963e-12
1.49324e-12
2.4991e-10
-6.59904e-13
6.40267e-13
-1.59478e-12
1.56067e-12
2.50053e-10
-6.67896e-13
8.18165e-13
-2.04821e-12
1.64789e-12
2.5025e-10
-6.8841e-13
1.07803e-12
-2.58663e-12
1.77518e-12
2.50422e-10
-7.11853e-13
1.35858e-12
-3.30615e-12
1.95685e-12
2.50702e-10
-7.63554e-13
1.86568e-12
-4.34534e-12
2.25503e-12
2.50988e-10
-9.1946e-13
2.60441e-12
-6.27193e-12
2.80953e-12
2.51777e-10
-1.62265e-12
4.40299e-12
-1.03763e-11
4.10302e-12
2.53518e-10
-4.51272e-12
7.68939e-12
-1.79738e-11
7.17844e-12
2.58091e-10
-1.23966e-11
1.31452e-11
-2.32302e-11
1.34112e-11
2.6186e-10
-3.44016e-11
1.52947e-11
-4.11428e-11
3.7634e-11
2.69753e-10
-5.21085e-13
-1.54941e-13
1.06329e-12
2.49609e-10
-5.15165e-13
1.3671e-13
-4.71598e-13
1.07272e-12
2.49777e-10
-5.13278e-13
2.83014e-13
-7.96169e-13
1.09447e-12
2.49932e-10
-5.11159e-13
4.26061e-13
-1.14335e-12
1.12591e-12
2.50102e-10
-5.21611e-13
5.975e-13
-1.51636e-12
1.17605e-12
2.50264e-10
-5.36246e-13
7.64877e-13
-1.94037e-12
1.24216e-12
2.50469e-10
-5.58297e-13
9.96792e-13
-2.43236e-12
1.3313e-12
2.50662e-10
-5.90528e-13
1.23903e-12
-3.06698e-12
1.45945e-12
2.50959e-10
-6.50243e-13
1.65864e-12
-3.91373e-12
1.65592e-12
2.51249e-10
-7.81553e-13
2.18427e-12
-5.28555e-12
2.02006e-12
2.51862e-10
-1.18974e-12
3.39088e-12
-7.95272e-12
2.73152e-12
2.53016e-10
-2.82988e-12
5.58965e-12
-1.37688e-11
4.70127e-12
2.56418e-10
-8.31041e-12
1.06435e-11
-2.09884e-11
8.42587e-12
2.61626e-10
-2.51478e-11
1.9807e-11
-3.52735e-11
1.8507e-11
2.75021e-10
-1.48621e-11
8.56143e-11
2.13948e-11
1.30535e-10
-3.72519e-13
-1.50093e-13
7.40436e-13
2.49781e-10
-3.68613e-13
1.31469e-13
-4.57144e-13
7.48379e-13
2.49946e-10
-3.66019e-13
2.70337e-13
-7.7027e-13
7.6313e-13
2.50103e-10
-3.6795e-13
4.06489e-13
-1.10429e-12
7.85665e-13
2.5028e-10
-3.74034e-13
5.66112e-13
-1.46343e-12
8.17472e-13
2.50454e-10
-3.78914e-13
7.25927e-13
-1.86943e-12
8.60214e-13
2.50662e-10
-3.89948e-13
9.43633e-13
-2.33147e-12
9.17987e-13
2.5086e-10
-4.05866e-13
1.15455e-12
-2.91435e-12
9.98088e-13
2.51167e-10
-4.22669e-13
1.52183e-12
-3.64048e-12
1.10171e-12
2.51439e-10
-4.75524e-13
1.89053e-12
-4.73478e-12
1.27958e-12
2.5204e-10
-5.71885e-13
2.80035e-12
-6.52343e-12
1.50455e-12
2.52784e-10
-1.20965e-12
4.06437e-12
-1.09895e-11
2.10304e-12
2.56037e-10
-2.84744e-12
8.3234e-12
-1.89296e-11
2.02627e-12
2.62131e-10
-6.56765e-12
1.3899e-11
-2.55948e-11
-1.84246e-12
2.73178e-10
-3.72736e-13
6.26925e-11
-1.92159e-12
2.05064e-10
-2.46945e-13
-1.46387e-13
4.40154e-13
2.49956e-10
-2.45037e-13
1.2644e-13
-4.46553e-13
4.44291e-13
2.50121e-10
-2.46834e-13
2.58669e-13
-7.52988e-13
4.52371e-13
2.50288e-10
-2.48964e-13
3.89217e-13
-1.07847e-12
4.6581e-13
2.50472e-10
-2.54104e-13
5.44076e-13
-1.42786e-12
4.84911e-13
2.50653e-10
-2.62173e-13
6.94676e-13
-1.82139e-12
5.11354e-13
2.50877e-10
-2.79447e-13
8.97332e-13
-2.26339e-12
5.45959e-13
2.51099e-10
-3.07508e-13
1.08356e-12
-2.81592e-12
5.93752e-13
2.51446e-10
-3.496e-13
1.41151e-12
-3.47714e-12
6.53602e-13
2.51761e-10
-4.44547e-13
1.68382e-12
-4.46859e-12
7.46712e-13
2.52483e-10
-6.06848e-13
2.4501e-12
-6.03722e-12
8.38684e-13
2.53354e-10
-1.00014e-12
3.43649e-12
-1.05766e-11
9.56679e-13
2.57227e-10
-9.52337e-13
8.12365e-12
-2.06344e-11
1.07604e-13
2.64132e-10
3.30206e-12
1.61609e-11
-3.62818e-11
-2.86452e-12
2.73557e-10
1.3421e-11
4.44814e-11
-7.46419e-11
-1.05192e-11
2.64022e-10
-1.19669e-13
-1.44338e-13
1.42175e-13
2.50123e-10
-1.19646e-13
1.22642e-13
-4.40883e-13
1.46971e-13
2.50291e-10
-1.19774e-13
2.51632e-13
-7.432e-13
1.49173e-13
2.50462e-10
-1.19834e-13
3.79344e-13
-1.06549e-12
1.52865e-13
2.50653e-10
-1.20982e-13
5.30259e-13
-1.41041e-12
1.58505e-13
2.50842e-10
-1.25365e-13
6.74264e-13
-1.79978e-12
1.66309e-13
2.51084e-10
-1.31524e-13
8.71318e-13
-2.23534e-12
1.76551e-13
2.51319e-10
-1.44243e-13
1.04685e-12
-2.78025e-12
1.89259e-13
2.51688e-10
-1.64949e-13
1.36097e-12
-3.42439e-12
2.03224e-13
2.52025e-10
-2.12856e-13
1.60081e-12
-4.40532e-12
2.24244e-13
2.52793e-10
-3.05057e-13
2.34971e-12
-5.98664e-12
2.39574e-13
2.53711e-10
-5.95036e-13
3.28234e-12
-1.07504e-11
2.5759e-13
2.57962e-10
-2.72433e-13
8.1806e-12
-2.10792e-11
-6.35746e-14
2.64585e-10
1.70359e-12
1.61932e-11
-3.45688e-11
-1.22858e-12
2.73067e-10
6.90675e-12
3.57793e-11
-5.89912e-11
-3.46409e-12
2.60576e-10
-1.39568e-10
1.89099e-12
2.35276e-11
1.14129e-10
-1.17279e-10
-3.55564e-12
5.70067e-12
1.80429e-11
9.70909e-11
-2.82865e-11
-1.41985e-12
6.21775e-12
2.34885e-11
8.50825e-12
5.25446e-10
1.01508e-09
-2.24511e-10
-2.25351e-10
-3.35265e-10
-3.37065e-10
2.34038e-11
2.34959e-11
-2.36553e-10
-2.37547e-10
-1.5093e-11
5.24018e-10
1.0202e-09
-2.17544e-10
-2.47516e-10
-3.24299e-10
-3.38675e-10
3.70543e-11
3.13868e-11
-2.29207e-10
-2.31813e-10
-1.92108e-10
5.34099e-10
1.1897e-09
-2.64128e-10
-2.96293e-10
-3.3571e-10
-3.4412e-10
4.38139e-11
-1.79765e-11
-1.80443e-10
-1.51928e-10
7.66537e-11
4.96268e-10
9.59769e-10
-3.01686e-10
-2.3227e-10
-3.45993e-10
-2.96585e-10
1.03905e-11
5.1972e-11
-1.24697e-10
-1.2048e-10
-1.55244e-11
-1.60942e-10
-1.88981e-10
-2.63892e-10
1.24269e-11
-3.96613e-12
5.64472e-11
2.75637e-10
-1.02932e-10
6.77267e-13
-9.50732e-12
3.36914e-11
7.80711e-11
-2.82244e-12
3.15617e-10
1.2792e-09
-2.33031e-10
-2.35636e-10
-2.98269e-10
-2.9982e-10
-1.94554e-11
3.1538e-10
1.30144e-09
-2.35455e-10
-2.46111e-10
-2.95394e-10
-2.99213e-10
-1.12853e-10
3.36893e-10
1.38891e-09
-2.50951e-10
-2.59048e-10
-2.94301e-10
-2.94003e-10
-2.14904e-10
3.69141e-10
1.37709e-09
-2.7893e-10
-2.57551e-10
-3.15581e-10
-2.95859e-10
-2.92189e-10
5.02732e-10
1.11253e-09
-2.62761e-10
-2.18411e-10
-3.30468e-10
-2.997e-10
-5.19967e-11
1.81996e-11
-2.06835e-10
-1.85998e-10
8.88199e-11
5.50619e-10
9.13791e-10
-2.69931e-10
-2.11563e-10
-3.46436e-10
-2.95316e-10
6.59223e-12
7.76545e-11
-2.1666e-10
-1.84038e-10
-1.71303e-11
-1.92627e-10
-1.95967e-10
-2.46907e-10
-1.15899e-11
-1.47288e-11
9.04457e-11
2.71601e-10
-1.24791e-10
-8.98574e-12
-7.61761e-12
4.28452e-11
9.85487e-11
-1.70823e-11
2.06749e-10
1.15389e-09
-2.40794e-10
-2.41829e-10
-2.72709e-10
-2.72747e-10
-4.32191e-11
2.08547e-10
1.1636e-09
-2.42856e-10
-2.45722e-10
-2.72257e-10
-2.69787e-10
-9.27342e-11
2.22474e-10
1.19883e-09
-2.4857e-10
-2.49226e-10
-2.71963e-10
-2.65149e-10
-1.49551e-10
2.30177e-10
1.25433e-09
-2.59913e-10
-2.47533e-10
-2.82968e-10
-2.68132e-10
-2.06823e-10
3.20903e-10
1.31899e-09
-2.60845e-10
-2.39161e-10
-3.00536e-10
-2.79349e-10
-2.37913e-10
3.7952e-10
1.33778e-09
-2.64913e-10
-2.40816e-10
-3.25743e-10
-3.04118e-10
-2.67996e-10
4.95363e-10
1.09776e-09
-2.40965e-10
-2.16291e-10
-3.35869e-10
-3.12735e-10
-4.57136e-11
2.17072e-11
-2.23594e-10
-2.09585e-10
9.01904e-11
5.41217e-10
9.60993e-10
-2.50284e-10
-2.33874e-10
-3.51582e-10
-3.24376e-10
7.72548e-12
7.58677e-11
-2.30515e-10
-1.95394e-10
-1.49236e-11
-1.62595e-10
-1.80444e-10
-2.84818e-10
8.82543e-13
3.56404e-12
5.76768e-11
3.12885e-10
-3.93473e-11
6.24341e-12
-2.92559e-12
3.60294e-11
-1.62067e-11
1.45488e-10
1.08031e-09
-2.41654e-10
-2.41759e-10
-2.60074e-10
-2.59413e-10
-3.49119e-11
1.47282e-10
1.08448e-09
-2.42874e-10
-2.42308e-10
-2.61184e-10
-2.58147e-10
-6.08198e-11
1.58723e-10
1.09481e-09
-2.44139e-10
-2.42327e-10
-2.61946e-10
-2.5674e-10
-9.58918e-11
1.62944e-10
1.11738e-09
-2.4815e-10
-2.4264e-10
-2.66853e-10
-2.57433e-10
-1.29216e-10
2.02711e-10
1.17442e-09
-2.50008e-10
-2.40272e-10
-2.73657e-10
-2.58964e-10
-1.60488e-10
2.21306e-10
1.24269e-09
-2.54575e-10
-2.39733e-10
-2.8859e-10
-2.70306e-10
-2.05731e-10
3.07048e-10
1.31273e-09
-2.5312e-10
-2.37212e-10
-3.02916e-10
-2.85928e-10
-2.14511e-10
3.50741e-10
1.33977e-09
-2.60061e-10
-2.46393e-10
-3.26083e-10
-3.07979e-10
-2.0855e-10
4.1708e-10
1.06945e-09
-2.40819e-10
-2.23576e-10
-3.27915e-10
-3.07296e-10
-3.39854e-11
3.1983e-11
-2.06566e-10
-1.84317e-10
7.62594e-11
3.06327e-10
9.2939e-10
-2.48356e-10
-2.2942e-10
-3.40385e-10
-3.22343e-10
6.74706e-11
5.88165e-11
-1.73509e-10
-1.29419e-10
1.21899e-11
-1.03013e-10
-1.12561e-10
-6.03997e-11
4.3246e-11
9.34141e-11
-1.50667e-11
1.09723e-10
1.05524e-09
-2.43281e-10
-2.42996e-10
-2.59518e-10
-2.58657e-10
-3.16557e-11
1.1136e-10
1.05767e-09
-2.44127e-10
-2.42749e-10
-2.60715e-10
-2.57566e-10
-5.01244e-11
1.19538e-10
1.06206e-09
-2.44658e-10
-2.41948e-10
-2.61679e-10
-2.56127e-10
-7.1368e-11
1.22717e-10
1.06809e-09
-2.46264e-10
-2.41352e-10
-2.63943e-10
-2.55056e-10
-9.13528e-11
1.43285e-10
1.08599e-09
-2.46676e-10
-2.39858e-10
-2.65955e-10
-2.54095e-10
-1.14916e-10
1.49189e-10
1.11062e-09
-2.48519e-10
-2.40023e-10
-2.70548e-10
-2.55853e-10
-1.39597e-10
1.85041e-10
1.17054e-09
-2.49626e-10
-2.39957e-10
-2.75984e-10
-2.58282e-10
-1.6478e-10
1.93919e-10
1.23398e-09
-2.55024e-10
-2.41436e-10
-2.88478e-10
-2.6703e-10
-2.10349e-10
2.47714e-10
1.29121e-09
-2.57314e-10
-2.39222e-10
-3.03968e-10
-2.75775e-10
-3.06582e-10
2.09053e-10
1.33103e-09
-2.72718e-10
-2.6402e-10
-3.28278e-10
-2.72515e-10
5.87211e-11
2.07991e-10
9.29498e-10
-3.22804e-10
-2.29431e-10
-3.40247e-10
-2.48621e-10
1.2576e-11
7.65967e-11
-1.12709e-10
-1.02905e-10
6.73977e-11
-1.29277e-10
-1.73368e-10
-5.93322e-11
1.80469e-11
1.00006e-10
-1.20197e-11
8.30417e-11
1.04029e-09
-2.44345e-10
-2.4389e-10
-2.57096e-10
-2.56275e-10
-2.49416e-11
8.42466e-11
1.04214e-09
-2.45101e-10
-2.43415e-10
-2.5818e-10
-2.55419e-10
-3.89493e-11
8.98307e-11
1.04549e-09
-2.45611e-10
-2.42577e-10
-2.59156e-10
-2.54425e-10
-5.57288e-11
9.30943e-11
1.04967e-09
-2.46689e-10
-2.41805e-10
-2.61053e-10
-2.53722e-10
-7.27354e-11
1.05628e-10
1.05717e-09
-2.46788e-10
-2.40309e-10
-2.6279e-10
-2.52615e-10
-9.38054e-11
1.10251e-10
1.06525e-09
-2.47637e-10
-2.39747e-10
-2.65621e-10
-2.52241e-10
-1.19536e-10
1.29194e-10
1.0874e-09
-2.47836e-10
-2.39054e-10
-2.67387e-10
-2.51546e-10
-1.61663e-10
1.32673e-10
1.11839e-09
-2.50388e-10
-2.39936e-10
-2.71712e-10
-2.52985e-10
-2.47517e-10
1.61521e-10
1.20178e-09
-2.54609e-10
-2.40768e-10
-2.7974e-10
-2.54611e-10
-4.16945e-10
1.64115e-10
1.29045e-09
-2.75773e-10
-2.39099e-10
-3.03926e-10
-2.57279e-10
3.18607e-11
2.14392e-10
1.0692e-09
-3.07116e-10
-2.23464e-10
-3.27893e-10
-2.40748e-10
-3.40412e-11
-1.84505e-10
-2.06638e-10
-2.19916e-10
-2.62551e-11
-3.9261e-11
7.49221e-11
2.4237e-10
-1.04253e-11
6.43356e-11
1.03135e-09
-2.45609e-10
-2.45087e-10
-2.56167e-10
-2.55366e-10
-2.13982e-11
6.51568e-11
1.03252e-09
-2.46272e-10
-2.44523e-10
-2.57114e-10
-2.54552e-10
-3.2881e-11
6.86683e-11
1.03485e-09
-2.46765e-10
-2.43747e-10
-2.58018e-10
-2.53672e-10
-4.61106e-11
7.10114e-11
1.03819e-09
-2.47572e-10
-2.42983e-10
-2.5938e-10
-2.52948e-10
-6.03257e-11
7.86678e-11
1.0436e-09
-2.47872e-10
-2.41781e-10
-2.60707e-10
-2.52065e-10
-7.83174e-11
8.27017e-11
1.04941e-09
-2.48579e-10
-2.40882e-10
-2.62938e-10
-2.51476e-10
-9.97661e-11
9.45488e-11
1.05997e-09
-2.48717e-10
-2.39667e-10
-2.65077e-10
-2.50421e-10
-1.32763e-10
9.96793e-11
1.07301e-09
-2.4995e-10
-2.39499e-10
-2.67643e-10
-2.49933e-10
-1.93973e-10
1.1942e-10
1.11827e-09
-2.52989e-10
-2.39914e-10
-2.717e-10
-2.50359e-10
-3.50934e-10
1.39276e-10
1.2337e-09
-2.67054e-10
-2.41399e-10
-2.88468e-10
-2.5498e-10
-5.41274e-10
2.05516e-10
1.33946e-09
-3.0791e-10
-2.4632e-10
-3.26036e-10
-2.59982e-10
7.5885e-11
2.67577e-10
9.60673e-10
-3.24318e-10
-2.33815e-10
-3.51551e-10
-2.50253e-10
-1.48439e-11
9.02572e-11
-1.80279e-10
-1.62469e-10
7.74772e-12
-1.9538e-10
-2.30504e-10
-2.07224e-10
5.12247e-12
4.43384e-12
1.20341e-11
2.61519e-10
-9.04213e-12
4.98935e-11
1.02485e-09
-2.46435e-10
-2.45884e-10
-2.54894e-10
-2.54152e-10
-1.85395e-11
5.04987e-11
1.02568e-09
-2.47054e-10
-2.45292e-10
-2.55751e-10
-2.53424e-10
-2.85865e-11
5.27907e-11
1.02732e-09
-2.47555e-10
-2.44567e-10
-2.56603e-10
-2.52671e-10
-4.0309e-11
5.46175e-11
1.02998e-09
-2.48242e-10
-2.43849e-10
-2.57761e-10
-2.52017e-10
-5.36772e-11
5.94926e-11
1.03413e-09
-2.48641e-10
-2.42849e-10
-2.58882e-10
-2.51216e-10
-7.13154e-11
6.29768e-11
1.03977e-09
-2.49318e-10
-2.41961e-10
-2.60533e-10
-2.50588e-10
-9.45546e-11
7.1307e-11
1.04866e-09
-2.49623e-10
-2.40641e-10
-2.62301e-10
-2.49612e-10
-1.29198e-10
7.82562e-11
1.05996e-09
-2.50437e-10
-2.39666e-10
-2.65085e-10
-2.48707e-10
-1.85039e-10
9.37385e-11
1.08733e-09
-2.51557e-10
-2.3904e-10
-2.67393e-10
-2.4782e-10
-3.07091e-10
1.1476e-10
1.17041e-09
-2.58296e-10
-2.39937e-10
-2.75999e-10
-2.4961e-10
-4.95398e-10
1.60404e-10
1.31254e-09
-2.85916e-10
-2.37183e-10
-3.02921e-10
-2.53103e-10
2.17101e-11
2.37658e-10
1.09756e-09
-3.1272e-10
-2.16274e-10
-3.35872e-10
-2.40968e-10
-4.57161e-11
-2.09588e-10
-2.23605e-10
-2.26274e-10
-2.48461e-11
-4.42229e-11
6.54439e-11
2.51609e-10
-4.46907e-11
3.90094e-12
-2.26625e-12
4.3056e-11
-8.19385e-12
3.85634e-11
1.02106e-09
-2.47268e-10
-2.46713e-10
-2.54124e-10
-2.53429e-10
-1.67345e-11
3.89971e-11
1.02167e-09
-2.47853e-10
-2.46121e-10
-2.54901e-10
-2.52751e-10
-2.57476e-11
4.04795e-11
1.02287e-09
-2.48359e-10
-2.4544e-10
-2.55688e-10
-2.52064e-10
-3.60428e-11
4.18389e-11
1.02491e-09
-2.48979e-10
-2.44751e-10
-2.56674e-10
-2.51431e-10
-4.78412e-11
4.5016e-11
1.028e-09
-2.49446e-10
-2.43882e-10
-2.57683e-10
-2.50715e-10
-6.29831e-11
4.78373e-11
1.03262e-09
-2.50113e-10
-2.4307e-10
-2.59057e-10
-2.50103e-10
-8.27105e-11
5.36693e-11
1.03976e-09
-2.50597e-10
-2.41958e-10
-2.60534e-10
-2.49307e-10
-1.10261e-10
6.02862e-11
1.04939e-09
-2.51486e-10
-2.40876e-10
-2.62943e-10
-2.48566e-10
-1.49194e-10
7.26912e-11
1.06521e-09
-2.52248e-10
-2.39732e-10
-2.65627e-10
-2.4762e-10
-2.21318e-10
9.12548e-11
1.11056e-09
-2.55861e-10
-2.40006e-10
-2.70561e-10
-2.48506e-10
-3.79514e-10
1.29144e-10
1.24262e-09
-2.70303e-10
-2.39709e-10
-2.88596e-10
-2.54561e-10
-5.5063e-10
2.06667e-10
1.33768e-09
-3.04105e-10
-2.40807e-10
-3.25746e-10
-2.6492e-10
7.76582e-11
2.92136e-10
9.13759e-10
-2.95306e-10
-2.11552e-10
-3.4644e-10
-2.6993e-10
-1.71182e-11
8.88281e-11
-1.95949e-10
-1.92615e-10
6.59235e-12
-1.84036e-10
-2.16659e-10
-2.41876e-10
1.37436e-11
4.78983e-12
1.80403e-11
2.82963e-10
-7.60188e-12
2.9116e-11
1.01826e-09
-2.47922e-10
-2.47369e-10
-2.53283e-10
-2.52632e-10
-1.55321e-11
2.94385e-11
1.01876e-09
-2.48491e-10
-2.46788e-10
-2.53999e-10
-2.51998e-10
-2.39963e-11
3.0435e-11
1.01974e-09
-2.48999e-10
-2.46138e-10
-2.54728e-10
-2.51359e-10
-3.36837e-11
3.14918e-11
1.02146e-09
-2.49592e-10
-2.45475e-10
-2.55607e-10
-2.5075e-10
-4.50085e-11
3.36893e-11
1.02399e-09
-2.50084e-10
-2.44671e-10
-2.56512e-10
-2.50073e-10
-5.94822e-11
3.60428e-11
1.028e-09
-2.50724e-10
-2.43882e-10
-2.57689e-10
-2.49442e-10
-7.86564e-11
4.03045e-11
1.03412e-09
-2.51224e-10
-2.42846e-10
-2.58885e-10
-2.48633e-10
-1.0562e-10
4.60866e-11
1.04359e-09
-2.52074e-10
-2.41776e-10
-2.60713e-10
-2.47864e-10
-1.4327e-10
5.57063e-11
1.05714e-09
-2.52621e-10
-2.40299e-10
-2.62802e-10
-2.46779e-10
-2.02698e-10
7.13128e-11
1.08596e-09
-2.54101e-10
-2.39846e-10
-2.6597e-10
-2.4667e-10
-3.20896e-10
9.5852e-11
1.17438e-09
-2.58961e-10
-2.40258e-10
-2.73672e-10
-2.50006e-10
-5.02774e-10
1.49468e-10
1.31897e-09
-2.79341e-10
-2.39157e-10
-3.00546e-10
-2.60852e-10
1.82002e-11
2.14866e-10
1.11248e-09
-2.99702e-10
-2.18402e-10
-3.30477e-10
-2.62769e-10
-5.19997e-11
-1.85998e-10
-2.06837e-10
-2.32018e-10
-3.59082e-11
-3.90145e-11
7.97303e-11
2.45411e-10
-7.17325e-12
2.09426e-11
1.0166e-09
-2.48567e-10
-2.48022e-10
-2.52635e-10
-2.52019e-10
-1.46236e-11
2.11652e-11
1.01702e-09
-2.49125e-10
-2.47453e-10
-2.53302e-10
-2.51417e-10
-2.25589e-11
2.18053e-11
1.01784e-09
-2.49646e-10
-2.46839e-10
-2.53983e-10
-2.50811e-10
-3.14853e-11
2.25674e-11
1.01933e-09
-2.50238e-10
-2.46213e-10
-2.54791e-10
-2.50234e-10
-4.18273e-11
2.40073e-11
1.02146e-09
-2.50763e-10
-2.45477e-10
-2.55611e-10
-2.49589e-10
-5.46096e-11
2.57491e-11
1.02491e-09
-2.51438e-10
-2.4475e-10
-2.56673e-10
-2.48972e-10
-7.10013e-11
2.85863e-11
1.02997e-09
-2.52022e-10
-2.43845e-10
-2.57763e-10
-2.48234e-10
-9.30827e-11
3.28673e-11
1.03818e-09
-2.52954e-10
-2.42977e-10
-2.59383e-10
-2.47564e-10
-1.227e-10
3.89352e-11
1.04965e-09
-2.53726e-10
-2.41796e-10
-2.6106e-10
-2.46681e-10
-1.62929e-10
5.00888e-11
1.06807e-09
-2.55059e-10
-2.41342e-10
-2.63955e-10
-2.46259e-10
-2.30167e-10
6.07932e-11
1.11736e-09
-2.57431e-10
-2.42627e-10
-2.66866e-10
-2.48145e-10
-3.69174e-10
9.26884e-11
1.25433e-09
-2.68127e-10
-2.47526e-10
-2.82979e-10
-2.59916e-10
-4.96258e-10
1.12815e-10
1.37707e-09
-2.95856e-10
-2.57548e-10
-3.1559e-10
-2.78941e-10
5.19742e-11
1.92085e-10
9.59765e-10
-2.96567e-10
-2.32266e-10
-3.45992e-10
-3.01696e-10
-1.55206e-11
7.66544e-11
-1.88975e-10
-1.60939e-10
1.03891e-11
-1.20477e-10
-1.24697e-10
-8.65348e-11
-1.13982e-11
2.24341e-11
1.27476e-10
-6.92511e-12
1.35782e-11
1.01541e-09
-2.49144e-10
-2.48602e-10
-2.51979e-10
-2.51389e-10
-1.41135e-11
1.37251e-11
1.01579e-09
-2.49698e-10
-2.48044e-10
-2.52607e-10
-2.50812e-10
-2.17969e-11
1.41214e-11
1.01652e-09
-2.50229e-10
-2.47449e-10
-2.53246e-10
-2.50225e-10
-3.04232e-11
1.46325e-11
1.01785e-09
-2.5082e-10
-2.4684e-10
-2.53985e-10
-2.49642e-10
-4.04687e-11
1.55385e-11
1.01974e-09
-2.51365e-10
-2.46137e-10
-2.5473e-10
-2.48995e-10
-5.27791e-11
1.67348e-11
1.02287e-09
-2.52069e-10
-2.45437e-10
-2.5569e-10
-2.48354e-10
-6.86532e-11
1.85397e-11
1.02731e-09
-2.52676e-10
-2.44562e-10
-2.56605e-10
-2.47549e-10
-8.98172e-11
2.13885e-11
1.03484e-09
-2.53677e-10
-2.43741e-10
-2.58022e-10
-2.4676e-10
-1.19524e-10
2.49317e-11
1.04548e-09
-2.54428e-10
-2.4257e-10
-2.59162e-10
-2.45606e-10
-1.58711e-10
3.1635e-11
1.06205e-09
-2.56128e-10
-2.41939e-10
-2.61686e-10
-2.44655e-10
-2.22471e-10
3.48964e-11
1.0948e-09
-2.5674e-10
-2.42317e-10
-2.61955e-10
-2.44137e-10
-3.36918e-10
4.3193e-11
1.19885e-09
-2.65145e-10
-2.49219e-10
-2.71976e-10
-2.48571e-10
-5.34109e-10
1.94159e-11
1.3889e-09
-2.94e-10
-2.59046e-10
-2.94309e-10
-2.50957e-10
-1.79747e-11
1.50736e-11
1.18969e-09
-3.44117e-10
-2.9629e-10
-3.35717e-10
-2.64127e-10
4.38123e-11
-1.51929e-10
-1.80449e-10
-1.6469e-10
2.82325e-12
-6.32573e-11
2.07147e-10
-6.74089e-12
6.67599e-12
1.01478e-09
-2.49717e-10
-2.49174e-10
-2.51401e-10
-2.50834e-10
-1.37149e-11
6.74939e-12
1.01512e-09
-2.50272e-10
-2.48622e-10
-2.52001e-10
-2.5027e-10
-2.11536e-11
6.93477e-12
1.01579e-09
-2.50812e-10
-2.48042e-10
-2.52608e-10
-2.49695e-10
-2.94274e-11
7.18242e-12
1.01702e-09
-2.51419e-10
-2.47452e-10
-2.53303e-10
-2.49121e-10
-3.89855e-11
7.61178e-12
1.01876e-09
-2.52e-10
-2.46785e-10
-2.53999e-10
-2.48487e-10
-5.04867e-11
8.19849e-12
1.02166e-09
-2.52754e-10
-2.46118e-10
-2.54903e-10
-2.4785e-10
-6.51443e-11
9.04662e-12
1.02567e-09
-2.53427e-10
-2.45287e-10
-2.55753e-10
-2.4705e-10
-8.42333e-11
1.04227e-11
1.03251e-09
-2.54554e-10
-2.44517e-10
-2.57117e-10
-2.46269e-10
-1.11345e-10
1.20198e-11
1.04213e-09
-2.55419e-10
-2.43408e-10
-2.58183e-10
-2.45097e-10
-1.47271e-10
1.50574e-11
1.05766e-09
-2.57568e-10
-2.42742e-10
-2.6072e-10
-2.44125e-10
-2.08543e-10
1.62007e-11
1.08448e-09
-2.58147e-10
-2.42301e-10
-2.61191e-10
-2.42872e-10
-3.15408e-10
1.70621e-11
1.16361e-09
-2.69783e-10
-2.45718e-10
-2.72264e-10
-2.42856e-10
-5.24057e-10
2.79694e-12
1.30145e-09
-2.99209e-10
-2.46114e-10
-2.95399e-10
-2.35459e-10
3.13859e-11
-8.55099e-12
1.02021e-09
-3.38683e-10
-2.47506e-10
-3.2431e-10
-2.17542e-10
3.705e-11
-2.31822e-10
-2.29218e-10
-2.20486e-10
3.9403e-11
-1.83315e-11
-2.65106e-11
2.5731e-10
-6.66921e-12
1.01445e-09
-2.50272e-10
-2.49729e-10
-2.50827e-10
-2.5027e-10
-1.3573e-11
1.01478e-09
-2.50834e-10
-2.49174e-10
-2.514e-10
-2.49713e-10
-2.09356e-11
1.01541e-09
-2.51391e-10
-2.486e-10
-2.5198e-10
-2.49142e-10
-2.91071e-11
1.0166e-09
-2.52019e-10
-2.48019e-10
-2.52637e-10
-2.48565e-10
-3.85557e-11
1.01826e-09
-2.52633e-10
-2.47367e-10
-2.53286e-10
-2.47919e-10
-4.98834e-11
1.02105e-09
-2.53428e-10
-2.46708e-10
-2.54127e-10
-2.47265e-10
-6.43225e-11
1.02484e-09
-2.54151e-10
-2.45878e-10
-2.54897e-10
-2.46432e-10
-8.30272e-11
1.03135e-09
-2.55366e-10
-2.45081e-10
-2.56172e-10
-2.45608e-10
-1.09707e-10
1.04028e-09
-2.56274e-10
-2.43883e-10
-2.57103e-10
-2.44343e-10
-1.45471e-10
1.05524e-09
-2.58656e-10
-2.4299e-10
-2.59526e-10
-2.4328e-10
-2.06735e-10
1.0803e-09
-2.5941e-10
-2.41753e-10
-2.60083e-10
-2.41655e-10
-3.15608e-10
1.1539e-09
-2.72741e-10
-2.41824e-10
-2.72718e-10
-2.40794e-10
-5.25453e-10
1.27921e-09
-2.99817e-10
-2.35636e-10
-2.98273e-10
-2.33034e-10
2.34994e-11
1.01507e-09
-3.37074e-10
-2.25348e-10
-3.35276e-10
-2.24507e-10
2.34046e-11
-2.37555e-10
-2.36546e-10
-2.17675e-10
8.60395e-12
-2.09775e-11
-4.45638e-12
2.58006e-10
-6.08228e-11
6.27701e-13
-1.64009e-11
7.6481e-11
-4.8352e-11
-8.77224e-13
3.46258e-13
-1.75621e-11
6.6445e-11
-8.34182e-12
1.03331e-12
-1.21446e-11
1.94531e-11
-1.01406e-11
1.3954e-10
9.50033e-10
6.12438e-11
6.13942e-11
-9.34134e-11
-9.3751e-11
-1.78916e-11
1.33036e-10
9.49097e-10
6.46782e-11
6.49697e-11
-9.1924e-11
-9.19079e-11
-4.43961e-11
1.56289e-10
1.09556e-09
5.73075e-11
3.90604e-11
-7.99077e-11
-5.21134e-11
6.73007e-11
1.15743e-10
8.32934e-10
4.55353e-11
5.4342e-11
-5.32251e-11
-5.85099e-11
4.53722e-11
-7.54448e-11
-5.86733e-11
-9.19347e-11
9.81287e-12
1.87533e-11
-1.35557e-11
1.44227e-10
-3.72833e-11
-4.00676e-12
-2.93016e-12
-1.07694e-11
5.49896e-11
-9.59081e-12
1.35245e-10
1.29299e-09
-1.28752e-11
1.34574e-10
1.30319e-09
-1.1209e-11
1.63679e-10
1.37985e-09
-9.12137e-12
1.46979e-10
1.34377e-09
-5.57154e-11
1.55133e-10
1.04193e-09
4.01261e-11
6.11855e-11
-6.57119e-11
-7.35454e-11
7.65218e-11
1.52835e-10
8.00708e-10
5.38648e-11
6.69506e-11
-9.07063e-11
-8.88315e-11
4.28024e-11
-9.13962e-11
-6.46767e-11
-8.39112e-11
1.54311e-11
1.63256e-11
-4.07032e-12
1.32745e-10
-4.93119e-11
-7.29618e-12
-4.2962e-12
-9.79549e-12
7.06998e-11
-2.2433e-11
1.42511e-10
1.169e-09
-4.52322e-11
1.43504e-10
1.17746e-09
-6.00344e-11
1.59912e-10
1.2174e-09
-6.91113e-11
1.46636e-10
1.26375e-09
-7.41612e-11
1.56046e-10
1.32313e-09
-4.93643e-11
1.44149e-10
1.32167e-09
-6.87456e-11
1.45447e-10
1.02412e-09
3.91329e-11
6.38925e-11
-7.10919e-11
-8.43472e-11
7.01745e-11
1.48078e-10
8.3773e-10
5.52933e-11
6.65727e-11
-9.41735e-11
-9.10791e-11
4.10503e-11
-8.10825e-11
-6.03158e-11
-1.15512e-10
1.47771e-11
1.47644e-11
-1.11017e-11
1.6725e-10
-1.48928e-11
2.88742e-12
-1.85004e-11
3.05058e-11
-1.66658e-11
1.23589e-10
1.11588e-09
-3.35451e-11
1.25056e-10
1.11981e-09
-4.83561e-11
1.37118e-10
1.13241e-09
-6.76392e-11
1.35034e-10
1.14826e-09
-8.22465e-11
1.44676e-10
1.20039e-09
-8.65915e-11
1.35045e-10
1.25614e-09
-8.42178e-11
1.3981e-10
1.316e-09
-5.00319e-11
1.31236e-10
1.32242e-09
-6.49215e-11
1.22878e-10
1.00294e-09
4.14885e-11
5.71034e-11
-6.53284e-11
-7.47397e-11
5.02408e-11
7.81963e-11
8.00541e-10
6.28686e-11
6.0794e-11
-7.38735e-11
-5.64492e-11
3.38099e-11
-4.8173e-11
-4.34878e-11
-8.16354e-12
9.00043e-12
4.9405e-11
-1.56453e-11
1.06746e-10
1.08773e-09
-3.1566e-11
1.07597e-10
1.09105e-09
-4.57918e-11
1.14747e-10
1.09866e-09
-6.11798e-11
1.14913e-10
1.1036e-09
-7.5613e-11
1.24315e-10
1.12079e-09
-9.08007e-11
1.22455e-10
1.1384e-09
-1.00969e-10
1.28961e-10
1.19155e-09
-9.97266e-11
1.20147e-10
1.24382e-09
-8.98782e-11
1.17118e-10
1.28712e-09
-7.84826e-11
8.98055e-11
1.30803e-09
6.06866e-11
6.50642e-11