/*--------------------------------*- C++ -*----------------------------------*\
| =========                 |                                                 |
| \\      /  F ield         | OpenFOAM: The Open Source CFD Toolbox           |
|  \\    /   O peration     | Version:  2.1.1                                 |
|   \\  /    A nd           | Web:      www.OpenFOAM.org                      |
|    \\/     M anipulation  |                                                 |
\*---------------------------------------------------------------------------*/
FoamFile
{
    version     2.0;
    format      ascii;
    class       volVectorField;
    location    "0.0035";
    object      U;
}
// * * * * * * * * * * * * * * * * * * * * * * * * * * * * * * * * * * * * * //

dimensions      [0 1 -1 0 0 0 0];

internalField   nonuniform List<vector> 
10233
(
(0.000303159 0.000300188 0.0730271)
(0.002261 0.00159502 0.0703601)
(0.0116769 -0.00631603 0.0447024)
(0.000434913 0.0162779 0.0804179)
(0.00233284 0.0146684 0.0801405)
(0.00285823 0.00802176 0.0816195)
(-0.00271083 -0.00892883 0.0814645)
(0.00632459 -0.0131223 0.0745258)
(-0.00336801 -0.000878063 0.0630815)
(0.000101609 0.00694421 0.0838332)
(-0.000107119 0.00608856 0.0836201)
(-0.000345002 0.00387495 0.0838466)
(-0.00155396 0.00198534 0.0838178)
(-0.0013007 0.00576343 0.0822714)
(-0.00311432 0.00844592 0.0809007)
(-0.00339685 -0.00253471 0.084923)
(0.00789673 0.00217162 0.0626844)
(-2.20568e-05 0.00313805 0.0847459)
(-0.000235544 0.00301459 0.0847995)
(-0.000825085 0.00257437 0.0850371)
(-0.00188397 0.00237038 0.0856433)
(-0.00291691 0.00358673 0.085184)
(-0.00307968 0.00550487 0.0838392)
(-0.00366732 0.0097963 0.0814348)
(-0.00124216 0.00909352 0.0805961)
(0.00151982 -0.00614525 0.0821718)
(-0.00405689 -0.00487217 0.0594087)
(-6.079e-05 0.00130222 0.0847839)
(-0.000217528 0.00134955 0.0849041)
(-0.000610567 0.00137343 0.0851106)
(-0.00111113 0.00149064 0.0854526)
(-0.0018321 0.00217684 0.0857291)
(-0.00242306 0.00336263 0.0858867)
(-0.00325336 0.00491558 0.085042)
(-0.00280276 0.00626091 0.0838512)
(-0.00239915 0.00912806 0.0825651)
(-0.00424066 0.0122268 0.0853136)
(0.0029843 -0.00293899 0.0618097)
(-7.42495e-05 0.00112892 0.0848547)
(-0.000218054 0.00115475 0.0849538)
(-0.000472807 0.00117261 0.0850774)
(-0.000732515 0.00112718 0.0852431)
(-0.00111852 0.00128249 0.0854212)
(-0.00140479 0.00164681 0.0856154)
(-0.00190439 0.0024795 0.0858565)
(-0.00219241 0.00340493 0.0861931)
(-0.00301982 0.00486032 0.0861905)
(-0.00409066 0.00573897 0.0861449)
(-0.0059513 0.00957559 0.091104)
(-0.000270551 -0.0036851 0.0622337)
(-7.69717e-05 0.000833271 0.0849557)
(-0.000204316 0.000845714 0.0850423)
(-0.000388782 0.000863627 0.0851343)
(-0.000557185 0.000852336 0.0852451)
(-0.000808709 0.00089836 0.0853429)
(-0.00096617 0.00099086 0.0854628)
(-0.00127624 0.00125278 0.0856295)
(-0.00155971 0.00158073 0.0859612)
(-0.00231966 0.00218551 0.0866681)
(-0.00419798 0.0032725 0.0882676)
(-0.00548889 0.00422458 0.0874872)
(0.0027226 0.0068391 0.0863363)
(-7.66388e-05 0.000728685 0.0850496)
(-0.000193232 0.000730934 0.085128)
(-0.000340376 0.000738736 0.0852081)
(-0.000475633 0.000727925 0.085298)
(-0.000663517 0.000747312 0.0853809)
(-0.000801416 0.000781645 0.0854744)
(-0.00103909 0.00090516 0.0855891)
(-0.00129188 0.0010391 0.0857988)
(-0.00199384 0.00139142 0.0863391)
(-0.00354529 0.0019914 0.0876615)
(-0.00602249 0.00344591 0.0889221)
(-0.00483367 0.00587974 0.0868273)
(0.00666997 -0.0063863 0.0746703)
(-7.41163e-05 0.00056825 0.08513)
(-0.000181822 0.000568779 0.0852029)
(-0.000307238 0.000575264 0.0852752)
(-0.000425677 0.000575208 0.0853555)
(-0.000582213 0.00058674 0.0854321)
(-0.000718223 0.000599925 0.0855253)
(-0.00093141 0.000653728 0.08563)
(-0.00117187 0.000728385 0.0857909)
(-0.00171706 0.000857135 0.0861168)
(-0.00289906 0.00117678 0.086981)
(-0.00542545 0.00205755 0.0887801)
(-0.00604282 0.0034755 0.0874567)
(-0.0018578 0.00340168 0.0866985)
(0.00581608 0.000224847 0.0542488)
(-7.13275e-05 0.00047149 0.0852035)
(-0.000172784 0.000470229 0.0852723)
(-0.000284518 0.000474066 0.0853404)
(-0.000393485 0.000475899 0.0854143)
(-0.000529467 0.00048551 0.0854876)
(-0.000659522 0.000496237 0.0855762)
(-0.000849622 0.000529978 0.0856776)
(-0.00106889 0.000586009 0.0858182)
(-0.00148586 0.000711215 0.0860415)
(-0.00228789 0.000975522 0.0865962)
(-0.00409461 0.00179979 0.0878949)
(-0.00550778 0.00338658 0.0886105)
(-0.00337973 0.00744277 0.0852077)
(0.0115918 0.000929385 0.0768346)
(-6.87084e-05 0.000360156 0.0852703)
(-0.000164734 0.000358317 0.0853362)
(-0.000267459 0.000360272 0.0854023)
(-0.000370294 0.000361326 0.0854725)
(-0.000494246 0.000366152 0.0855441)
(-0.000617523 0.00037053 0.085629)
(-0.000788676 0.000381172 0.085726)
(-0.000984419 0.00039382 0.0858553)
(-0.00131649 0.000426373 0.0860234)
(-0.00184321 0.000515165 0.0863532)
(-0.00305283 0.000869802 0.0870887)
(-0.00484744 0.00202296 0.0883979)
(-0.00308314 0.00403336 0.0863963)
(0.0119939 0.00721279 0.084349)
(-6.64742e-05 0.000273139 0.0853339)
(-0.000158267 0.000271266 0.0853984)
(-0.000255173 0.00027216 0.0854623)
(-0.000352511 0.000272894 0.0855307)
(-0.000466835 0.000278217 0.0856031)
(-0.000582396 0.00028439 0.085687)
(-0.000736379 0.000294444 0.0857817)
(-0.000905061 0.00030693 0.0859056)
(-0.00117461 0.000328474 0.0860552)
(-0.00153913 0.000378687 0.0862937)
(-0.00235272 0.000541174 0.086763)
(-0.0037964 0.00122459 0.0878458)
(-0.00432485 0.00251384 0.0880731)
(-0.00245331 0.00578551 0.0852542)
(0.00280483 0.001379 0.0612031)
(-6.55166e-05 0.000181101 0.0853954)
(-0.000153532 0.000180016 0.0854583)
(-0.000246097 0.000179652 0.0855217)
(-0.000339485 0.000179848 0.0855909)
(-0.00044813 0.000181216 0.085665)
(-0.000558653 0.000181945 0.0857495)
(-0.000703431 0.000183522 0.0858454)
(-0.000852976 0.000183337 0.0859724)
(-0.00108984 0.000172908 0.0861233)
(-0.00135542 0.000161517 0.0863569)
(-0.00196769 0.000117266 0.0867263)
(-0.00298122 0.000234464 0.0877917)
(-0.00472562 3.33665e-05 0.0897922)
(-0.00141701 -0.00199178 0.0878085)
(0.00852976 -0.0184874 0.0628427)
(-6.50316e-05 9.98393e-05 0.085456)
(-0.000149963 9.88402e-05 0.0855183)
(-0.000239655 9.84119e-05 0.0855834)
(-0.000330236 9.86698e-05 0.0856536)
(-0.000435622 9.98137e-05 0.0857287)
(-0.000542022 0.000101873 0.0858164)
(-0.000680624 0.000106071 0.0859165)
(-0.000819688 0.000113449 0.0860503)
(-0.00104194 0.000122598 0.0862101)
(-0.00127004 0.000142497 0.0864696)
(-0.00183182 0.000164832 0.0868617)
(-0.00275347 0.000196793 0.0881082)
(-0.00525795 -0.0002323 0.0904836)
(-0.0049225 -0.00253036 0.089955)
(-0.00148496 -0.00951204 0.0848185)
(-6.37368e-05 1.48988e-05 0.0855165)
(-0.000147859 1.56409e-05 0.0855794)
(-0.000235799 1.40611e-05 0.0856453)
(-0.000325138 1.21925e-05 0.0857174)
(-0.000428983 1.04141e-05 0.0857951)
(-0.000533464 9.04709e-06 0.0858875)
(-0.000670619 8.16523e-06 0.0859922)
(-0.000807043 8.88132e-06 0.0861335)
(-0.001029 1.19811e-05 0.0863032)
(-0.00125195 2.5421e-05 0.0865835)
(-0.00182655 5.3345e-05 0.0870037)
(-0.00272345 0.00010538 0.0883888)
(-0.00538475 -8.8757e-06 0.0906716)
(-0.00755225 -0.000846385 0.0900569)
(-0.000100419 -0.00247816 0.0858187)
(0.000899766 -0.0064243 0.0582786)
(0.00220171 -0.00577161 0.0526503)
(-0.000265172 -0.0027427 0.0240959)
(0.000763199 0.051786 0.121773)
(0.000909453 0.046785 0.123298)
(-0.00448965 0.0384362 0.136287)
(-0.021421 0.0246057 0.116523)
(-0.0153522 -0.00878566 0.0953994)
(0.00337729 -0.00373745 0.0457759)
(0.000537567 0.0229282 0.144326)
(0.000415441 0.0204191 0.14636)
(0.000600543 0.0189261 0.152488)
(-0.01116 0.0216861 0.152381)
(-0.0132976 0.0341671 0.122262)
(-0.0258181 0.0366523 0.105915)
(-0.0194982 -0.00283693 0.116597)
(0.00547265 -0.00300086 0.0506022)
(2.95625e-05 0.0158513 0.139723)
(-0.00136625 0.0148928 0.140753)
(-0.00225196 0.0142959 0.142955)
(-0.00754448 0.013198 0.147314)
(-0.00896749 0.0226659 0.148668)
(-0.0160489 0.0293114 0.149784)
(-0.0121557 0.0387877 0.122965)
(-0.0233691 0.0406943 0.113379)
(-0.0150814 -0.000286568 0.103527)
(0.0037353 -0.00842318 0.0336342)
(-0.000169345 0.00951545 0.134732)
(-0.00147119 0.00924576 0.135132)
(-0.00199199 0.00966783 0.135495)
(-0.00469827 0.00955048 0.13757)
(-0.00606017 0.0133474 0.140706)
(-0.00910505 0.0151175 0.146312)
(-0.00861022 0.0243845 0.148677)
(-0.0152316 0.0298594 0.151189)
(-0.00835477 0.0362252 0.124055)
(-0.0199922 0.0248287 0.118878)
(-0.0292881 0.00215494 0.0619545)
(-0.000299474 0.00797026 0.134337)
(-0.00147337 0.00789868 0.134493)
(-0.00221474 0.0083311 0.134434)
(-0.003824 0.00809127 0.134796)
(-0.00465258 0.00986287 0.135309)
(-0.0062844 0.0100012 0.137292)
(-0.00681513 0.013519 0.140811)
(-0.00890873 0.0141158 0.146065)
(-0.00900478 0.0208543 0.149315)
(-0.0166958 0.016585 0.154822)
(-0.0247632 0.0199342 0.118814)
(-0.031741 0.00235319 0.0619067)
(-0.000279305 0.0057059 0.13376)
(-0.00118743 0.00573811 0.133873)
(-0.00182989 0.00616385 0.133871)
(-0.00300372 0.00631161 0.134083)
(-0.00385186 0.00741272 0.134034)
(-0.00518667 0.0075615 0.134445)
(-0.00613672 0.00919166 0.135233)
(-0.00833945 0.00898478 0.137549)
(-0.011064 0.0110797 0.142822)
(-0.0208389 0.00900838 0.149287)
(-0.0361743 0.00844973 0.123989)
(-0.0275091 0.00434641 0.116014)
(-0.000280644 0.00467242 0.133729)
(-0.00104311 0.00469579 0.133782)
(-0.00165464 0.00496177 0.133774)
(-0.0025386 0.00505432 0.133899)
(-0.00328194 0.00572451 0.133888)
(-0.00435612 0.00591752 0.13407)
(-0.00535853 0.00689802 0.134181)
(-0.0068648 0.00686518 0.134818)
(-0.00897709 0.00834439 0.137539)
(-0.014111 0.00890316 0.146044)
(-0.0298325 0.0152324 0.151143)
(-0.0406677 0.023338 0.113355)
(-0.00618922 -0.00323096 0.0952259)
(-0.000260473 0.00355657 0.133512)
(-0.000907758 0.00359039 0.133546)
(-0.00147441 0.00377978 0.133543)
(-0.00222787 0.00389119 0.133636)
(-0.00295535 0.00430623 0.133643)
(-0.0039719 0.00450291 0.13381)
(-0.005127 0.00513269 0.133884)
(-0.0068927 0.00536194 0.134182)
(-0.00918205 0.00614466 0.135228)
(-0.0135098 0.0068173 0.140803)
(-0.02437 0.00862036 0.148659)
(-0.0387781 0.0121402 0.122954)
(-0.0300665 0.00250809 0.110391)
(-0.00091981 -0.00349057 0.0319262)
(-0.000248636 0.00286439 0.133499)
(-0.000824856 0.00288838 0.133517)
(-0.00135648 0.00300692 0.133513)
(-0.00200802 0.00308769 0.133571)
(-0.00266042 0.00334936 0.133581)
(-0.00352115 0.00352324 0.133714)
(-0.00449943 0.00397449 0.133809)
(-0.00591454 0.00435633 0.134068)
(-0.00755599 0.00518756 0.13444)
(-0.00999683 0.00628009 0.137286)
(-0.0151093 0.00910141 0.1463)
(-0.0293041 0.0160342 0.149777)
(-0.0366518 0.0258129 0.10591)
(-0.00265205 0.00368339 0.0948593)
(-0.000237363 0.00217723 0.133421)
(-0.000767337 0.00219833 0.133435)
(-0.00127643 0.00227937 0.133432)
(-0.00188415 0.00234816 0.133475)
(-0.00251717 0.00251948 0.133481)
(-0.00334675 0.00266259 0.133582)
(-0.00430237 0.00295786 0.133642)
(-0.005721 0.00328338 0.133887)
(-0.00740827 0.00385415 0.134031)
(-0.00985892 0.00465188 0.135306)
(-0.0133429 0.00606049 0.140701)
(-0.0226618 0.00896092 0.148666)
(-0.0341678 0.0132962 0.12226)
(-0.0226971 0.00842228 0.1074)
(-0.000228092 0.00164948 0.133417)
(-0.000724042 0.00166455 0.133428)
(-0.00120779 0.00171687 0.133428)
(-0.0017679 0.00176938 0.133466)
(-0.00234597 0.00188593 0.133476)
(-0.0030855 0.00200925 0.133571)
(-0.00388848 0.00222903 0.133634)
(-0.00505168 0.00253854 0.133897)
(-0.00630835 0.00300394 0.13408)
(-0.00808869 0.00382184 0.134794)
(-0.0095478 0.00469638 0.137566)
(-0.0131948 0.00753918 0.147313)
(-0.0216867 0.0111566 0.15238)
(-0.0246057 0.0214196 0.116521)
(-0.0251241 -0.00349449 0.065462)
(-0.000222633 0.0011308 0.133389)
(-0.000700494 0.00114121 0.133398)
(-0.00117207 0.0011734 0.133398)
(-0.00171511 0.00120946 0.133428)
(-0.00227733 0.00127814 0.133432)
(-0.00300498 0.00135774 0.133513)
(-0.0037772 0.00147581 0.133542)
(-0.00495924 0.00165528 0.133773)
(-0.00616159 0.00183048 0.133869)
(-0.00832924 0.00221408 0.134432)
(-0.00966609 0.00199148 0.135493)
(-0.0142936 0.0022497 0.142955)
(-0.0189249 -0.000602863 0.152488)
(-0.0384367 0.00448849 0.136286)
(-0.0358043 -0.00458759 0.0837578)
(-0.000217841 0.000676472 0.13339)
(-0.00068167 0.000682843 0.133397)
(-0.00113959 0.000701448 0.133397)
(-0.00166279 0.000724796 0.133427)
(-0.00219657 0.000768025 0.133434)
(-0.00288648 0.000824962 0.133517)
(-0.00358835 0.000907862 0.133545)
(-0.00469395 0.00104237 0.133781)
(-0.00573608 0.00118673 0.133871)
(-0.00789713 0.00147192 0.134491)
(-0.00924448 0.00147 0.13513)
(-0.0148912 0.00136421 0.140752)
(-0.0204198 -0.000417491 0.14636)
(-0.0467871 -0.000910074 0.123297)
(-0.0199286 -0.0103759 0.115986)
(-0.00021573 0.000216933 0.133384)
(-0.000675437 0.000219102 0.13339)
(-0.00112975 0.000224255 0.133389)
(-0.00164796 0.000229883 0.133416)
(-0.00217581 0.000239211 0.13342)
(-0.00286298 0.000250182 0.133497)
(-0.00355482 0.000261897 0.13351)
(-0.00467065 0.000281637 0.133727)
(-0.00570428 0.000280604 0.133758)
(-0.00796869 0.000299946 0.134335)
(-0.0095142 0.000169965 0.13473)
(-0.0158496 -3.00856e-05 0.139721)
(-0.0229251 -0.000538014 0.144326)
(-0.0517849 -0.000762954 0.121773)
(-0.0256855 -0.00418565 0.114202)
(0.000430702 -0.00595872 0.0303671)
(0.00060939 -0.00618828 0.0268749)
(-0.00128887 -0.00283121 0.0125904)
(0.000101593 0.0113784 0.0929753)
(-0.00211191 0.0101127 0.0925985)
(-0.00189469 0.0106873 0.102614)
(-0.00401053 0.00571392 0.0810228)
(0.00113518 -0.00762804 0.0341774)
(0.00119247 -0.00588948 0.0237956)
(0.000393363 0.00358618 0.124652)
(-0.00112538 0.00272138 0.124778)
(0.00099064 0.0045096 0.130339)
(-0.000199989 0.00396871 0.126309)
(0.00137001 0.00645723 0.0994049)
(-0.00714507 0.00970749 0.0790896)
(0.000683268 -0.00890763 0.037117)
(0.000818113 -0.00540401 0.0272786)
(-0.000278501 0.00912377 0.108286)
(-0.00244026 0.00849503 0.108434)
(-0.002761 0.00894329 0.111436)
(-0.00373959 0.00611445 0.116376)
(-0.00316909 0.00653395 0.124842)
(-0.00395118 0.00594873 0.12627)
(0.000329609 0.0076237 0.0999896)
(-0.00789584 0.0107039 0.0827682)
(0.000275854 -0.00641124 0.0406606)
(-0.00128757 -0.00645736 0.0194773)
(-0.000237546 0.00720267 0.100221)
(-0.00173057 0.00713163 0.100336)
(-0.00210457 0.00801965 0.101267)
(-0.00339136 0.00743882 0.103151)
(-0.00421564 0.0077578 0.110039)
(-0.00493226 0.00633289 0.11711)
(-0.00396338 0.00645417 0.12547)
(-0.00419426 0.00675854 0.126551)
(0.000212916 0.00787178 0.0998588)
(-0.00766421 0.00475851 0.0780244)
(-0.0137028 0.00018193 0.0129635)
(-0.000359541 0.00759874 0.0967932)
(-0.00164138 0.00750149 0.0969862)
(-0.00233987 0.00795906 0.0975531)
(-0.00339351 0.00753855 0.0980625)
(-0.00412979 0.00816189 0.10043)
(-0.00506315 0.00752792 0.102914)
(-0.00567211 0.00769169 0.109983)
(-0.00577447 0.00633567 0.11649)
(-0.00494612 0.00595944 0.124344)
(-0.00449006 0.00442783 0.127486)
(-0.00470612 0.00762049 0.0780896)
(-0.00999868 0.00534442 0.0140174)
(-0.000330257 0.0060832 0.0949122)
(-0.00134156 0.00608641 0.0951078)
(-0.00200915 0.00646065 0.095595)
(-0.0029934 0.00646313 0.0960551)
(-0.00379165 0.00702437 0.0972025)
(-0.00475952 0.00694474 0.0980919)
(-0.00558678 0.00741982 0.100968)
(-0.00633555 0.00697126 0.104289)
(-0.00686029 0.00686386 0.11422)
(-0.00595678 0.00495451 0.124306)
(-0.00782805 -0.000158304 0.0998076)
(1.54188e-05 -0.00209191 0.0262993)
(-0.000351351 0.0055131 0.0935436)
(-0.00125635 0.00550221 0.0936892)
(-0.00196521 0.00570442 0.0940578)
(-0.00284242 0.00566874 0.0945014)
(-0.00360009 0.00603675 0.0953665)
(-0.00450442 0.00602837 0.096136)
(-0.00539009 0.00642628 0.0976558)
(-0.00624091 0.00624201 0.0990975)
(-0.00696521 0.00634236 0.104281)
(-0.00632811 0.00578308 0.116469)
(-0.00673766 0.00420994 0.126533)
(-0.0106813 0.00787246 0.082745)
(0.00159764 -0.00234364 0.0373805)
(-0.000338168 0.00448241 0.092642)
(-0.00114634 0.00449757 0.0927531)
(-0.00184275 0.00465091 0.0930188)
(-0.00267595 0.00468934 0.0933924)
(-0.00345104 0.00494521 0.0940624)
(-0.00437116 0.00500456 0.094862)
(-0.00530047 0.00530757 0.0962057)
(-0.00641911 0.00539488 0.0976543)
(-0.00740923 0.00559626 0.100962)
(-0.00768189 0.0056783 0.109971)
(-0.0064425 0.00397577 0.125455)
(-0.00761717 -0.000335691 0.0999671)
(0.00125332 -0.00523527 0.0280637)
(0.00108743 -0.00315111 0.0237809)
(-0.000334259 0.00378054 0.0920425)
(-0.00108626 0.00379117 0.0921302)
(-0.00177217 0.00388659 0.0923307)
(-0.0025509 0.00391812 0.0926281)
(-0.00329203 0.00408944 0.0931279)
(-0.00415182 0.0041549 0.0937914)
(-0.00499934 0.00437491 0.0948616)
(-0.00602361 0.00450523 0.0961349)
(-0.00693769 0.00476087 0.0980889)
(-0.00752201 0.00506062 0.10291)
(-0.00632603 0.00493035 0.117105)
(-0.00594476 0.00394112 0.12626)
(-0.00970752 0.00714097 0.0790877)
(0.00231434 -0.00185034 0.040848)
(-0.000326516 0.00296979 0.0916338)
(-0.00103933 0.00298393 0.0917083)
(-0.00171455 0.00305269 0.0918715)
(-0.00247258 0.00309522 0.0921288)
(-0.00321428 0.00321802 0.0925401)
(-0.00408564 0.00329537 0.0931279)
(-0.00494016 0.00345489 0.0940621)
(-0.00603182 0.00360209 0.0953651)
(-0.00701802 0.00379465 0.0972004)
(-0.00815651 0.00412966 0.100427)
(-0.00775291 0.00421659 0.110036)
(-0.00653239 0.00316455 0.124838)
(-0.00645873 -0.00137076 0.099401)
(0.00193464 -0.00437732 0.0280209)
(-0.000319679 0.00229587 0.0913643)
(-0.00100298 0.00230687 0.0914281)
(-0.00166041 0.00235201 0.0915645)
(-0.00238541 0.00238833 0.0917864)
(-0.00309187 0.00247532 0.0921295)
(-0.00391489 0.00255281 0.0926282)
(-0.00468541 0.00267789 0.093392)
(-0.00566488 0.00284277 0.0945006)
(-0.00645861 0.00299372 0.0960542)
(-0.0075349 0.00339149 0.0980613)
(-0.00743542 0.00338952 0.10315)
(-0.00611261 0.00373501 0.116375)
(-0.00397027 0.000197164 0.126308)
(-0.00571351 0.00400856 0.0810229)
(-0.00786927 -0.00369792 0.0213345)
(-0.00031549 0.00159782 0.0911851)
(-0.000982977 0.0016063 0.0912425)
(-0.00163284 0.00163512 0.0913635)
(-0.00234928 0.00166275 0.0915649)
(-0.00304995 0.00171683 0.0918716)
(-0.00388357 0.00177395 0.0923306)
(-0.00464741 0.00184439 0.0930185)
(-0.00570118 0.00196581 0.094057)
(-0.00645684 0.00200981 0.0955938)
(-0.00795592 0.00233924 0.0975523)
(-0.00801677 0.00210411 0.101267)
(-0.00894185 0.00275835 0.111436)
(-0.00450956 -0.000992563 0.130338)
(-0.0106875 0.0018935 0.102613)
(-0.00600482 0.00375404 0.0264218)
(-0.00031124 0.0009623 0.0910795)
(-0.000965638 0.000967588 0.0911319)
(-0.00160396 0.000985215 0.0912424)
(-0.00230395 0.00100505 0.091428)
(-0.00298114 0.00104137 0.0917083)
(-0.00378859 0.00108779 0.0921304)
(-0.00449482 0.0011475 0.0927527)
(-0.00549934 0.00125685 0.0936888)
(-0.00608319 0.00134217 0.0951074)
(-0.00749906 0.0016408 0.0969862)
(-0.00713008 0.00172984 0.100336)
(-0.00849394 0.00243835 0.108434)
(-0.00272164 0.00112414 0.124779)
(-0.0101141 0.00211087 0.0925997)
(0.00265729 -0.00096622 0.033305)
(-0.00030975 0.000311268 0.0910295)
(-0.000960025 0.000312376 0.0910795)
(-0.00159538 0.000316875 0.0911857)
(-0.00229333 0.000321119 0.0913651)
(-0.0029676 0.000327852 0.0916343)
(-0.0037784 0.000335105 0.0920429)
(-0.00447994 0.000338909 0.0926419)
(-0.00551046 0.000351508 0.0935439)
(-0.00608058 0.000330486 0.0949126)
(-0.00759705 0.000358752 0.0967941)
(-0.0072011 0.000237014 0.100221)
(-0.0091226 0.000277398 0.108287)
(-0.00358486 -0.000394173 0.124653)
(-0.0113777 -0.000102555 0.0929734)
(0.0030132 -0.000336671 0.0317336)
(5.58917e-05 -0.00520276 0.0231529)
(-0.000423252 -0.0048938 0.0207622)
(-0.00149916 -0.00131558 0.0103155)
(0.000331132 -0.00231654 0.0892218)
(-0.00124616 -0.00221515 0.0892132)
(-0.00101317 -0.00148781 0.0965369)
(0.00232823 -0.00165886 0.075725)
(0.00128097 -0.00587259 0.0292086)
(0.000913421 -0.00347921 0.0185088)
(0.000196029 0.00234694 0.119145)
(-0.00143021 0.00179292 0.118727)
(-0.000621235 0.00274004 0.123074)
(0.000146475 0.0014523 0.118844)
(0.00106974 -0.00215468 0.0930931)
(0.00134272 -0.00103859 0.0732245)
(0.00209356 -0.008451 0.0312557)
(-1.07073e-05 -0.00432351 0.020903)
(-0.00019299 0.00766615 0.110307)
(-0.00191041 0.00731076 0.110301)
(-0.0027544 0.00777478 0.112523)
(-0.0030857 0.00597219 0.115081)
(-0.00316037 0.00411042 0.119026)
(-0.00206666 0.00113911 0.118552)
(0.000125556 -0.00201413 0.0920793)
(0.00125812 -0.00115511 0.0757153)
(0.00080621 -0.00563702 0.0320328)
(-0.00115185 -0.00448091 0.0147591)
(-0.000158779 0.0065657 0.108712)
(-0.00132555 0.00647298 0.108762)
(-0.00189431 0.00711561 0.109346)
(-0.00291939 0.00706923 0.109617)
(-0.00384247 0.00679706 0.112453)
(-0.00380779 0.00575126 0.115587)
(-0.00375827 0.00357358 0.119182)
(-0.00190469 0.00166336 0.119132)
(-0.000310205 -0.00162825 0.0926396)
(0.000545194 -0.00155746 0.0724585)
(-0.0120261 0.00267754 0.0147713)
(-0.000278702 0.00651526 0.107265)
(-0.00129632 0.00640281 0.107455)
(-0.00196079 0.00672097 0.107977)
(-0.00281503 0.00660003 0.108006)
(-0.00358643 0.00709928 0.108756)
(-0.00423168 0.00698972 0.109228)
(-0.00490714 0.00643911 0.112143)
(-0.00452361 0.00539237 0.115473)
(-0.00392119 0.00296379 0.118756)
(-0.00208456 0.00206084 0.120253)
(0.00158221 -0.000562938 0.0724486)
(-0.00908143 0.00456548 0.0171055)
(-0.000271744 0.00527745 0.106423)
(-0.00111753 0.00525519 0.106569)
(-0.00171079 0.00550051 0.106985)
(-0.00252463 0.00553789 0.107236)
(-0.003232 0.00592742 0.107828)
(-0.00392969 0.00607481 0.107997)
(-0.00467988 0.00630402 0.108975)
(-0.00515303 0.0061286 0.109818)
(-0.00530945 0.00531138 0.113748)
(-0.00295978 0.0039242 0.118741)
(0.00163968 0.000345485 0.0926021)
(-0.00140143 -4.29072e-05 0.0249494)
(-0.00029954 0.00478862 0.105444)
(-0.00107723 0.00476799 0.105548)
(-0.00169942 0.00491014 0.105851)
(-0.00244662 0.00487722 0.106161)
(-0.00310734 0.00512428 0.106767)
(-0.00382512 0.00515013 0.107245)
(-0.00456491 0.00535703 0.108028)
(-0.00532562 0.00532016 0.108355)
(-0.00612408 0.00515512 0.109816)
(-0.00538106 0.00452417 0.115464)
(-0.0016554 0.00191839 0.119124)
(0.0011666 -0.00126771 0.0757036)
(0.00197553 -0.00235112 0.0293214)
(-0.000290554 0.00390333 0.10484)
(-0.000993978 0.00391116 0.10492)
(-0.00159932 0.00402894 0.10513)
(-0.00231817 0.00405994 0.105391)
(-0.00298533 0.00424593 0.105877)
(-0.00373395 0.00430109 0.106426)
(-0.00447885 0.0044849 0.107322)
(-0.00535264 0.00456834 0.108024)
(-0.00629535 0.00469208 0.108971)
(-0.00643236 0.00491325 0.112134)
(-0.00356938 0.00376856 0.119172)
(0.00201641 -0.00012545 0.0920614)
(-0.00047679 -0.00377872 0.0250896)
(0.00113322 -0.00275897 0.0173459)
(-0.000290179 0.00331067 0.104355)
(-0.000950287 0.00331498 0.104424)
(-0.00154686 0.00338947 0.104591)
(-0.00222423 0.00341152 0.104816)
(-0.00286413 0.00354309 0.105194)
(-0.00359383 0.00359621 0.105663)
(-0.00429691 0.00373697 0.106426)
(-0.00514709 0.00382522 0.107243)
(-0.00606934 0.00393212 0.107994)
(-0.00698471 0.00422964 0.109224)
(-0.00574699 0.00380815 0.115583)
(-0.00113655 0.00206133 0.118544)
(0.00103846 -0.00134464 0.0732236)
(0.00231111 -0.00268802 0.032202)
(-0.000285185 0.00260962 0.104021)
(-0.000914421 0.00261804 0.104083)
(-0.00150109 0.00267183 0.104225)
(-0.0021617 0.002703 0.104433)
(-0.00279752 0.00280073 0.104763)
(-0.00353996 0.00286707 0.105193)
(-0.00424173 0.00298886 0.105876)
(-0.00512047 0.00310917 0.106765)
(-0.00592271 0.00323548 0.107825)
(-0.00709509 0.00358701 0.108751)
(-0.00679351 0.00384437 0.11245)
(-0.00410937 0.00315794 0.11902)
(0.00215404 -0.00107004 0.0930897)
(-0.000459416 -0.00287546 0.026088)
(-0.000281102 0.00203274 0.103773)
(-0.000887733 0.00203897 0.10383)
(-0.00146142 0.00207307 0.103955)
(-0.00209487 0.00209718 0.104144)
(-0.00270005 0.00216396 0.104434)
(-0.00340874 0.00222578 0.104815)
(-0.00405682 0.00231962 0.10539)
(-0.00487451 0.00244665 0.10616)
(-0.00553427 0.00252514 0.107234)
(-0.00659665 0.0028139 0.108004)
(-0.00706667 0.00291868 0.109615)
(-0.00597063 0.00308273 0.115079)
(-0.00145286 -0.000148213 0.118842)
(0.00165906 -0.00232983 0.075725)
(-0.0070558 -0.00254917 0.0214229)
(-0.000278725 0.00141763 0.103606)
(-0.000873886 0.00142289 0.103659)
(-0.00144266 0.00144465 0.103775)
(-0.0020708 0.00146344 0.103955)
(-0.00266937 0.00150322 0.104225)
(-0.00338712 0.0015484 0.10459)
(-0.00402625 0.00160095 0.105129)
(-0.00490739 0.00170024 0.105849)
(-0.00549719 0.00171229 0.106983)
(-0.00671818 0.00196068 0.107975)
(-0.00711352 0.00189454 0.109345)
(-0.00777375 0.00275298 0.11252)
(-0.00273943 0.000620686 0.123072)
(0.00148831 0.00101292 0.0965356)
(-0.00739841 0.00303534 0.0241106)
(-0.000276078 0.000858877 0.103501)
(-0.000860645 0.000862328 0.103551)
(-0.00142086 0.000875251 0.10366)
(-0.00203652 0.000889151 0.10383)
(-0.00261557 0.00091567 0.104083)
(-0.0033127 0.000950987 0.104424)
(-0.00390876 0.000994578 0.104919)
(-0.00476547 0.0010773 0.105547)
(-0.00525261 0.00111769 0.106568)
(-0.00640086 0.00129529 0.107454)
(-0.0064717 0.00132451 0.108762)
(-0.00730953 0.00190845 0.110301)
(-0.00179195 0.00142893 0.118728)
(0.0022149 0.00124448 0.0892143)
(0.00174943 -0.0010639 0.0300313)
(-0.00027442 0.000275765 0.103452)
(-0.000857506 0.000277497 0.1035)
(-0.00141589 0.000280225 0.103605)
(-0.00203058 0.000282905 0.103772)
(-0.00260788 0.000286845 0.10402)
(-0.00330897 0.000291438 0.104353)
(-0.00390127 0.000291712 0.104838)
(-0.00478637 0.000300379 0.105442)
(-0.00527534 0.000272481 0.106421)
(-0.00651376 0.000278679 0.107263)
(-0.00656456 0.0001588 0.10871)
(-0.00766538 0.000192758 0.110304)
(-0.00234626 -0.00019613 0.119143)
(0.00231693 -0.000331621 0.0892196)
(0.0015158 -9.76586e-05 0.0270547)
(1.16504e-06 -0.00522485 0.0225199)
(-0.00067723 -0.00493803 0.020353)
(-0.0016689 -0.00134879 0.0105351)
(0.00021486 -0.000794644 0.0925713)
(-0.000470362 -0.000681961 0.0927495)
(-0.000843221 -0.00074851 0.0989265)
(0.00092452 -0.000786095 0.0788862)
(0.00127431 -0.00590777 0.030295)
(0.000549406 -0.00338334 0.0185113)
(0.00012814 0.0031314 0.118689)
(-0.000783874 0.00273792 0.118744)
(-0.000691031 0.0027725 0.122708)
(-0.000692517 0.00215622 0.119685)
(-0.000549564 -0.000532621 0.0946265)
(0.000703361 -0.000492517 0.0759627)
(0.00183999 -0.00874385 0.0324736)
(-0.000424098 -0.00463292 0.0200694)
(-4.92304e-05 0.00478193 0.114009)
(-0.000894283 0.00455388 0.114222)
(-0.00150918 0.00470243 0.116115)
(-0.00176249 0.00397858 0.118116)
(-0.00211492 0.00329568 0.119439)
(-0.00171339 0.0018797 0.118711)
(-0.000986365 -0.000554808 0.093199)
(0.000792591 -0.000673138 0.0783148)
(0.000517424 -0.00584716 0.0326988)
(-0.00171457 -0.00439933 0.0150685)
(-5.81031e-05 0.00409338 0.113037)
(-0.000694844 0.00396646 0.113278)
(-0.0010061 0.00416043 0.114037)
(-0.00159185 0.00422821 0.114411)
(-0.00220861 0.00416801 0.116028)
(-0.00209817 0.00401652 0.118018)
(-0.00245382 0.00296745 0.119235)
(-0.00159099 0.00207263 0.119383)
(-0.00106996 -0.000605255 0.094227)
(0.000673589 -0.000772874 0.0749983)
(-0.0121041 0.00249956 0.0167104)
(-0.000184479 0.00430726 0.111083)
(-0.00083108 0.0041768 0.111361)
(-0.00124098 0.00422725 0.112067)
(-0.00168945 0.00403692 0.112448)
(-0.00210915 0.00422259 0.113223)
(-0.00242336 0.00422907 0.113778)
(-0.00281166 0.00388485 0.115522)
(-0.00260367 0.00358466 0.117921)
(-0.00221843 0.0022102 0.119199)
(-0.00200975 0.00200074 0.119761)
(0.000782588 -0.000693419 0.074961)
(-0.00905408 0.00436592 0.0193905)
(-0.000197915 0.00384253 0.109858)
(-0.000803693 0.00379822 0.110028)
(-0.00121584 0.00386273 0.110525)
(-0.00172696 0.00376917 0.110978)
(-0.00213206 0.00378594 0.111803)
(-0.00241452 0.00372697 0.112362)
(-0.00275059 0.00369178 0.113346)
(-0.00295311 0.00356935 0.114149)
(-0.0030341 0.00303633 0.116413)
(-0.0022078 0.00221909 0.119189)
(0.000610943 0.0010853 0.0941884)
(-0.0012357 -0.000921698 0.0278493)
(-0.000229783 0.00365715 0.108633)
(-0.000817686 0.00362456 0.108754)
(-0.00128139 0.00367563 0.109103)
(-0.00180165 0.00358185 0.1095)
(-0.00223188 0.00360842 0.110233)
(-0.00262153 0.00346784 0.110974)
(-0.00292924 0.00335366 0.112055)
(-0.00317708 0.00317399 0.11288)
(-0.00356702 0.00295449 0.114157)
(-0.00358039 0.00260424 0.11792)
(-0.0020669 0.00159938 0.119376)
(0.000680754 -0.000795985 0.0783023)
(0.00138349 -0.00219207 0.0308611)
(-0.000229988 0.00310036 0.10791)
(-0.000784433 0.00309353 0.108006)
(-0.00125146 0.00314673 0.108257)
(-0.00178103 0.0031264 0.10857)
(-0.00224429 0.00317236 0.109136)
(-0.00270056 0.00311388 0.109806)
(-0.0030664 0.00306982 0.110906)
(-0.00334969 0.00293139 0.112052)
(-0.00368553 0.0027579 0.113345)
(-0.0038817 0.00281764 0.115513)
(-0.00296414 0.00246197 0.119226)
(0.000557394 0.000986867 0.0931812)
(-0.000432121 -0.0042178 0.0276516)
(0.00059655 -0.00264814 0.0171082)
(-0.000236091 0.00269685 0.107302)
(-0.00077138 0.00269064 0.107386)
(-0.00124572 0.00272491 0.107592)
(-0.00176675 0.00270989 0.107866)
(-0.0022318 0.00275051 0.108323)
(-0.0027206 0.00272257 0.108886)
(-0.00311107 0.00270297 0.109806)
(-0.00346556 0.00262294 0.110972)
(-0.00372298 0.00241619 0.112361)
(-0.00422542 0.00242303 0.113773)
(-0.00401258 0.00209937 0.118013)
(-0.00187662 0.00171075 0.118702)
(0.000492963 -0.000704321 0.0759605)
(0.00160485 -0.00263482 0.0330628)
(-0.000235738 0.00216277 0.106899)
(-0.000756312 0.00216337 0.106976)
(-0.00123169 0.00219103 0.107152)
(-0.00175332 0.00219406 0.107403)
(-0.00222797 0.00223072 0.107808)
(-0.00274803 0.00223435 0.108322)
(-0.00316916 0.00224733 0.109135)
(-0.00360553 0.00223418 0.110231)
(-0.00378272 0.00213534 0.1118)
(-0.00421976 0.00211087 0.113218)
(-0.00416471 0.00221118 0.116022)
(-0.00329353 0.00211452 0.119432)
(0.000532759 0.000550211 0.0946225)
(-0.000738816 -0.00395899 0.0280414)
(-0.000235114 0.00170444 0.106585)
(-0.000743003 0.00170548 0.106655)
(-0.00121486 0.00172394 0.106813)
(-0.00172684 0.00172884 0.107044)
(-0.0021915 0.00175522 0.107403)
(-0.00270758 0.00176811 0.107865)
(-0.0031238 0.00178225 0.108569)
(-0.00357965 0.00180205 0.109498)
(-0.00376613 0.00172778 0.110976)
(-0.00403399 0.00168935 0.112445)
(-0.00422574 0.0015923 0.114409)
(-0.00397647 0.00176088 0.118113)
(-0.00215607 0.000692163 0.119684)
(0.000786822 -0.000925352 0.078886)
(-0.00702175 -0.00233617 0.0229742)
(-0.000234529 0.00119595 0.106378)
(-0.000736716 0.00119795 0.106445)
(-0.00120822 0.00120997 0.106592)
(-0.00172204 0.0012168 0.106812)