/*--------------------------------*- C++ -*----------------------------------*\
| =========                 |                                                 |
| \\      /  F ield         | OpenFOAM: The Open Source CFD Toolbox           |
|  \\    /   O peration     | Version:  2.1.1                                 |
|   \\  /    A nd           | Web:      www.OpenFOAM.org                      |
|    \\/     M anipulation  |                                                 |
\*---------------------------------------------------------------------------*/
FoamFile
{
    version     2.0;
    format      ascii;
    class       volScalarField;
    location    "0.15";
    object      p;
}
// * * * * * * * * * * * * * * * * * * * * * * * * * * * * * * * * * * * * * //

dimensions      [0 2 -2 0 0 0 0];

internalField   nonuniform List<scalar> 
163952
(
0.041677
0.0411007
0.0363646
0.0311698
0.0299731
0.0273617
0.0267717
0.0264481
0.0366846
0.0323425
0.0273011
0.0248114
0.0235678
0.0227888
0.0224746
0.0223334
0.0337158
0.0279789
0.0244752
0.0228356
0.021923
0.0213852
0.0210465
0.0208663
0.0207808
0.0335855
0.0260867
0.0232524
0.0219058
0.0211505
0.0206717
0.0203522
0.0201406
0.0200145
0.019951
0.0335868
0.0255447
0.0227281
0.0214499
0.020735
0.0202713
0.0199473
0.0197165
0.0195571
0.0194566
0.0194042
0.033716
0.0260868
0.0227281
0.0213063
0.0205438
0.0200551
0.0197096
0.0194557
0.0192691
0.0191371
0.0190515
0.0190062
0.0366844
0.0279789
0.0232523
0.0214499
0.0205438
0.0199854
0.0195972
0.0193105
0.0190949
0.0189343
0.0188194
0.0187439
0.0187035
0.0323426
0.0244752
0.0219058
0.020735
0.0200551
0.0195972
0.0192636
0.0190119
0.0188206
0.0186773
0.0185742
0.018506
0.0184693
0.0363647
0.0273011
0.0228356
0.0211505
0.0202713
0.0197096
0.0193105
0.0190119
0.0187838
0.0186095
0.0184785
0.0183838
0.018321
0.018287
0.03117
0.0248114
0.0219231
0.0206718
0.0199474
0.0194557
0.0190949
0.0188206
0.0186095
0.0184475
0.0183253
0.0182368
0.0181779
0.0181459
0.0299732
0.0235678
0.0213852
0.0203522
0.0197166
0.0192691
0.0189343
0.0186773
0.0184785
0.0183253
0.0182095
0.0181254
0.0180693
0.0180388
0.0273618
0.0227889
0.0210466
0.0201406
0.0195571
0.0191371
0.0188194
0.0185742
0.0183838
0.0182368
0.0181254
0.0180443
0.0179902
0.0179608
0.041677
0.0267717
0.0224746
0.0208663
0.0200145
0.0194566
0.0190516
0.018744
0.018506
0.018321
0.0181779
0.0180692
0.0179902
0.0179373
0.0179086
0.0411008
0.0264481
0.0223334
0.0207809
0.019951
0.0194042
0.0190062
0.0187035
0.0184693
0.018287
0.0181459
0.0180388
0.0179608
0.0179086
0.0178803
0.023503
0.0235599
0.0224976
0.0237069
0.022438
0.0221239
0.0220791
0.0220583
0.0226023
0.0244163
0.0221035
0.0217913
0.0215308
0.02134
0.0212653
0.0212136
0.0233805
0.0221553
0.0217374
0.0213255
0.0209848
0.0207062
0.0205214
0.0204254
0.020376
0.0221249
0.0218346
0.0213973
0.0209561
0.0205634
0.0202522
0.020016
0.0198563
0.0197642
0.01972
0.0221256
0.0217053
0.0212132
0.0207093
0.0202824
0.0199399
0.0196804
0.0194891
0.0193574
0.0192772
0.0192387
0.0233807
0.0218348
0.0212132
0.0206293
0.0201404
0.0197625
0.0194733
0.0192554
0.0190947
0.0189824
0.0189121
0.0188782
0.0226025
0.0221554
0.0213974
0.0207093
0.0201404
0.0197038
0.0193744
0.019124
0.0189347
0.0187944
0.0186954
0.0186326
0.0186021
0.0244163
0.0217375
0.0209561
0.0202824
0.0197625
0.0193744
0.0190816
0.0188584
0.0186889
0.0185626
0.0184731
0.0184157
0.0183878
0.0224977
0.0221036
0.0213256
0.0205634
0.0199399
0.0194733
0.0191241
0.0188584
0.0186547
0.0184992
0.0183829
0.0183001
0.0182468
0.0182208
0.0237069
0.0217914
0.0209848
0.0202522
0.0196804
0.0192554
0.0189347
0.0186889
0.0184992
0.0183538
0.0182446
0.0181666
0.0181163
0.0180917
0.022438
0.0215308
0.0207062
0.020016
0.0194892
0.0190947
0.0187944
0.0185626
0.0183829
0.0182446
0.0181405
0.018066
0.0180179
0.0179943
0.022124
0.0213401
0.0205215
0.0198564
0.0193574
0.0189824
0.0186955
0.0184731
0.0183001
0.0181666
0.018066
0.0179938
0.0179472
0.0179244
0.0235031
0.0220792
0.0212653
0.0204254
0.0197643
0.0192772
0.0189122
0.0186326
0.0184158
0.0182468
0.0181163
0.0180179
0.0179472
0.0179015
0.0178791
0.0235599
0.0220584
0.0212136
0.020376
0.01972
0.0192387
0.0188782
0.0186021
0.0183878
0.0182208
0.0180917
0.0179943
0.0179244
0.0178791
0.017857
0.0198593
0.0198737
0.0199383
0.0203203
0.0205439
0.0204282
0.0203207
0.0202802
0.0199451
0.0207891
0.0203389
0.0202609
0.0201661
0.0201274
0.020098
0.0200727
0.0201555
0.0203527
0.0202523
0.0201318
0.0199951
0.0198507
0.0197594
0.0197044
0.019674
0.0205026
0.0202857
0.0201606
0.0199808
0.0197888
0.019623
0.0194832
0.0193832
0.019321
0.0192897
0.0205034
0.0202405
0.0200876
0.019866
0.0196411
0.0194385
0.0192724
0.0191411
0.0190465
0.0189866
0.0189571
0.0201555
0.0202859
0.0200876
0.0198281
0.0195622
0.0193287
0.0191323
0.018974
0.0188514
0.018763
0.0187064
0.0186787
0.0199452
0.0203528
0.0201608
0.019866
0.0195623
0.0192912
0.0190629
0.0188756
0.0187266
0.0186122
0.0185297
0.0184766
0.0184506
0.0207891
0.0202524
0.0199808
0.0196411
0.0193287
0.0190629
0.0188433
0.0186655
0.0185252
0.0184179
0.0183406
0.0182905
0.018266
0.0199384
0.020339
0.0201319
0.0197889
0.0194385
0.0191323
0.0188757
0.0186655
0.0184966
0.0183637
0.0182622
0.018189
0.0181415
0.0181182
0.0203203
0.020261
0.0199952
0.019623
0.0192724
0.0189741
0.0187266
0.0185252
0.0183637
0.0182367
0.0181398
0.0180697
0.0180243
0.018002
0.0205439
0.0201662
0.0198507
0.0194833
0.0191412
0.0188514
0.0186123
0.0184179
0.0182623
0.0181398
0.0180463
0.0179787
0.0179348
0.0179132
0.0204283
0.0201274
0.0197594
0.0193833
0.0190466
0.018763
0.0185298
0.0183406
0.018189
0.0180697
0.0179787
0.0179128
0.01787
0.017849
0.0198594
0.0203208
0.0200981
0.0197044
0.019321
0.0189867
0.0187064
0.0184766
0.0182905
0.0181415
0.0180243
0.0179348
0.01787
0.0178279
0.0178072
0.0198737
0.0202803
0.0200728
0.0196741
0.0192898
0.0189571
0.0186787
0.0184506
0.018266
0.0181182
0.018002
0.0179132
0.017849
0.0178072
0.0177867
0.0185121
0.0185225
0.0186292
0.0188562
0.0191872
0.0191868
0.0191344
0.0191124
0.0186441
0.01907
0.0191101
0.0190976
0.0190684
0.0190698
0.0190686
0.0190651
0.0187849
0.0191139
0.0191015
0.0190944
0.0190657
0.019014
0.0189783
0.018953
0.0189387
0.0192173
0.0191173
0.0191112
0.019061
0.0189949
0.0189306
0.0188679
0.0188181
0.0187835
0.0187652
0.0192179
0.0190976
0.0190926
0.0190295
0.0189401
0.0188468
0.018761
0.0186865
0.0186295
0.0185914
0.018572
0.018785
0.0191174
0.0190925
0.0190182
0.0189095
0.0187934
0.0186831
0.0185861
0.0185057
0.0184453
0.0184054
0.0183854
0.0186442
0.019114
0.0191113
0.0190296
0.0189095
0.0187747
0.0186428
0.0185233
0.0184215
0.0183395
0.0182784
0.0182382
0.0182182
0.0190701
0.0191015
0.0190611
0.0189401
0.0187934
0.0186428
0.0185021
0.0183788
0.0182759
0.0181943
0.0181338
0.0180941
0.0180744
0.0186292
0.0191101
0.0190945
0.0189949
0.0188468
0.0186831
0.0185233
0.0183788
0.0182547
0.0181525
0.018072
0.0180126
0.0179737
0.0179544
0.0188563
0.0190977
0.0190658
0.0189307
0.0187611
0.0185861
0.0184215
0.0182759
0.0181525
0.0180516
0.0179725
0.0179143
0.0178761
0.0178572
0.0191873
0.0190684
0.0190141
0.0188679
0.0186866
0.0185058
0.0183395
0.0181943
0.018072
0.0179725
0.0178947
0.0178376
0.0178001
0.0177816
0.0191869
0.0190699
0.0189783
0.0188182
0.0186295
0.0184453
0.0182785
0.0181338
0.0180127
0.0179143
0.0178376
0.0177813
0.0177443
0.0177261
0.0185121
0.0191345
0.0190687
0.018953
0.0187835
0.0185914
0.0184054
0.0182382
0.0180941
0.0179737
0.0178761
0.0178001
0.0177443
0.0177078
0.0176897
0.0185225
0.0191125
0.0190652
0.0189388
0.0187653
0.0185721
0.0183854
0.0182182
0.0180744
0.0179544
0.0178572
0.0177816
0.0177261
0.0176897
0.0176718
0.0177941
0.0178023
0.017855
0.0180036
0.0182201
0.0182636
0.018254
0.0182525
0.01788
0.0181124
0.0182203
0.0182394
0.0182449
0.0182573
0.0182655
0.0182701
0.0179698
0.0182217
0.018248
0.0182811
0.0182995
0.018299
0.018296
0.01829
0.0182857
0.0182542
0.0182437
0.0182877
0.018301
0.0183012
0.0182936
0.0182783
0.0182623
0.0182486
0.0182407
0.0182546
0.0182385
0.0182945
0.0183099
0.0182975
0.0182723
0.0182409
0.0182081
0.0181803
0.0181603
0.0181498
0.0179699
0.0182439
0.0182945
0.0183126
0.0182945
0.0182555
0.0182077
0.018159
0.0181145
0.0180788
0.0180542
0.0180417
0.0178801
0.0182218
0.0182877
0.01831
0.0182946
0.0182494
0.0181891
0.0181253
0.0180653
0.0180136
0.0179734
0.0179461
0.0179324
0.0181125
0.0182481
0.018301
0.0182975
0.0182555
0.0181891
0.0181135
0.0180391
0.0179723
0.0179165
0.0178738
0.0178451
0.0178306
0.0178551
0.0182204
0.0182812
0.0183013
0.0182724
0.0182078
0.0181253
0.0180392
0.0179582
0.0178874
0.0178293
0.0177853
0.0177558
0.0177411
0.0180037
0.0182395
0.0182996
0.0182937
0.0182409
0.018159
0.0180653
0.0179723
0.0178874
0.0178144
0.0177551
0.0177105
0.0176807
0.0176659
0.0182202
0.018245
0.0182991
0.0182784
0.0182081
0.0181145
0.0180137
0.0179166
0.0178294
0.0177551
0.0176953
0.0176504
0.0176206
0.0176057
0.0182637
0.0182574
0.0182961
0.0182624
0.0181804
0.0180789
0.0179735
0.0178738
0.0177853
0.0177105
0.0176504
0.0176055
0.0175756
0.0175608
0.0177941
0.0182541
0.0182656
0.0182901
0.0182486
0.0181604
0.0180543
0.0179462
0.0178451
0.0177558
0.0176807
0.0176206
0.0175756
0.0175458
0.017531
0.0178024
0.0182526
0.0182702
0.0182858
0.0182407
0.0181499
0.0180417
0.0179324
0.0178307
0.0177411
0.0176659
0.0176057
0.0175608
0.017531
0.0175161
0.0172838
0.0172906
0.017303
0.0173959
0.0175212
0.0175715
0.0175766
0.0175828
0.0173252
0.0174692
0.0175512
0.0175822
0.0176035
0.0176229
0.0176335
0.0176396
0.0173801
0.0175517
0.0175932
0.0176372
0.0176712
0.0176918
0.0177057
0.0177114
0.0177133
0.0175522
0.017579
0.0176372
0.0176757
0.0177049
0.0177246
0.0177348
0.0177392
0.0177395
0.0177388
0.0175524
0.0175832
0.0176539
0.0176999
0.0177254
0.0177382
0.0177406
0.0177359
0.0177292
0.0177229
0.0177193
0.0173802
0.0175791
0.0176538
0.0177083
0.017736
0.0177432
0.0177374
0.0177237
0.0177068
0.0176911
0.0176794
0.0176731
0.0173253
0.0175517
0.0176373
0.0176999
0.017736
0.0177447
0.0177339
0.017712
0.0176855
0.0176594
0.0176374
0.0176217
0.0176136
0.0174693
0.0175932
0.0176758
0.0177254
0.0177433
0.017734
0.0177075
0.0176731
0.0176372
0.0176046
0.0175782
0.0175599
0.0175505
0.0173031
0.0175513
0.0176373
0.0177049
0.0177383
0.0177375
0.0177121
0.0176731
0.0176293
0.017587
0.0175499
0.0175206
0.0175005
0.0174904
0.017396
0.0175823
0.0176713
0.0177247
0.0177406
0.0177238
0.0176856
0.0176373
0.017587
0.0175402
0.0175002
0.017469
0.0174478
0.0174371
0.0175213
0.0176037
0.0176919
0.0177349
0.017736
0.0177068
0.0176595
0.0176046
0.01755
0.0175002
0.0174583
0.0174259
0.017404
0.0173929
0.0175716
0.017623
0.0177058
0.0177393
0.0177293
0.0176912
0.0176375
0.0175782
0.0175207
0.017469
0.0174259
0.0173928
0.0173704
0.0173591
0.017284
0.0175768
0.0176336
0.0177115
0.0177395
0.017723
0.0176794
0.0176218
0.0175599
0.0175006
0.0174478
0.017404
0.0173704
0.0173477
0.0173364
0.0172907
0.0175829
0.0176397
0.0177134
0.0177389
0.0177194
0.0176732
0.0176136
0.0175505
0.0174904
0.0174371
0.0173929
0.0173591
0.0173364
0.017325
0.0168504
0.016858
0.0168507
0.0169104
0.0169774
0.0170234
0.0170325
0.0170404
0.0168687
0.0169699
0.0170172
0.0170485
0.0170737
0.0170965
0.0171087
0.0171155
0.016903
0.0170173
0.0170608
0.0171048
0.0171413
0.0171681
0.0171888
0.0172005
0.0172059
0.0170043
0.0170429
0.0171015
0.0171472
0.0171864
0.0172178
0.0172402
0.0172556
0.0172641
0.0172679
0.0170045
0.0170505
0.0171199
0.017175
0.017217
0.0172491
0.0172708
0.0172837
0.017291
0.0172943
0.0172955
0.0169031
0.017043
0.0171198
0.017185
0.0172333
0.0172663
0.0172865
0.0172963
0.0172992
0.0172985
0.0172967
0.0172954
0.0168688
0.0170174
0.0171015
0.017175
0.0172333
0.017272
0.0172929
0.0173003
0.0172989
0.0172927
0.0172855
0.0172794
0.0172761
0.0169699
0.0170609
0.0171472
0.017217
0.0172663
0.0172929
0.0173011
0.0172969
0.017286
0.0172726
0.0172602
0.017251
0.0172461
0.0168508
0.0170173
0.0171049
0.0171865
0.0172491
0.0172865
0.0173004
0.0172969
0.0172832
0.0172648
0.017246
0.0172299
0.0172183
0.0172123
0.0169105
0.0170486
0.0171414
0.0172179
0.0172708
0.0172964
0.0172989
0.017286
0.0172648
0.0172409
0.0172182
0.0171995
0.0171862
0.0171794
0.0169776
0.0170738
0.0171682
0.0172403
0.0172838
0.0172993
0.0172928
0.0172727
0.017246
0.0172182
0.0171929
0.0171722
0.0171578
0.0171505
0.0170235
0.0170967
0.0171889
0.0172557
0.0172911
0.0172986
0.0172855
0.0172603
0.0172299
0.0171995
0.0171722
0.0171504
0.0171352
0.0171275
0.0168505
0.0170327
0.0171088
0.0172007
0.0172642
0.0172944
0.0172968
0.0172795
0.017251
0.0172183
0.0171862
0.0171578
0.0171352
0.0171196
0.0171117
0.0168581
0.0170405
0.0171156
0.017206
0.017268
0.0172956
0.0172955
0.0172761
0.0172461
0.0172123
0.0171794
0.0171505
0.0171275
0.0171117
0.0171037
0.0164602
0.0164683
0.0164573
0.0164964
0.0165285
0.0165668
0.0165766
0.0165843
0.0164706
0.0165479
0.0165693
0.0165968
0.0166204
0.016643
0.0166555
0.0166626
0.0164936
0.0165693
0.0166094
0.0166495
0.0166837
0.0167104
0.0167325
0.0167463
0.0167532
0.0165511
0.0165909
0.0166447
0.01669
0.0167306
0.0167654
0.0167926
0.0168129
0.0168256
0.0168318
0.0165513
0.0165986
0.0166618
0.0167168
0.016764
0.0168042
0.0168356
0.0168583
0.016874
0.0168833
0.0168877
0.0164937
0.0165909
0.0166617
0.0167266
0.016782
0.0168272
0.0168619
0.0168862
0.016902
0.0169117
0.016917
0.0169193
0.0164707
0.0165694
0.0166448
0.0167169
0.016782
0.016835
0.0168742
0.0169005
0.0169163
0.0169246
0.0169285
0.0169299
0.0169303
0.016548
0.0166095
0.0166901
0.0167641
0.0168272
0.0168742
0.0169048
0.0169219
0.0169295
0.0169312
0.01693
0.0169282
0.016927
0.0164575
0.0165694
0.0166496
0.0167307
0.0168043
0.0168619
0.0169005
0.0169219
0.0169306
0.0169311
0.0169273
0.0169223
0.0169179
0.0169155
0.0164965
0.016597
0.0166838
0.0167655
0.0168357
0.0168863
0.0169163
0.0169295
0.0169311
0.016926
0.016918
0.01691
0.0169037
0.0169004
0.0165287
0.0166205
0.0167106
0.0167927
0.0168585
0.0169021
0.0169247
0.0169312
0.0169274
0.0169181
0.016907
0.0168968
0.0168892
0.0168852
0.016567
0.0166432
0.0167327
0.0168131
0.0168741
0.0169118
0.0169286
0.0169301
0.0169223
0.01691
0.0168968
0.0168851
0.0168765
0.0168721
0.0164604
0.0165768
0.0166557
0.0167465
0.0168258
0.0168834
0.0169171
0.01693
0.0169283
0.0169179
0.0169038
0.0168892
0.0168765
0.0168674
0.0168627
0.0164684
0.0165845
0.0166628
0.0167533
0.0168319
0.0168878
0.0169194
0.0169304
0.0169271
0.0169155
0.0169004
0.0168852
0.0168721
0.0168627
0.0168578
0.0161048
0.0161123
0.0161039
0.0161299
0.0161416
0.0161722
0.0161813
0.016188
0.0161137
0.0161753
0.0161796
0.0162027
0.0162231
0.0162435
0.0162552
0.0162619
0.0161304
0.0161798
0.0162149
0.01625
0.0162804
0.0163047
0.0163255
0.0163392
0.0163463
0.0161609
0.0161976
0.0162451
0.0162866
0.0163249
0.0163587
0.0163864
0.0164081
0.0164223
0.0164294
0.016161
0.0162046
0.01626
0.0163109
0.0163574
0.0163991
0.016434
0.0164612
0.0164811
0.0164937
0.0164999
0.0161304
0.0161977
0.01626
0.0163197
0.0163749
0.0164241
0.0164653
0.0164974
0.0165208
0.0165369
0.0165467
0.0165514
0.0161138
0.0161799
0.0162451
0.016311
0.016375
0.0164326
0.0164806
0.0165176
0.0165443
0.0165624
0.0165739
0.0165807
0.0165838
0.0161754
0.016215
0.0162867
0.0163575
0.0164241
0.0164806
0.0165241
0.0165549
0.0165753
0.0165879
0.0165952
0.0165991
0.0166008
0.0161041
0.0161798
0.0162502
0.016325
0.0163992
0.0164653
0.0165177
0.0165549
0.0165792
0.0165937
0.0166014
0.0166051
0.0166066
0.0166071
0.0161301
0.0162029
0.0162805
0.0163589
0.0164342
0.0164975
0.0165443
0.0165754
0.0165937
0.0166031
0.0166069
0.0166076
0.0166072
0.0166067
0.0161419
0.0162233
0.0163049
0.0163866
0.0164614
0.0165209
0.0165624
0.016588
0.0166015
0.0166069
0.0166076
0.0166061
0.0166042
0.0166031
0.0161725
0.0162437
0.0163257
0.0164083
0.0164812
0.016537
0.016574
0.0165953
0.0166051
0.0166076
0.0166061
0.0166031
0.0166002
0.0165986
0.0161049
0.0161815
0.0162554
0.0163394
0.0164225
0.0164939
0.0165469
0.0165808
0.0165992
0.0166066
0.0166072
0.0166043
0.0166002
0.0165967
0.0165948
0.0161125
0.0161883
0.0162621
0.0163465
0.0164296
0.0165001
0.0165516
0.0165839
0.0166009
0.0166071
0.0166068
0.0166031
0.0165986
0.0165948
0.0165927
0.0157785
0.015785
0.0157802
0.015798
0.015797
0.0158213
0.015829
0.0158346
0.0157878
0.0158381
0.015831
0.0158501
0.0158673
0.0158848
0.0158949
0.0159009
0.0158007
0.0158316
0.0158616
0.0158917
0.0159179
0.0159392
0.0159576
0.0159701
0.0159767
0.015814
0.0158464
0.0158873
0.015924
0.0159583
0.0159892
0.0160152
0.0160361
0.0160501
0.0160573
0.0158141
0.0158525
0.0159002
0.0159454
0.0159882
0.016028
0.0160626
0.0160907
0.016112
0.016126
0.016133
0.0158008
0.0158464
0.0159002
0.0159532
0.0160044
0.0160525
0.0160951
0.0161302
0.0161573
0.0161768
0.0161893
0.0161954
0.0157879
0.0158317
0.0158874
0.0159455
0.0160045
0.0160611
0.0161115
0.0161534
0.016186
0.0162099
0.0162264
0.0162367
0.0162416
0.0158383
0.0158617
0.0159241
0.0159883
0.0160526
0.0161116
0.016161
0.0161996
0.0162281
0.016248
0.0162612
0.0162692
0.0162729
0.0157804
0.0158312
0.0158919
0.0159584
0.0160281
0.0160952
0.0161535
0.0161997
0.0162339
0.0162578
0.0162738
0.016284
0.0162898
0.0162926
0.0157982
0.0158504
0.0159181
0.0159894
0.0160628
0.0161304
0.0161861
0.0162282
0.0162579
0.0162777
0.0162903
0.0162978
0.0163019
0.0163038
0.0157973
0.0158676
0.0159394
0.0160154
0.0160909
0.0161575
0.01621
0.0162481
0.0162739
0.0162903
0.0163001
0.0163056
0.0163084
0.0163096
0.0158217
0.0158851
0.0159579
0.0160363
0.0161122
0.016177
0.0162265
0.0162613
0.016284
0.0162978
0.0163056
0.0163096
0.0163114
0.0163121
0.0157787
0.0158293
0.0158952
0.0159704
0.0160504
0.0161262
0.0161895
0.0162368
0.0162693
0.0162899
0.016302
0.0163084
0.0163114
0.0163126
0.016313
0.0157852
0.0158349
0.0159012
0.015977
0.0160575
0.0161332
0.0161956
0.0162418
0.0162731
0.0162926
0.0163039
0.0163096
0.0163121
0.016313
0.0163133
0.0154758
0.0154812
0.0154795
0.0154924
0.0154825
0.0155019
0.015508
0.0155126
0.0154856
0.0155275
0.0155125
0.0155282
0.0155425
0.015557
0.0155654
0.0155705
0.0154962
0.0155136
0.015539
0.0155645
0.0155866
0.0156047
0.0156204
0.0156312
0.015637
0.015498
0.0155261
0.0155611
0.0155927
0.0156224
0.0156495
0.0156727
0.0156915
0.0157045
0.0157112
0.015498
0.0155315
0.0155722
0.0156113
0.0156491
0.015685
0.0157172
0.0157441
0.0157649
0.0157788
0.0157859
0.0154963
0.0155262
0.0155721
0.015618
0.0156636
0.015708
0.0157487
0.0157837
0.0158116
0.0158323
0.0158459
0.0158526
0.0154857
0.0155137
0.0155612
0.0156114
0.0156637
0.015716
0.0157649
0.0158076
0.0158424
0.0158691
0.0158883
0.0159006
0.0159066
0.0155277
0.0155391
0.0155928
0.0156492
0.0157081
0.015765
0.0158156
0.0158575
0.0158902
0.0159145
0.0159314
0.015942
0.0159472
0.0154797
0.0155127
0.0155647
0.0156226
0.0156852
0.0157489
0.0158077
0.0158575
0.0158971
0.0159269
0.0159483
0.0159629
0.0159719
0.0159762
0.0154926
0.0155285
0.0155869
0.0156498
0.0157174
0.0157838
0.0158425
0.0158903
0.0159269
0.0159537
0.0159724
0.0159848
0.0159924
0.015996
0.0154828
0.0155428
0.015605
0.0156729
0.0157443
0.0158118
0.0158693
0.0159146
0.0159484
0.0159724
0.0159889
0.0159996
0.016006
0.016009
0.0155022
0.0155574
0.0156207
0.0156918
0.0157651
0.0158325
0.0158884
0.0159315
0.015963
0.0159849
0.0159996
0.016009
0.0160145
0.0160171
0.015476
0.0155084
0.0155658
0.0156315
0.0157048
0.0157791
0.0158461
0.0159008
0.0159422
0.015972
0.0159925
0.016006
0.0160145
0.0160194
0.0160217
0.0154814
0.015513
0.0155709
0.0156374
0.0157115
0.0157862
0.0158529
0.0159068
0.0159474
0.0159763
0.0159961
0.016009
0.0160171
0.0160217
0.0160239
0.0151914
0.0151958
0.0151966
0.0152072
0.0151902
0.0152057
0.0152104
0.0152141
0.0152018
0.0152375
0.0152167
0.0152297
0.0152413
0.0152531
0.0152597
0.015264
0.015211
0.0152186
0.0152399
0.0152613
0.0152796
0.0152945
0.0153074
0.0153163
0.0153212
0.0152049
0.0152293
0.015259
0.0152857
0.0153108
0.0153338
0.0153535
0.0153698
0.0153811
0.015387
0.0152049
0.0152339
0.0152685
0.0153018
0.0153342
0.0153654
0.0153939
0.0154181
0.0154372
0.0154502
0.0154569
0.0152111
0.0152294
0.0152685
0.0153076
0.0153469
0.015386
0.015423
0.0154556
0.0154824
0.0155027
0.0155163
0.0155231
0.015202
0.0152187
0.0152591
0.0153018
0.0153469
0.0153933
0.0154382
0.0154788
0.0155132
0.0155404
0.0155605
0.0155736
0.0155801
0.0152377
0.0152401
0.0152859
0.0153343
0.0153861
0.0154383
0.0154867
0.0155286
0.0155627
0.0155889
0.0156078
0.0156199
0.0156259
0.0151969
0.015217
0.0152615
0.015311
0.0153656
0.0154231
0.0154789
0.0155287
0.0155701
0.0156027
0.0156272
0.0156445
0.0156555
0.0156609
0.0152075
0.01523
0.01528
0.0153341
0.0153941
0.0154558
0.0155133
0.0155628
0.0156028
0.0156336
0.0156562
0.0156719
0.0156817
0.0156866
0.0151906
0.0152417
0.0152948
0.0153539
0.0154184
0.0154826
0.0155406
0.0155891
0.0156273
0.0156562
0.0156771
0.0156914
0.0157004
0.0157047
0.0152061
0.0152536
0.0153078
0.0153702
0.0154375
0.015503
0.0155607
0.015608
0.0156446
0.0156719
0.0156915
0.0157048
0.015713
0.015717
0.0151918
0.0152109
0.0152602
0.0153167
0.0153815
0.0154506
0.0155166
0.0155738
0.0156201
0.0156556
0.0156818
0.0157004
0.015713
0.0157208
0.0157245
0.0151962
0.0152147
0.0152645
0.0153217
0.0153875
0.0154573
0.0155234
0.0155804
0.0156261
0.015661
0.0156866
0.0157048
0.015717
0.0157245
0.0157281
0.0149211
0.0149248
0.0149277
0.0149367
0.0149149
0.0149273
0.0149305
0.0149336
0.0149326
0.0149636
0.0149389
0.0149494
0.0149586
0.0149678
0.0149727
0.0149762
0.014941
0.0149416
0.0149594
0.014977
0.0149918
0.0150035
0.0150136
0.0150204
0.0150244
0.0149296
0.0149509
0.014976
0.0149981
0.0150186
0.0150373
0.0150534
0.0150667
0.015076
0.015081
0.0149296
0.0149548
0.0149842
0.0150118
0.0150386
0.0150647
0.0150887
0.0151095
0.0151261
0.0151376
0.0151436
0.0149411
0.014951
0.0149842
0.0150168
0.0150495
0.0150827
0.0151147
0.0151436
0.0151679
0.0151867
0.0151995
0.015206
0.0149328
0.0149418
0.0149761
0.0150119
0.0150496
0.0150891
0.0151285
0.0151652
0.0151972
0.0152233
0.0152429
0.015256
0.0152626
0.0149638
0.0149596
0.0149983
0.0150388
0.0150828
0.0151285
0.0151726
0.0152121
0.0152454
0.0152718
0.0152912
0.015304
0.0153103
0.014928
0.0149392
0.0149773
0.0150189
0.0150649
0.0151149
0.0151653
0.0152122
0.0152529
0.0152861
0.0153118
0.0153305
0.0153425
0.0153485
0.0149371
0.0149497
0.0149922
0.0150377
0.0150891
0.0151439
0.0151974
0.0152456
0.0152862
0.0153186
0.0153433
0.0153609
0.0153723
0.0153779
0.0149154
0.0149591
0.0150039
0.0150538
0.0151099
0.0151683
0.0152236
0.015272
0.015312
0.0153434
0.0153669
0.0153836
0.0153942
0.0153995
0.0149279
0.0149684
0.0150141
0.0150672
0.0151266
0.0151871
0.0152432
0.0152915
0.0153306
0.015361
0.0153836
0.0153995
0.0154096
0.0154146
0.0149217
0.0149311
0.0149733
0.015021
0.0150765
0.0151381
0.0151999
0.0152563
0.0153042
0.0153427
0.0153724
0.0153943
0.0154097
0.0154194
0.0154242
0.0149254
0.0149343
0.0149769
0.015025
0.0150816
0.0151441
0.0152064
0.0152629
0.0153106
0.0153487
0.015378
0.0153995
0.0154146
0.0154242
0.0154289
0.0146616
0.0146648
0.0146699
0.0146777
0.0146532
0.0146631
0.0146645
0.0146671
0.0146749
0.0147026
0.0146755
0.0146837
0.0146905
0.0146973
0.0147003
0.0147031
0.014683
0.0146794
0.0146939
0.0147079
0.0147192
0.0147277
0.0147348
0.0147396
0.0147426
0.0146688
0.0146875
0.0147084
0.014726
0.0147419
0.0147562
0.0147684
0.0147784
0.0147855
0.0147895
0.0146688
0.0146905
0.0147153
0.0147375
0.0147587
0.0147792
0.0147984
0.0148152
0.0148288
0.0148383
0.0148434
0.0146831
0.0146876
0.0147153
0.0147417
0.0147677
0.0147944
0.0148207
0.0148451
0.014866
0.0148825
0.0148939
0.0148998
0.0146751
0.0146796
0.0147085
0.0147376
0.0147678
0.0147998
0.0148327
0.0148643
0.0148928
0.0149165
0.0149348
0.0149472
0.0149535
0.0147028
0.0146941
0.0147262
0.0147589
0.0147946
0.0148328
0.014871
0.0149066
0.0149376
0.0149628
0.0149818
0.0149944
0.0150008
0.0146701
0.0146758
0.0147082
0.0147422
0.0147795
0.014821
0.0148645
0.0149067
0.0149448
0.0149769
0.0150025
0.0150214
0.0150339
0.0150401
0.0146781
0.0146841
0.0147197
0.0147566
0.0147988
0.0148454
0.014893
0.0149378
0.014977
0.0150094
0.0150348
0.0150533
0.0150654
0.0150714
0.0146538
0.0146911
0.0147282
0.0147689
0.0148156
0.0148664
0.0149169
0.0149631
0.0150027
0.0150348
0.0150597
0.0150776
0.0150893
0.0150951
0.0146639
0.014698
0.0147355
0.0147791
0.0148293
0.014883
0.0149352
0.0149821
0.0150216
0.0150534
0.0150777
0.0150952
0.0151065
0.0151121
0.0146623
0.0146653
0.0147012
0.0147404
0.0147863
0.014839
0.0148945
0.0149476
0.0149947
0.0150341
0.0150655
0.0150894
0.0151065
0.0151175
0.015123
0.0146657
0.0146681
0.014704
0.0147434
0.0147902
0.014844
0.0149004
0.0149539
0.0150011
0.0150404
0.0150715
0.0150952
0.0151121
0.015123
0.0151284
0.0144104
0.0144133
0.014421
0.0144281
0.0144033
0.0144106
0.0144097
0.014412
0.0144266
0.0144524
0.0144241
0.0144301
0.0144344
0.0144384
0.0144394
0.0144415
0.014435
0.0144297
0.014441
0.0144513
0.0144589
0.0144639
0.0144678
0.0144702
0.0144722
0.0144207
0.0144366
0.0144534
0.0144664
0.0144774
0.014487
0.0144949
0.0145015
0.0145062
0.0145089
0.0144207
0.0144385
0.0144589
0.0144756
0.0144907
0.0145053
0.0145193
0.0145317
0.014542
0.0145493
0.0145534
0.014435
0.0144367
0.0144589
0.0144789
0.0144979
0.0145176
0.0145377
0.0145569
0.014574
0.0145878
0.0145974
0.0146025
0.0144267
0.0144298
0.0144535
0.0144757
0.014498
0.014522
0.0145477
0.0145735
0.0145976
0.0146184
0.0146347
0.014646
0.0146518
0.0144525
0.0144413
0.0144667
0.014491
0.0145178
0.0145478
0.0145794
0.0146101
0.0146378
0.014661
0.0146788
0.0146909
0.014697
0.0144213
0.0144244
0.0144516
0.0144778
0.0145057
0.014538
0.0145738
0.0146102
0.0146445
0.0146745
0.014699
0.0147175
0.0147298
0.0147361
0.0144285
0.0144305
0.0144594
0.0144875
0.0145197
0.0145574
0.014598
0.014638
0.0146746
0.0147058
0.0147308
0.0147495
0.0147618
0.014768
0.0144039
0.014435
0.0144645
0.0144956
0.0145323
0.0145745
0.0146188
0.0146613
0.0146992
0.0147309
0.014756
0.0147745
0.0147867
0.0147928
0.0144114
0.0144393
0.0144686
0.0145023
0.0145427
0.0145884
0.0146352
0.0146792
0.0147177
0.0147496
0.0147746
0.0147929
0.0148049
0.0148109
0.0144113
0.0144107
0.0144405
0.0144712
0.0145071
0.0145502
0.0145981
0.0146465
0.0146913
0.0147301
0.014762
0.0147868
0.0148049
0.0148168
0.0148227
0.0144144
0.0144132
0.0144426
0.0144733
0.01451
0.0145542
0.0146033
0.0146523
0.0146975
0.0147364
0.0147682
0.0147929
0.0148109
0.0148227
0.0148286
0.0141649
0.0141676
0.014179
0.014186
0.0141646
0.0141681
0.014164
0.0141663
0.0141855
0.0142112
0.0141835
0.0141868
0.0141881
0.0141885
0.0141871
0.0141885
0.0141952
0.0141917
0.0141992
0.0142047
0.0142079
0.0142088
0.0142089
0.0142087
0.0142096
0.0141852
0.0141967
0.0142088
0.0142164
0.0142217
0.0142259
0.0142292
0.014232
0.0142341
0.0142357
0.0141851
0.0141963
0.0142123
0.0142227
0.0142312
0.0142393
0.0142476
0.0142554
0.0142622
0.0142673
0.0142703
0.0141952
0.0141967
0.0142123
0.0142251
0.0142362
0.0142484
0.0142619
0.0142758
0.0142887
0.0142996
0.0143075
0.0143118
0.0141855
0.0141918
0.0142089
0.0142229
0.0142364
0.0142518
0.0142699
0.0142896
0.0143091
0.0143265
0.0143407
0.0143507
0.014356
0.0142112
0.0141994
0.0142167
0.0142315
0.0142487
0.01427
0.0142945
0.01432
0.0143441
0.0143649
0.0143813
0.0143926
0.0143984
0.014179
0.0141837
0.014205
0.0142221
0.0142398
0.0142623
0.0142899
0.0143202
0.0143502
0.0143775
0.0144005
0.0144182
0.0144302
0.0144363
0.0141861
0.0141871
0.0142084
0.0142265
0.0142482
0.0142764
0.0143095
0.0143444
0.0143777
0.0144071
0.0144313
0.0144496
0.0144619
0.0144682
0.0141651
0.0141887
0.0142096
0.0142301
0.0142562
0.0142895
0.0143271
0.0143653
0.0144008
0.0144314
0.0144562
0.0144748
0.0144872
0.0144934
0.0141692
0.0141896
0.01421
0.014233
0.0142632
0.0143005
0.0143414
0.0143818
0.0144185
0.0144498
0.0144749
0.0144935
0.0145059
0.0145121
0.0141661
0.0141654
0.0141884
0.01421
0.0142353
0.0142684
0.0143085
0.0143515
0.0143932
0.0144306
0.0144622
0.0144873
0.0145059
0.0145182
0.0145244
0.0141691
0.0141679
0.0141901
0.0142111
0.0142371
0.0142715
0.0143128
0.0143567
0.014399
0.0144367
0.0144684
0.0144936
0.0145122
0.0145244
0.0145306
0.0139212
0.0139239
0.0139404
0.0139492
0.013939
0.0139351
0.0139257
0.0139287
0.0139479
0.0139777
0.0139535
0.0139524
0.0139497
0.0139448
0.01394
0.0139409
0.0139621
0.013966
0.0139673
0.0139653
0.0139626
0.0139586
0.0139539
0.0139506
0.0139505
0.0139718
0.0139663
0.0139711
0.0139719
0.0139701
0.0139682
0.0139665
0.0139653
0.0139648
0.0139654
0.0139711
0.0139607
0.0139713
0.0139742
0.013975
0.0139762
0.0139786
0.0139819
0.0139854
0.0139885
0.0139905
0.0139619
0.0139661
0.0139712
0.0139755
0.0139777
0.0139819
0.0139888
0.0139976
0.0140067
0.014015
0.0140214
0.0140249
0.0139479
0.0139661
0.0139713
0.0139744
0.0139778
0.0139841
0.0139948
0.0140087
0.0140239
0.0140385
0.0140507
0.0140595
0.0140643
0.0139775
0.0139675
0.0139723
0.0139754
0.0139823
0.013995
0.0140129
0.0140335
0.0140542
0.0140728
0.0140879
0.0140985
0.014104
0.0139399
0.0139534
0.0139656
0.0139707
0.0139768
0.0139894
0.0140091
0.0140337
0.0140598
0.0140846
0.0141061
0.014123
0.0141346
0.0141406
0.0139484
0.0139524
0.0139632
0.013969
0.0139795
0.0139983
0.0140245
0.0140546
0.0140848
0.0141124
0.0141357
0.0141536
0.0141658
0.014172
0.0139389
0.0139502
0.0139595
0.0139677
0.013983
0.0140077
0.0140392
0.0140734
0.0141064
0.0141358
0.0141601
0.0141787
0.0141911
0.0141974
0.0139364
0.0139461
0.0139553
0.0139667
0.0139867
0.0140162
0.0140516
0.0140886
0.0141234
0.0141539
0.0141788
0.0141975
0.0142101
0.0142164
0.0139227
0.0139276
0.0139418
0.0139524
0.0139665
0.0139899
0.0140226
0.0140605
0.0140992
0.0141351
0.0141661
0.0141913
0.0142101
0.0142227
0.0142291
0.0139259
0.0139309
0.0139431
0.0139525
0.0139672
0.0139921
0.0140262
0.0140653
0.0141047
0.0141411
0.0141724
0.0141976
0.0142165
0.0142291
0.0142354
0.0136706
0.0136741
0.0136966
0.0137137
0.0137339
0.0137095
0.0136915
0.0136971
0.0137059
0.013753
0.0137338
0.013725
0.0137172
0.0137028
0.0136929
0.0136938
0.013735
0.013753
0.0137431
0.0137277
0.0137163
0.0137061
0.0136959
0.0136895
0.0136887
0.0138062
0.0137489
0.0137335
0.0137258
0.0137155
0.0137066
0.0136999
0.0136951
0.0136926
0.0136926
0.0138028
0.0137362
0.0137311
0.0137223
0.0137148
0.013709
0.0137061
0.0137057
0.0137067
0.0137084
0.0137099
0.0137346
0.0137484
0.0137311
0.0137231
0.013715
0.0137117
0.0137129
0.0137176
0.0137241
0.0137306