/*--------------------------------*- C++ -*----------------------------------*\
| =========                 |                                                 |
| \\      /  F ield         | OpenFOAM: The Open Source CFD Toolbox           |
|  \\    /   O peration     | Version:  2.1.1                                 |
|   \\  /    A nd           | Web:      www.OpenFOAM.org                      |
|    \\/     M anipulation  |                                                 |
\*---------------------------------------------------------------------------*/
FoamFile
{
    version     2.0;
    format      ascii;
    class       volScalarField;
    location    "0.0045";
    object      p;
}
// * * * * * * * * * * * * * * * * * * * * * * * * * * * * * * * * * * * * * //

dimensions      [0 2 -2 0 0 0 0];

internalField   nonuniform List<scalar> 
10314
(
0.0824922
0.0824876
0.0824836
0.082478
0.0824709
0.0824649
0.0824569
0.082454
0.0824491
0.0824614
0.0824512
0.0825006
0.0824396
0.0826624
0.0982661
0.0824874
0.0824845
0.0824808
0.0824763
0.0824692
0.0824644
0.0824544
0.082453
0.0824406
0.0824599
0.0824357
0.0825045
0.082387
0.0828202
0.0963269
0.0824833
0.0824807
0.0824791
0.0824743
0.0824718
0.0824649
0.0824675
0.0824584
0.0824703
0.0824595
0.0825478
0.0824567
0.0827548
0.102353
0.088556
0.0824776
0.0824762
0.0824742
0.082472
0.0824682
0.0824668
0.082464
0.0824654
0.0824687
0.0824642
0.0825036
0.0824382
0.0826794
0.0950276
0.0960839
0.0824704
0.082469
0.0824719
0.0824684
0.0824734
0.0824676
0.0824814
0.0824716
0.082513
0.0824779
0.0825581
0.0825091
0.082719
0.0948549
0.0937986
0.0824644
0.0824645
0.0824653
0.0824675
0.082468
0.0824772
0.0824769
0.0824979
0.0825034
0.0825274
0.0825716
0.0825203
0.0828808
0.0961959
0.0824562
0.0824542
0.0824685
0.0824656
0.0824828
0.0824778
0.0825085
0.0824917
0.0825523
0.0825231
0.082568
0.0827578
0.102574
0.107355
0.082453
0.0824515
0.0824601
0.0824692
0.082474
0.0824997
0.0824933
0.0825584
0.0825014
0.0826494
0.082526
0.0828875
0.0965827
0.0897327
0.0824487
0.0824412
0.0824733
0.082472
0.0825158
0.0825062
0.0825577
0.0825068
0.0826934
0.0824189
0.0829911
0.101658
0.108999
0.0824606
0.0824616
0.0824616
0.0824668
0.082482
0.0825315
0.0825316
0.0826612
0.0824235
0.0829736
0.10014
0.0884592
0.0824509
0.0824366
0.0825496
0.0825048
0.0825611
0.0825774
0.0825773
0.0825371
0.0829992
0.100139
0.088581
0.0824989
0.0825062
0.0824577
0.0824394
0.0825119
0.0825252
0.0827653
0.0828965
0.101659
0.0884545
0.0824384
0.082387
0.0827557
0.0826802
0.0827213
0.082885
0.102578
0.0965871
0.109007
0.0826594
0.0828224
0.102355
0.0950282
0.0948564
0.0961986
0.107358
0.0897379
0.0982671
0.0963304
0.0885577
0.0960849
0.0937999
0.0812651
0.0812598
0.081252
0.0812409
0.0812253
0.0812073
0.0811841
0.0811589
0.0811285
0.0810972
0.0810589
0.0810334
0.0809739
0.0810103
0.0956849
0.0812596
0.0812555
0.0812478
0.0812377
0.0812217
0.0812052
0.0811805
0.081158
0.0811234
0.0810983
0.0810479
0.0810503
0.0809152
0.0811775
0.0938163
0.0812517
0.0812477
0.0812411
0.0812304
0.0812172
0.0811986
0.0811806
0.0811508
0.0811332
0.0810839
0.0810958
0.0809724
0.0811431
0.0997184
0.0864146
0.0812405
0.0812375
0.0812304
0.0812223
0.0812075
0.0811944
0.0811719
0.0811522
0.0811245
0.0810935
0.0810918
0.0809896
0.0811457
0.0928094
0.0947356
0.0812248
0.0812216
0.0812173
0.0812077
0.0811986
0.0811807
0.08117
0.0811404
0.081135
0.0810893
0.0810981
0.0810347
0.0811088
0.0925373
0.0923892
0.0812069
0.0812054
0.081199
0.0811951
0.0811811
0.0811768
0.0811529
0.0811526
0.0811211
0.081114
0.0811081
0.0810242
0.0812684
0.0936888
0.0811839
0.081181
0.0811822
0.0811735
0.0811712
0.0811535
0.0811556
0.0811189
0.0811368
0.0810779
0.0810806
0.0811809
0.10004
0.106173
0.0811588
0.0811593
0.0811547
0.0811556
0.0811424
0.0811526
0.0811205
0.08116
0.0810626
0.0811805
0.0809898
0.0812849
0.0941932
0.0885654
0.081129
0.0811252
0.0811388
0.0811316
0.0811387
0.0811173
0.0811454
0.0810716
0.0812248
0.0808843
0.0814324
0.0990179
0.107653
0.0810973
0.0811008
0.0810882
0.0810964
0.081092
0.0811188
0.0810938
0.0812159
0.0808885
0.0814586
0.0976993
0.0864904
0.0810591
0.0810501
0.0811032
0.08109
0.0811004
0.0811137
0.0810912
0.0810053
0.0814391
0.0976965
0.0866151
0.0810322
0.0810525
0.0809754
0.0809908
0.0810371
0.0810288
0.0811875
0.0812928
0.0990186
0.0864854
0.0809732
0.0809158
0.0811447
0.0811471
0.0811112
0.081272
0.100043
0.0941959
0.107656
0.0810088
0.0811802
0.0997216
0.0928105
0.0925391
0.0936908
0.106176
0.08857
0.0956885
0.0938208
0.0864171
0.094737
0.0923906
0.0800463
0.0800399
0.0800283
0.0800118
0.0799877
0.0799583
0.07992
0.0798729
0.0798171
0.0797433
0.0796764
0.0795699
0.0795158
0.0793887
0.0940479
0.0800398
0.0800343
0.0800225
0.0800069
0.0799823
0.0799546
0.0799152
0.0798715
0.0798141
0.0797492
0.0796681
0.0795937
0.0794503
0.0795232
0.092209
0.0800279
0.0800224
0.0800108
0.0799944
0.0799704
0.0799407
0.0799025
0.0798548
0.0797989
0.0797257
0.0796583
0.0795245
0.0795242
0.0980874
0.0848243
0.0800113
0.0800067
0.0799943
0.0799805
0.0799546
0.0799302
0.0798886
0.0798511
0.0797933
0.0797336
0.0796711
0.0795599
0.0795934
0.0912065
0.0932861
0.0799872
0.0799821
0.0799704
0.0799548
0.0799311
0.0799016
0.0798658
0.0798186
0.0797692
0.0797037
0.0796339
0.0795761
0.079496
0.0909132
0.0909376
0.0799579
0.0799547
0.079941
0.0799307
0.0799019
0.0798839
0.0798352
0.0798126
0.0797398
0.0797121
0.0796441
0.0795474
0.0796699
0.0920411
0.0799198
0.0799156
0.0799034
0.0798897
0.0798667
0.0798358
0.079808
0.07975
0.0797284
0.0796423
0.0796109
0.0796277
0.0984668
0.104761
0.0798732
0.0798725
0.079856
0.0798528
0.0798201
0.079814
0.0797514
0.0797637
0.0796301
0.0797285
0.0795054
0.0797098
0.0926366
0.0871592
0.0798189
0.0798151
0.0797994
0.0797954
0.0797715
0.0797421
0.0797324
0.0796344
0.0797413
0.0794105
0.0798616
0.097452
0.106241
0.0797454
0.0797502
0.0797256
0.0797354
0.0797062
0.079716
0.0796488
0.0797368
0.0794135
0.0799139
0.0961446
0.0849676
0.0796767
0.0796693
0.0796602
0.0796725
0.0796364
0.0796481
0.079617
0.0795121
0.0798655
0.0961407
0.0850974
0.0795694
0.079595
0.0795267
0.0795618
0.0795785
0.0795511
0.079632
0.0797145
0.0974507
0.0849611
0.0795153
0.0794513
0.0795261
0.079595
0.0794983
0.0796726
0.0984689
0.0926379
0.106242
0.0793885
0.0795269
0.098091
0.0912077
0.0909149
0.0920427
0.104763
0.0871623
0.0940558
0.0922159
0.0848281
0.0932878
0.090939
0.0788351
0.0788275
0.0788122
0.0787905
0.0787582
0.0787181
0.0786652
0.0785964
0.0785177
0.0784035
0.0783027
0.0781071
0.0780481
0.0777434
0.0925907
0.0788274
0.0788205
0.0788048
0.0787839
0.0787511
0.0787129
0.0786595
0.0785955
0.0785138
0.0784081
0.0782975
0.078127
0.0779837
0.0778286
0.0907357
0.0788118
0.0788046
0.0787882
0.0787664
0.0787319
0.0786919
0.0786339
0.0785695
0.0784674
0.0783754
0.0782157
0.0780786
0.0778708
0.0965868
0.083249
0.07879
0.0787837
0.0787663
0.0787469
0.0787104
0.0786752
0.078615
0.0785605
0.0784733
0.0783844
0.0782553
0.0781205
0.0780291
0.0897137
0.0917701
0.0787576
0.0787508
0.0787319
0.0787105
0.0786726
0.078632
0.0785713
0.0785083
0.0784141
0.0783294
0.0781661
0.0781115
0.0778547
0.0893935
0.089434
0.0787175
0.0787128
0.0786921
0.0786756
0.0786322
0.0786005
0.0785275
0.0784836
0.0783701
0.0783181
0.0781727
0.0780701
0.0780765
0.0905049
0.0786648
0.0786596
0.0786344
0.0786157
0.078572
0.078528
0.0784696
0.0783902
0.078323
0.0782086
0.0781298
0.0780906
0.0969751
0.103244
0.0785962
0.0785959
0.0785701
0.0785617
0.0785095
0.0784848
0.078391
0.0783705
0.0782035
0.0782551
0.0780021
0.0781476
0.0911324
0.0856191
0.0785176
0.0785142
0.0784679
0.0784749
0.0784159
0.078372
0.078325
0.0782049
0.0782504
0.0779297
0.0782966
0.0959479
0.104725
0.0784032
0.078409
0.0783762
0.0783862
0.0783313
0.0783208
0.0782114
0.0782576
0.0779302
0.0783686
0.0946476
0.0834617
0.0783024
0.0782981
0.0782171
0.0782569
0.0781682
0.0781754
0.0781323
0.0780043
0.0782977
0.0946425
0.0835998
0.0781063
0.0781285
0.0780801
0.0781225
0.0781135
0.0780725
0.0780928
0.0781497
0.0959442
0.0834533
0.0780472
0.0779848
0.077873
0.0780305
0.0778567
0.0780783
0.0969758
0.0911323
0.104724
0.0777433
0.0778329
0.0965899
0.0897148
0.089395
0.0905059
0.103245
0.085621
0.0926004
0.090744
0.0832537
0.0917719
0.0894354
0.0776309
0.077622
0.0776032
0.0775766
0.0775369
0.0774873
0.0774228
0.0773375
0.077237
0.0770791
0.0769492
0.076648
0.0765868
0.0760181
0.0912597
0.0776219
0.0776136
0.0775943
0.0775685
0.0775283
0.0774805
0.077415
0.0773332
0.0772383
0.0770858
0.0769535
0.0766594
0.0765412
0.0759632
0.0893632
0.0776028
0.0775941
0.0775733
0.0775464
0.0775024
0.077453
0.0773762
0.0772974
0.077169
0.0770458
0.0767637
0.0766283
0.0760711
0.0950766
0.081591
0.077576
0.0775683
0.0775464
0.0775217
0.0774756
0.0774306
0.0773533
0.0772832
0.0771515
0.0770518
0.0768527
0.0766937
0.0764243
0.0882533
0.0902416
0.0775363
0.0775279
0.0775023
0.0774756
0.0774246
0.077374
0.0772898
0.0772116
0.0770635
0.0769753
0.0766997
0.076651
0.0761311
0.0878997
0.0879114
0.0774865
0.0774803
0.0774531
0.0774308
0.0773743
0.0773294
0.0772335
0.0771681
0.077012
0.0769358
0.0767022
0.0766006
0.0764147
0.0889851
0.0774221
0.0774148
0.0773765
0.0773539
0.0772904
0.0772339
0.0771452
0.0770454
0.0769255
0.0767833
0.0766272
0.076531
0.0955193
0.101724
0.0773369
0.0773335
0.077298
0.0772841
0.0772126
0.0771691
0.077046
0.0769845
0.0767832
0.0767695
0.0764881
0.0765166
0.0896344
0.0839866
0.0772364
0.0772387
0.0771703
0.0771526
0.0770648
0.0770133
0.0769265
0.0767836
0.0767444
0.0764203
0.0766717
0.0944317
0.103166
0.0770782
0.077087
0.0770471
0.0770534
0.0769763
0.0769377
0.0767846
0.0767703
0.0764206
0.0767856
0.093126
0.0819052
0.0769484
0.0769541
0.0767652
0.0768543
0.0767011
0.0767033
0.0766277
0.076488
0.076671
0.0931197
0.0820642
0.0766469
0.0766609
0.0766295
0.0766956
0.0766523
0.0766015
0.0765316
0.0765165
0.0944258
0.0818946
0.076586
0.0765415
0.0760733
0.0764255
0.0761325
0.0764155
0.0955188
0.0896328
0.103163
0.0760168
0.075967
0.0950781
0.0882541
0.0879007
0.0889855
0.101724
0.0839869
0.0912667
0.0893686
0.0815947
0.0902432
0.0879125
0.0764329
0.0764229
0.076401
0.07637
0.0763242
0.0762658
0.07619
0.0760844
0.0759702
0.0757754
0.0756324
0.0752111
0.0751856
0.0742013
0.0902383
0.0764228
0.0764131
0.0763907
0.0763606
0.0763141
0.0762579
0.076182
0.0760822
0.0759646
0.0757818
0.0756529
0.0752175
0.0752211
0.0738503
0.0883396
0.0764005
0.0763905
0.0763658
0.0763346
0.0762825
0.0762249
0.0761326
0.0760381
0.0758377
0.0757274
0.0753158
0.0752044
0.0740408
0.0931598
0.0797743
0.0763694
0.0763603
0.0763345
0.0763053
0.0762509
0.0761972
0.0761053
0.0760237
0.0758841
0.0757528
0.0754757
0.0753175
0.0748009
0.0868685
0.088815
0.0763234
0.0763137
0.0762824
0.076251
0.0761889
0.0761297
0.0760258
0.0759403
0.0757621
0.0756407
0.075248
0.0752185
0.0743058
0.0865114
0.0864507
0.076265
0.0762575
0.0762249
0.0761974
0.0761299
0.0760731
0.0759582
0.0758752
0.075688
0.0756005
0.0752473
0.0751539
0.0746355
0.0875267
0.0761891
0.0761817
0.0761328
0.0761058
0.0760264
0.0759587
0.0758419
0.0757247
0.0755511
0.0753891
0.0751294
0.0749554
0.0941874
0.100299
0.0760836
0.0760823
0.0760387
0.0760248
0.0759413
0.0758762
0.0757253
0.0756141
0.0753814
0.0752693
0.0749647
0.074739
0.0881963
0.0821949
0.0759692
0.0759655
0.075839
0.0758858
0.0757637
0.075689
0.0755515
0.0753815
0.0752119
0.0749018
0.0749073
0.0930191
0.101656
0.0757734
0.0757851
0.0757301
0.0757551
0.0756426
0.0756006
0.075389
0.0752692
0.0749015
0.0751125
0.0915775
0.0802766
0.0756312
0.0756546
0.075318
0.0754776
0.0752492
0.075247
0.0751269
0.0749641
0.074904
0.091569
0.0804954
0.0752097
0.0752187
0.0752056
0.0753194
0.0752194
0.0751538
0.0749543
0.0747371
0.0930105
0.0802619
0.0751845
0.075221
0.0740422
0.0748021
0.0743067
0.0746354
0.0941858
0.0881931
0.101651
0.0741993
0.0738524
0.09316
0.086869
0.0865121
0.0875266
0.100299
0.0821936
0.0902406
0.0883418
0.0797764
0.0888162
0.0864515
0.0752409
0.0752297
0.0752054
0.0751709
0.0751203
0.0750549
0.074972
0.0748537
0.0747311
0.0745054
0.0743564
0.0738036
0.0738563
0.0722553
0.0900643
0.0752296
0.0752189
0.0751941
0.0751603
0.0751089
0.0750456
0.0749626
0.0748514
0.0747308
0.0745043
0.0743909
0.0738303
0.0740155
0.0714704
0.0882202
0.0752049
0.0751938
0.0751662
0.0751312
0.0750729
0.0750082
0.0749043
0.0747991
0.0745983
0.074436
0.0738987
0.0737718
0.0716325
0.0874574
0.0780047
0.0751703
0.07516
0.0751311
0.0750979
0.0750373
0.0749762
0.0748732
0.0747805
0.0746024
0.074487
0.0741227
0.0740325
0.0730973
0.0856807
0.087592
0.0751195
0.0751085
0.0750728
0.0750374
0.0749672
0.0749009
0.0747815
0.0746844
0.0744651
0.0743869
0.0738492
0.0738523
0.0724016
0.0854652
0.0855194
0.075054
0.0750452
0.0750081
0.0749763
0.0749011
0.0748337
0.0747044
0.0746017
0.0743769
0.0742482
0.0738105
0.0737628
0.0727669
0.0865856
0.074971
0.0749622
0.0749045
0.0748736
0.074782
0.0747048
0.0745662
0.0744338
0.0742051
0.0740161
0.0736565
0.0733684
0.0932464
0.0994578
0.0748527
0.0748516
0.0747998
0.0747817
0.0746855
0.0746026
0.0744343
0.0742714
0.0740142
0.0737605
0.0734437
0.0727735
0.0877849
0.0797495
0.0747283
0.0747347
0.0746003
0.074605
0.0744667
0.0743782
0.0742055
0.0740143
0.0736661
0.0733836
0.0728689
0.0922214
0.101262
0.07449
0.0745246
0.0744438
0.0744889
0.0743866
0.0742504
0.0740168
0.0737596
0.0733828
0.0732707
0.0899977
0.0784116
0.0743533
0.0743961
0.0739029
0.0741244
0.0738498
0.0738107
0.073655
0.0734397
0.0728612
0.0899835
0.0789177
0.0738021
0.0738313
0.0737731
0.0740345
0.0738532
0.0737624
0.0733667
0.0727693
0.0922088
0.0783869
0.0738549
0.0740152
0.0716329
0.0730989
0.0724022
0.0727664
0.093244
0.0877806
0.101254
0.0722533
0.0714709
0.0874574
0.085681
0.0854658
0.0865852
0.0994564
0.0797468
0.0900638
0.088221
0.0780055
0.0875925
0.0855201
0.074055
0.074043
0.074017
0.0739798
0.073926
0.0738555
0.0737686
0.0736403
0.0735136
0.0732547
0.0731218
0.0724697
0.0726913
0.0703582
0.0857432
0.0740428
0.0740313
0.0740048
0.0739681
0.0739135
0.0738449
0.0737572
0.0736365
0.0735116
0.0732747
0.0731621
0.0725846
0.0728698
0.0705307
0.0858965
0.0740165
0.0740045
0.073975
0.0739371
0.0738751
0.0738047
0.0736948
0.0735755
0.0733592
0.0731475
0.0725847
0.0721116
0.0702765
0.066653
0.083721
0.0739792
0.0739678
0.073937
0.0739006
0.0738363
0.073769
0.0736587
0.0735551
0.0733585
0.0732222
0.0727644
0.072789
0.0707298
0.0869269
0.0942379
0.0739252
0.073913
0.073875
0.0738363
0.0737617
0.0736901
0.0735625
0.0734574
0.073217
0.0731007
0.0725108
0.0725551
0.0703351
0.0845232
0.0971026
0.0738545
0.0738444
0.0738045
0.0737691
0.0736902
0.0736148
0.0734788
0.0733612
0.0731229
0.0729907
0.0724442
0.0724655
0.0706431
0.0843571
0.0737674
0.0737568
0.0736948
0.073659
0.0735628
0.073479
0.0733298
0.0731904
0.0729311
0.0727293
0.0722404
0.0719727
0.0927456
0.0944886
0.0736391
0.0736364
0.0735759
0.0735559
0.0734581
0.0733618
0.0731907
0.0729889
0.0727284
0.0723349
0.0720927
0.0708028
0.0856718
0.0897488
0.0735121
0.0735124
0.0733603
0.0733597
0.0732179
0.0731238
0.0729314
0.0727287
0.0722414
0.0720718
0.0707912
0.0910043
0.0643075
0.0732527
0.0732768
0.0731501
0.0732236
0.0731008
0.0729925
0.0727304
0.0723344
0.0720723
0.0712487
0.0882587
0.072451
0.0731201
0.0731633
0.0725864
0.0727658
0.0725116
0.0724446
0.0722409
0.0720881
0.0707794
0.0882396
0.0774746
0.072468
0.0725847
0.0721123
0.0727904
0.0725565
0.0724647
0.0719693
0.0707976
0.090984
0.0723931
0.0726894
0.072869
0.0702748
0.070732
0.0703363
0.0706423
0.0927427
0.085667
0.0642966
0.0703563
0.0705302
0.0666524
0.0869254
0.0845238
0.0843569
0.094487
0.0897456
0.0857413
0.0858969
0.0837215
0.0942372
0.0971027
0.0728758
0.0728632
0.0728365
0.0727976
0.0727427
0.0726698
0.072583
0.0724527
0.0723331
0.072079
0.0719785
0.0714104
0.0716239
0.0703055
0.0829831
0.0728631
0.0728509
0.0728236
0.0727853
0.0727294
0.0726582
0.0725699
0.0724465
0.0723257
0.0720971
0.0720038
0.0715387
0.0718271
0.0705995
0.0836761
0.072836
0.0728234
0.0727933
0.0727536
0.0726909
0.0726176
0.0725095
0.0723841
0.0721911
0.071954
0.0715903
0.0710047
0.0707702
0.0676489
0.0781949
0.072797
0.072785
0.0727535
0.072715
0.0726498
0.072579
0.0724677
0.0723565
0.0721594
0.0719957
0.0715657
0.0713446
0.0700631
0.069194
0.0740496
0.0727419
0.072729
0.0726906
0.0726498
0.0725751
0.072501
0.0723748
0.0722666
0.0720399
0.07192
0.0714582
0.071394
0.0706854
0.0859005
0.0723092
0.0726689
0.0726577
0.0726173
0.0725789
0.072501
0.0724219
0.0722889
0.0721648
0.0719359
0.0717847
0.0713234
0.0712785
0.0701071
0.0822342
0.0725818
0.0725693
0.0725092
0.0724678
0.0723749
0.072289
0.0721427
0.0720086
0.0717555
0.0715952
0.0711112
0.0710873
0.0894659
0.0669737
0.0724514
0.0724461
0.0723841
0.0723568
0.0722669
0.0721651
0.0720087
0.071801
0.0715688
0.0711608
0.0709397
0.0708083
0.083373
0.0723317
0.0723255
0.0721913
0.07216
0.0720403
0.0719362
0.0717552
0.0715693
0.0711358
0.0709708
0.0698916
0.0882533
0.0744143
0.0720775
0.0720971
0.0719546
0.0719965
0.0719206
0.0717851
0.0715947
0.07116
0.0709696
0.068961
0.0842116
0.0747676
0.0719768
0.0720037
0.0715906
0.0715667
0.0714594
0.0713241
0.0711074
0.0709351
0.0698768
0.0842202
0.0718883
0.0714086
0.0715382
0.0710048
0.0713456
0.071397
0.0712871
0.0710789
0.070803
0.0882458
0.0747389
0.071622
0.0718263
0.0707696
0.0700639
0.0706867
0.0701091
0.0894632
0.0833691
0.0744097
0.0703036
0.0705986
0.0676482
0.069194
0.0859013
0.0822345
0.0669728
0.0829816
0.0836759
0.0781946
0.0740511
0.0723091
0.071704
0.0716914
0.0716647
0.0716256
0.0715715
0.0714995
0.0714165
0.0712928
0.0711874
0.0709654
0.0708955
0.0704708
0.0706408
0.0698165
0.0813658
0.0716913
0.0716788
0.0716517
0.071613
0.071558
0.0714873
0.0714023
0.0712843
0.0711743
0.0709741
0.0708958
0.0705548
0.0707425
0.070061
0.0819496
0.0716643
0.0716515
0.0716219
0.071582
0.0715212
0.0714487
0.0713489
0.071228
0.0710746
0.0708571
0.0706811
0.0702181
0.0704809
0.0689085
0.079105
0.071625
0.0716127
0.0715819
0.0715429
0.0714798
0.071409
0.0713041
0.0711939
0.0710212
0.070857
0.0705509
0.0702986
0.0699311
0.0685616
0.0801429
0.0715707
0.0715575
0.071521
0.0714797
0.0714089
0.0713363
0.0712205
0.0711162
0.0709284
0.0708067
0.0705339
0.0704252
0.0703099
0.0857193
0.0749469
0.0714985
0.0714867
0.0714483
0.0714088
0.0713362
0.071259
0.0711386
0.0710204
0.0708253
0.0706816
0.070365
0.0703047
0.0699389
0.0798774
0.0714153
0.0714016
0.0713485
0.071304
0.0712204
0.0711386
0.0710084
0.0708929
0.0706787
0.0705688
0.0701523
0.0703754
0.0879208
0.073527
0.0712915
0.0712836
0.0712277
0.0711939
0.0711162
0.0710203
0.0708928
0.0707161
0.0705341
0.0702501
0.0699544
0.0702895
0.0808441
0.071186
0.0711737
0.0710743
0.0710213
0.0709284
0.0708251
0.0706779
0.0705337
0.0703081
0.0701183
0.0696132
0.088539
0.0765601
0.0709639
0.0709735
0.0708569
0.0708572
0.070807
0.0706812
0.0705672
0.0702467
0.0701155
0.0689767
0.0685273
0.0829767
0.0708938
0.0708951
0.0706809
0.0705513
0.0705342
0.0703649
0.0701495
0.0699495
0.0696082
0.0685239
0.0871771
0.0704691
0.070554
0.0702178
0.0702989
0.0704264
0.0703064
0.0703755
0.0702896
0.0885364
0.082967
0.070639
0.0707416
0.0704804
0.0699313
0.0703106
0.0699401
0.0879205
0.080845
0.0765602
0.0698146
0.0700599
0.0689079
0.0685613
0.0857197
0.0798781
0.0735279
0.0813641
0.0819493
0.0791046
0.0801428
0.0749467
0.0705406
0.0705283
0.0705025
0.0704645
0.0704129
0.0703445
0.0702678
0.0701568
0.0700657
0.0698853
0.0698313
0.0695301
0.0696465
0.0691497
0.0802837
0.0705281
0.070516
0.0704898
0.0704522
0.0703997
0.0703324
0.0702537
0.0701471
0.0700503
0.0698865
0.069817
0.0695719
0.0696583
0.0692231
0.0806643
0.0705021
0.0704896
0.0704615
0.0704229
0.0703662
0.0702976
0.0702091
0.0701002
0.0699802
0.069802
0.0696979
0.0693774
0.0695294
0.0687768
0.0783365
0.070464
0.0704519
0.0704228
0.070385
0.0703264
0.0702594
0.070166
0.0700654
0.0699263
0.0697872
0.0695959
0.0694171
0.0693327
0.0687739
0.0805595
0.0704121
0.0703992
0.0703659
0.0703263
0.0702623
0.070195
0.0700951
0.070002
0.0698565
0.06975
0.0695787
0.0695005
0.0694604
0.0851937
0.0750857
0.0703436
0.0703318
0.0702973
0.0702592
0.070195
0.0701252
0.0700241
0.0699239
0.0697735
0.0696626
0.0694588
0.0694274
0.0693333
0.0788093
0.0702667
0.070253
0.0702087
0.0701658
0.070095
0.070024
0.0699195
0.0698329
0.0696792
0.0696237
0.0693427
0.0695648
0.0870572
0.0742266
0.0701555
0.0701463
0.0700997
0.0700652
0.0700018
0.0699237
0.0698326
0.0697149
0.0695981
0.0694753
0.069254
0.0695544
0.0798846
0.0700643
0.0700495
0.0699797
0.0699261
0.0698562
0.0697729
0.0696777
0.0695962
0.0695401
0.069486
0.0694005
0.0876722
0.0761997
0.0698838
0.0698857
0.0698016
0.069787
0.0697498
0.0696615
0.0696202
0.0694659
0.069483
0.0691172
0.0686465
0.0828757
0.0698297
0.0698161
0.0696974
0.0695958
0.0695785
0.0694578
0.0693368
0.069218
0.0693935
0.0686409
0.0890588
0.0695285
0.069571
0.069377
0.069417
0.0695009
0.069428
0.0695704
0.0695855
0.0876814
0.0828756
0.0696448
0.0696573
0.0695288
0.0693326
0.0694609
0.0693345
0.0870606
0.0798973
0.0762099
0.0691479
0.069222
0.0687761
0.0687736
0.085194
0.0788103
0.0742292
0.0802822
0.0806638
0.0783363
0.0805592
0.0750857
0.0693863
0.0693746
0.0693503
0.0693146
0.0692666
0.0692041
0.0691348
0.069039
0.0689596
0.0688189
0.0687683
0.0685662
0.0686139
0.0683602
0.0793037
0.0693745
0.069363
0.0693384
0.069303
0.0692544
0.0691928
0.0691218
0.0690295
0.0689452
0.0688168
0.0687527
0.068585
0.0686066
0.0683844
0.0796448
0.06935
0.0693382
0.0693123
0.0692763
0.0692248
0.0691627
0.0690858
0.0689923
0.0688958
0.0687587
0.0686773
0.0684639
0.0685044
0.0680852
0.0774934
0.0693141
0.0693027
0.0692762
0.0692409
0.0691884
0.0691279
0.0690477
0.0689612
0.0688512
0.0687421
0.0686098
0.0684961
0.0683856
0.0682852
0.0799817
0.0692659
0.0692539
0.0692245
0.0691883
0.0691326
0.0690732
0.0689902
0.0689117
0.068801
0.0687166
0.0685986
0.0685342
0.0685173
0.0842356
0.074404
0.0692033
0.0691922
0.0691623
0.0691277
0.0690731
0.0690136
0.0689326
0.0688535
0.0687425
0.0686633
0.0685353
0.0684975
0.0685227
0.0778679
0.0691338
0.0691211
0.0690853
0.0690474
0.06899
0.0689325
0.0688534
0.0687917
0.0686873
0.0686608
0.068482
0.0686533
0.0861477
0.0736896
0.0690379
0.0690287
0.0689918
0.0689609
0.0689114
0.0688533
0.0687915
0.0687207
0.0686454
0.0686059
0.0684448
0.0686961
0.0790145
0.0689583
0.0689444
0.0688953
0.0688508
0.0688006
0.068742
0.0686864
0.0686443
0.0686483
0.06862
0.0686827
0.086569
0.0754149
0.0688175
0.0688159
0.0687581
0.0687418
0.0687162
0.0686625
0.0686592
0.0686029
0.0686187
0.0685698
0.0685255
0.0818813
0.0687668
0.0687517
0.0686767
0.0686094
0.0685983
0.0685347
0.0684804
0.0684402
0.0686817
0.0685229
0.0890212
0.0685647
0.068584
0.0684634
0.0684958
0.0685343
0.068498
0.0686558
0.0687007
0.086579
0.0818875
0.0686124
0.0686056
0.0685037
0.0683853
0.0685177
0.0685237
0.0861511
0.0790228
0.0754239
0.0683585
0.0683833
0.0680844
0.0682848
0.0842357
0.0778688
0.0736923
0.0793023
0.0796444
0.0774932
0.0799814
0.0744039
0.0682414
0.0682308
0.0682085
0.0681757
0.0681321
0.0680768
0.068015
0.0679348
0.0678646
0.0677581
0.0677053
0.0675786
0.0675716
0.0674755
0.0783316
0.0682307
0.0682201
0.0681975
0.0681652
0.0681212
0.0680666
0.0680036
0.0679261
0.0678525
0.0677543
0.0676919
0.067585
0.06756
0.0674991
0.0786619
0.0682082
0.0681974
0.068174
0.0681414
0.0680958
0.0680413
0.0679752
0.0678976
0.0678182
0.0677154
0.0676465
0.0675038
0.0675137
0.0672883
0.0766596
0.0681753
0.0681649
0.0681413
0.0681096
0.0680636
0.0680109
0.0679432
0.0678715
0.0677839
0.0677011
0.067601
0.0675393
0.0674088
0.0674895
0.0792476
0.0681315
0.0681207
0.0680955
0.0680635
0.0680163
0.0679654
0.0678977
0.0678334
0.0677486
0.0676825
0.0676008
0.0675444
0.0675523
0.0834234
0.0736029
0.0680761
0.0680661
0.0680409
0.0680107
0.0679653
0.0679164
0.0678522
0.0677909
0.0677087
0.0676504
0.0675718
0.0675255
0.0676214
0.0769318
0.0680141
0.068003
0.0679747
0.0679429
0.0678975
0.0678521
0.0677925
0.0677467
0.0676729
0.0676561
0.0675317
0.0676728
0.085202
0.0728546
0.0679338
0.0679254
0.067897
0.0678711
0.0678331
0.0677906
0.0677466
0.0677007
0.0676427
0.0676279
0.0675069
0.0677432
0.0780734
0.0678635
0.0678517
0.0678176
0.0677834
0.0677483
0.0677083
0.0676725
0.0676423
0.067652
0.0676081
0.0676509
0.0854915
0.0744991
0.0677569
0.0677534
0.0677148
0.0677007
0.0676822
0.06765
0.0676556
0.0676272
0.067608
0.0675063
0.0676961
0.0809138
0.067704
0.067691
0.0676459
0.0676004
0.0676004
0.0675715
0.0675315
0.0675064
0.0676535
0.067715
0.0884692
0.0675773
0.0675841
0.0675036
0.0675384
0.0675442
0.0675257
0.0676742
0.067745
0.0854992
0.0809221
0.0675703
0.067559
0.0675131
0.0674084
0.0675523
0.0676219
0.0852039
0.0780768
0.0745034
0.067474
0.067498
0.0672875
0.0674891
0.0834234
0.0769324
0.0728563
0.0783306
0.0786616
0.0766593
0.0792473
0.0736028
0.0671055
0.0670968
0.0670767
0.0670476
0.0670085
0.0669608
0.0669062
0.0668408
0.0667785
0.0667001
0.0666453
0.066572
0.0665312
0.0665315
0.077361
0.0670967
0.0670872
0.0670669
0.0670381
0.066999
0.0669519
0.0668967
0.0668333
0.0667688
0.0666958
0.0666346
0.0665744
0.0665171
0.0665502
0.0776837
0.0670765
0.0670668
0.0670461
0.0670174
0.0669776
0.0669309
0.0668745
0.0668115
0.0667452
0.066669
0.06661
0.0665236
0.06651
0.0664061
0.0757568
0.0670472
0.0670379
0.0670173
0.0669896
0.06695
0.0669052
0.0668485
0.0667904
0.0667195
0.0666579
0.0665778
0.0665441
0.0664265
0.0665895
0.0784158
0.067008
0.0669986
0.0669774
0.0669499
0.0669103
0.0668678
0.0668126
0.0667605
0.0666945
0.0666422
0.0665834
0.066536
0.0665583
0.0825726
0.0727308
0.0669601
0.0669514
0.0669306
0.066905
0.0668677
0.0668279
0.0667767
0.0667288
0.0666667
0.0666224
0.0665744
0.0665261
0.066665
0.0759773
0.0669054
0.0668961
0.0668741
0.0668482
0.0668124
0.0667766
0.0667305
0.066695
0.0666397
0.0666288
0.066533
0.0666565
0.084247
0.0719359
0.0668399
0.0668326
0.066811
0.06679
0.0667602
0.0667286
0.0666949
0.0666619
0.066615
0.0666062
0.0665163
0.0667484
0.0771061
0.0667775
0.066768
0.0667446
0.0667191
0.0666942
0.0666664
0.0666395
0.0666149
0.0666187
0.0665945
0.0666171
0.084489
0.0735562
0.066699
0.0666949
0.0666684
0.0666574
0.0666419
0.0666221
0.0666288
0.0666061
0.0665938
0.0664529
0.066786
0.0799955
0.0666442
0.0666337
0.0666093
0.0665772
0.066583
0.0665742
0.0665331
0.066516
0.0666115
0.0667098
0.0877625
0.0665709
0.0665735
0.066523
0.0665435
0.0665358
0.0665261
0.0666573
0.0667495
0.0844953
0.0799921
0.0665301
0.0665161
0.0665093
0.066426
0.0665581
0.0666651
0.0842479
0.0771079
0.0735595
0.0665302
0.0665491
0.0664053
0.0665889
0.0825724
0.0759775
0.0719366
0.0773602
0.0776834
0.0757565
0.0784155
0.0727305
0.0659776
0.065972
0.0659546
0.0659292
0.0658948
0.0658544
0.0658067
0.0657546
0.0656994
0.0656431
0.0655879
0.0655486
0.0654884
0.0655339
0.0764655
0.0659719
0.0659641
0.0659461
0.065921
0.0658866
0.0658469
0.065799
0.0657483
0.0656918
0.0656391
0.0655796
0.0655493
0.065475
0.0655461
0.0767811
0.0659544
0.065946
0.065928
0.0659032
0.0658688
0.0658297
0.0657817
0.0657315
0.0656754
0.0656197
0.0655663
0.0655137
0.0654851
0.0654389
0.0748709
0.0659289
0.0659208
0.0659031
0.0658793
0.0658456
0.0658083
0.0657609
0.0657147
0.0656565
0.0656113
0.0655441
0.0655309
0.0654172
0.065599
0.0775878
0.0658943
0.0658863
0.0658686
0.0658455
0.0658125
0.0657776
0.0657325
0.0656905
0.0656378
0.065596
0.0655496
0.0655071
0.0655284
0.0817685
0.0718884
0.0658538
0.0658465
0.0658294
0.0658081
0.0657775
0.0657453
0.065704
0.0656661
0.0656176
0.0655826
0.0655501
0.0655004
0.0656487
0.075065
0.0658061
0.0657985
0.0657814
0.0657606
0.0657323
0.0657039
0.065667
0.0656384
0.0655941
0.0655855
0.0655054
0.0656054
0.0833883
0.0710609
0.0657539
0.0657477
0.065731
0.0657143
0.0656902
0.0656659
0.0656383
0.0656124
0.0655732
0.0655631
0.0654934
0.0657053
0.0761982
0.0656986
0.0656911
0.0656749
0.0656561
0.0656374
0.0656173
0.0655939
0.0655734
0.0655668
0.0655635
0.065552
0.0836296
0.072693
0.0656422
0.0656383
0.065619
0.0656107
0.0655956
0.0655821
0.0655857
0.0655642
0.0655696
0.0654204
0.0656343
0.0791377
0.065587
0.0655787
0.0655656
0.0655435
0.0655491
0.0655498
0.0655057
0.0654965
0.0655787
0.0658205
0.0870185
0.0655477
0.0655484
0.065513
0.0655303
0.0655067
0.0655
0.0656056
0.0657066
0.0836444
0.0791827
0.0654874
0.065474
0.0654845
0.0654166
0.0655279
0.0656483
0.0833886
0.0761989
0.0726969
0.0655329
0.0655451
0.0654382
0.0655983
0.0817681
0.0750647
0.0710609
0.076465
0.0767809
0.0748707
0.0775875
0.0718879
0.0648527
0.0785266
0.0654679
0.0780048
0.0671696
0.0776388
0.0675821
0.0756171
0.0661142
0.0684781
0.0684744
0.0689725
0.0807571
0.066591
0.0787553
0.0711919
0.0794421
0.0678603
0.0792274
0.0655673
0.0596322
0.0673383
0.0687911
0.0787751
0.0572535
0.0663983
0.0668585
0.0681749
0.0669119
0.0753295
0.0604125
0.0647757
0.0665863
0.074692
0.0554532
0.0756658
0.0759518
0.0582834
0.0753019
0.0600337
0.0601069
0.0604273
0.0666037
0.0647892
0.0747011
0.0756822
0.0583288
0.0759635
0.0596391
0.0688022
0.0673441
0.078782
0.0668623
0.0669385
0.0681811
0.0554671
0.0689742
0.0665937
0.080759
0.0787579
0.0678644
0.0655715
0.0792301
0.0572591
0.0664048
0.0753349
0.0648533
0.0654582
0.0785267
0.0780036
0.0671686
0.0675824
0.0776418
0.0756175
0.0661151
0.0684796
0.0684754
0.071194
0.0794445
0.0867237
0.0977442
0.087082
0.0672701
0.0779262
0.0678312
0.077597
0.0873406
0.0956688
0.0694599
0.0773645
0.0697825
0.0981535
0.07702
0.0666222
0.0960354
0.0687484
0.0687985
0.0846298
0.0971202
0.0868371
0.0705437
0.0805852
0.0686219
0.0781392
0.0860354
0.0711481
0.078682
0.0868025
0.0974864
0.0696998
0.0782861
0.068407
0.0964734
0.0952208
0.0864452
0.0630524
0.0693372
0.0701741
0.0790733
0.0983029
0.0586855
0.0666708
0.0967042
0.096396
0.0692729
0.0684077
0.0697493
0.0750563
0.0990926
0.0971354
0.0906264
0.0638374
0.0671793
0.0686275
0.0744924
0.0570982
0.0888664
0.105789
0.0770212
0.0759615
0.0589947
0.104252
0.1042
0.0768435
0.060688
0.0607518
0.0971361
0.099099
0.0906308
0.0638496
0.0686389
0.0671889
0.0745012
0.105758
0.0888699
0.0770356
0.0590353
0.075971
0.0952267
0.0964779
0.086451
0.063059
0.0701817
0.0693427
0.0790792
0.0964025
0.0967094
0.0692797
0.0697602
0.0684137
0.057108
0.0971214
0.0846314
0.086839
0.0705457
0.0686244
0.0805873
0.0781416
0.0974892
0.0868046
0.0697032
0.0684109
0.0782884
0.0983074
0.0586905
0.0666766
0.0750618
0.0977446
0.086718
0.0870795
0.0672708