/*--------------------------------*- C++ -*----------------------------------*\
| =========                 |                                                 |
| \\      /  F ield         | OpenFOAM: The Open Source CFD Toolbox           |
|  \\    /   O peration     | Version:  2.1.1                                 |
|   \\  /    A nd           | Web:      www.OpenFOAM.org                      |
|    \\/     M anipulation  |                                                 |
\*---------------------------------------------------------------------------*/
FoamFile
{
    version     2.0;
    format      ascii;
    class       volScalarField;
    location    "0.0045";
    object      Th;
}
// * * * * * * * * * * * * * * * * * * * * * * * * * * * * * * * * * * * * * //

dimensions      [0 0 0 0 0 0 0];

internalField   nonuniform List<scalar> 
10314
(
1.00005e-14
1e-14
1.00002e-14
1.00001e-14
1.00001e-14
1.00001e-14
1.00002e-14
1.00002e-14
1.00002e-14
1.00002e-14
1.00001e-14
1.00002e-14
1.00098e-14
1.18685e-14
2.26868e-14
1e-14
1e-14
1e-14
1.00001e-14
1.00001e-14
1.00001e-14
1.00001e-14
1.00001e-14
1.00001e-14
1.00001e-14
1.00001e-14
1.00003e-14
1.00238e-14
1.44904e-14
3.51483e-14
1.00002e-14
1e-14
1.00001e-14
1.00001e-14
1e-14
1e-14
1e-14
1.00001e-14
1.00001e-14
1.00001e-14
1.00001e-14
1.00001e-14
1e-14
1.0604e-14
6.51104e-14
1.00001e-14
1.00001e-14
1.00001e-14
1e-14
1e-14
1.00001e-14
1.00001e-14
1.00001e-14
1e-14
1.00001e-14
1e-14
1.00002e-14
1.01244e-14
1e-14
1.075e-14
1.00001e-14
1.00001e-14
1e-14
1e-14
1.00001e-14
1.00001e-14
1.00001e-14
1e-14
1e-14
1e-14
1e-14
1.00006e-14
1.02421e-14
1e-14
1e-14
1.00001e-14
1.00001e-14
1e-14
1.00001e-14
1.00001e-14
1.00001e-14
1e-14
1e-14
1e-14
1e-14
1.00001e-14
1.00194e-14
1.55975e-14
2.40302e-14
1.00002e-14
1.00001e-14
1e-14
1.00001e-14
1.00001e-14
1e-14
1e-14
1e-14
1e-14
1.00001e-14
1.00003e-14
1.02008e-14
1.06095e-14
1.08952e-14
1.00002e-14
1.00001e-14
1.00001e-14
1.00001e-14
1e-14
1e-14
1e-14
1e-14
1e-14
1.00001e-14
1.0023e-14
1.96868e-14
1.80194e-14
9.84938e-13
1.00002e-14
1.00001e-14
1.00001e-14
1e-14
1e-14
1e-14
1e-14
1e-14
1e-14
1.00025e-14
1.12999e-14
1.05905e-14
1e-14
1.00002e-14
1.00001e-14
1.00001e-14
1.00001e-14
1e-14
1e-14
1.00001e-14
1.00001e-14
1.00025e-14
1.137e-14
1.00726e-14
7.18999e-14
1e-14
1.00001e-14
1.00001e-14
1e-14
1e-14
1.00001e-14
1.00003e-14
1.0023e-14
1.12961e-14
1.00732e-14
5.72793e-14
1.00001e-14
1.00003e-14
1.00001e-14
1.00002e-14
1.00006e-14
1.00194e-14
1.02007e-14
1.96836e-14
1.05911e-14
7.18232e-14
1.00098e-14
1.00239e-14
1e-14
1.01244e-14
1.02421e-14
1.5597e-14
1.06095e-14
1.8015e-14
1e-14
1.18667e-14
1.44907e-14
1.06045e-14
1e-14
1e-14
2.40292e-14
1.0895e-14
9.84955e-13
2.26787e-14
3.51342e-14
6.51025e-14
1.07499e-14
1e-14
1.00003e-14
1e-14
1.00001e-14
1e-14
1.00001e-14
1.00001e-14
1.00001e-14
1.00001e-14
1.00001e-14
1.00001e-14
1.00001e-14
1.00001e-14
1.00048e-14
1.16109e-14
2.24503e-14
1e-14
1e-14
1e-14
1e-14
1e-14
1.00001e-14
1e-14
1e-14
1.00001e-14
1.00001e-14
1.00001e-14
1.00002e-14
1.00127e-14
1.40697e-14
3.41415e-14
1.00001e-14
1e-14
1e-14
1.00001e-14
1e-14
1e-14
1e-14
1.00001e-14
1e-14
1e-14
1.00001e-14
1.00001e-14
1e-14
1.05014e-14
6.5959e-14
1e-14
1e-14
1.00001e-14
1e-14
1e-14
1.00001e-14
1.00001e-14
1.00001e-14
1e-14
1e-14
1.00001e-14
1.00001e-14
1.01047e-14
1e-14
1.05991e-14
1.00001e-14
1e-14
1e-14
1e-14
1.00001e-14
1.00001e-14
1.00001e-14
1e-14
1e-14
1e-14
1.00001e-14
1.00003e-14
1.02032e-14
1e-14
1e-14
1.00002e-14
1.00001e-14
1e-14
1.00001e-14
1.00001e-14
1.00001e-14
1e-14
1e-14
1e-14
1e-14
1.00001e-14
1.00111e-14
1.525e-14
2.35596e-14
1.00001e-14
1.00001e-14
1e-14
1.00001e-14
1.00001e-14
1e-14
1e-14
1e-14
1e-14
1e-14
1e-14
1.01777e-14
1.05359e-14
1.02308e-14
1.00001e-14
1e-14
1.00001e-14
1.00001e-14
1e-14
1e-14
1e-14
1e-14
1e-14
1.00001e-14
1.0013e-14
1.90863e-14
1.76382e-14
9.96933e-13
1.00001e-14
1.00001e-14
1e-14
1e-14
1e-14
1e-14
1e-14
1e-14
1e-14
1.00006e-14
1.11807e-14
1.05725e-14
1e-14
1.00001e-14
1.00001e-14
1e-14
1e-14
1e-14
1e-14
1e-14
1.00001e-14
1.00006e-14
1.12568e-14
1.00004e-14
7.4438e-14
1.00001e-14
1.00001e-14
1.00001e-14
1.00001e-14
1e-14
1.00001e-14
1e-14
1.00129e-14
1.1177e-14
1.00006e-14
5.90835e-14
1.00001e-14
1.00002e-14
1.00001e-14
1.00001e-14
1.00003e-14
1.00111e-14
1.01777e-14
1.90835e-14
1.05733e-14
7.43645e-14
1.00048e-14
1.00127e-14
1e-14
1.01047e-14
1.02031e-14
1.52496e-14
1.0536e-14
1.76381e-14
1e-14
1.1609e-14
1.407e-14
1.05018e-14
1e-14
1e-14
2.35587e-14
1.02308e-14
9.96953e-13
2.24435e-14
3.41297e-14
6.59514e-14
1.05989e-14
1e-14
1.00001e-14
1.00001e-14
1e-14
1e-14
1e-14
1e-14
1e-14
1e-14
1e-14
1.00001e-14
1e-14
1.00001e-14
1.00005e-14
1.15409e-14
2.25518e-14
1.00001e-14
1e-14
1e-14
1e-14
1e-14
1e-14
1e-14
1e-14
1.00001e-14
1e-14
1.00001e-14
1.00001e-14
1.00025e-14
1.39489e-14
3.41737e-14
1e-14
1e-14
1e-14
1e-14
1e-14
1e-14
1e-14
1e-14
1e-14
1e-14
1.00001e-14
1.00001e-14
1e-14
1.04783e-14
6.67487e-14
1e-14
1e-14
1e-14
1e-14
1e-14
1.00001e-14
1.00001e-14
1e-14
1e-14
1.00001e-14
1.00001e-14
1e-14
1.00975e-14
1e-14
1.05862e-14
1e-14
1e-14
1e-14
1e-14
1.00001e-14
1.00001e-14
1e-14
1e-14
1e-14
1.00001e-14
1e-14
1e-14
1.01941e-14
1e-14
1e-14
1e-14
1e-14
1e-14
1.00001e-14
1.00001e-14
1e-14
1e-14
1e-14
1e-14
1e-14
1e-14
1.00061e-14
1.51439e-14
2.35943e-14
1e-14
1e-14
1e-14
1e-14
1e-14
1e-14
1e-14
1e-14
1e-14
1e-14
1e-14
1.01711e-14
1.05176e-14
1.01375e-14
1e-14
1e-14
1e-14
1e-14
1e-14
1e-14
1e-14
1e-14
1e-14
1e-14
1.00083e-14
1.88357e-14
1.75859e-14
9.98553e-13
1e-14
1.00001e-14
1e-14
1e-14
1e-14
1e-14
1e-14
1e-14
1e-14
1e-14
1.11538e-14
1.05638e-14
1e-14
1.00001e-14
1e-14
1e-14
1.00001e-14
1.00001e-14
1e-14
1e-14
1e-14
1e-14
1.12266e-14
1e-14
7.57124e-14
1e-14
1.00001e-14
1.00001e-14
1.00001e-14
1e-14
1e-14
1e-14
1.00083e-14
1.11501e-14
1e-14
6.00858e-14
1.00001e-14
1.00001e-14
1.00001e-14
1e-14
1e-14
1.00061e-14
1.0171e-14
1.88334e-14
1.05646e-14
7.5639e-14
1.00006e-14
1.00026e-14
1e-14
1.00975e-14
1.01941e-14
1.51436e-14
1.05176e-14
1.75852e-14
1e-14
1.15417e-14
1.39509e-14
1.04789e-14
1e-14
1e-14
2.35936e-14
1.01374e-14
9.98569e-13
2.25451e-14
3.41649e-14
6.67437e-14
1.05859e-14
1e-14
1e-14
1e-14
1e-14
1e-14
1e-14
1e-14
1e-14
1.00001e-14
1.00001e-14
1e-14
1e-14
1.00001e-14
1e-14
1.14322e-14
2.25417e-14
1e-14
1e-14
1e-14
1e-14
1e-14
1e-14
1e-14
1e-14
1e-14
1e-14
1.00001e-14
1.00001e-14
1e-14
1.38586e-14
3.41713e-14
1e-14
1e-14
1e-14
1e-14
1e-14
1e-14
1e-14
1e-14
1e-14
1e-14
1.00001e-14
1.00001e-14
1e-14
1.04703e-14
6.71005e-14
1e-14
1e-14
1e-14
1e-14
1e-14
1e-14
1e-14
1e-14
1e-14
1.00001e-14
1.00001e-14
1e-14
1.00939e-14
1e-14
1.05794e-14
1e-14
1e-14
1e-14
1e-14
1e-14
1e-14
1e-14
1e-14
1.00001e-14
1e-14
1e-14
1e-14
1.01852e-14
1e-14
1e-14
1e-14
1e-14
1e-14
1e-14
1e-14
1e-14
1e-14
1e-14
1e-14
1e-14
1e-14
1e-14
1.50615e-14
2.36021e-14
1e-14
1e-14
1e-14
1e-14
1e-14
1e-14
1e-14
1e-14
1e-14
1e-14
1e-14
1.01658e-14
1.05057e-14
1.01085e-14
1.00001e-14
1e-14
1e-14
1e-14
1e-14
1e-14
1e-14
1e-14
1e-14
1e-14
1.00006e-14
1.88216e-14
1.75586e-14
9.98887e-13
1.00001e-14
1e-14
1e-14
1e-14
1.00001e-14
1e-14
1e-14
1e-14
1e-14
1e-14
1.11564e-14
1.05571e-14
1e-14
1e-14
1e-14
1e-14
1.00001e-14
1e-14
1e-14
1e-14
1e-14
1e-14
1.12238e-14
1e-14
7.59032e-14
1e-14
1.00001e-14
1.00001e-14
1.00001e-14
1e-14
1e-14
1e-14
1.00006e-14
1.11526e-14
1e-14
6.02421e-14
1.00001e-14
1.00001e-14
1.00001e-14
1e-14
1e-14
1e-14
1.01658e-14
1.88192e-14
1.05578e-14
7.58298e-14
1e-14
1e-14
1e-14
1.00939e-14
1.01851e-14
1.5061e-14
1.05056e-14
1.75581e-14
1e-14
1.14335e-14
1.38621e-14
1.04711e-14
1e-14
1e-14
2.36015e-14
1.01084e-14
9.98903e-13
2.25444e-14
3.41777e-14
6.70973e-14
1.05791e-14
1e-14
1e-14
1e-14
1e-14
1e-14
1e-14
1.00001e-14
1.00001e-14
1.00001e-14
1.00001e-14
1e-14
1e-14
1.00001e-14
1e-14
1.17231e-14
2.2491e-14
1e-14
1e-14
1e-14
1e-14
1e-14
1e-14
1e-14
1e-14
1e-14
1e-14
1.00001e-14
1e-14
1e-14
1.42026e-14
3.41763e-14
1e-14
1e-14
1e-14
1e-14
1e-14
1e-14
1e-14
1e-14
1e-14
1e-14
1.00001e-14
1e-14
1e-14
1.05071e-14
6.78708e-14
1e-14
1e-14
1e-14
1e-14
1e-14
1e-14
1e-14
1e-14
1e-14
1.00001e-14
1e-14
1e-14
1.00959e-14
1e-14
1.05542e-14
1e-14
1e-14
1e-14
1e-14
1e-14
1e-14
1e-14
1e-14
1e-14
1e-14
1e-14
1e-14
1.02185e-14
1e-14
1e-14
1.00001e-14
1e-14
1e-14
1e-14
1e-14
1e-14
1e-14
1e-14
1e-14
1e-14
1e-14
1e-14
1.52923e-14
2.35807e-14
1.00001e-14
1e-14
1e-14
1e-14
1e-14
1e-14
1e-14
1e-14
1e-14
1e-14
1e-14
1.01616e-14
1.05144e-14
1.00717e-14
1.00001e-14
1e-14
1e-14
1e-14
1e-14
1e-14
1e-14
1e-14
1e-14
1.00001e-14
1e-14
1.86256e-14
1.74266e-14
9.9877e-13
1.00001e-14
1e-14
1e-14
1e-14
1e-14
1e-14
1e-14
1e-14
1.00001e-14
1e-14
1.11214e-14
1.0516e-14
1e-14
1e-14
1e-14
1e-14
1.00001e-14
1e-14
1e-14
1e-14
1.00001e-14
1e-14
1.12049e-14
1e-14
7.57792e-14
1e-14
1.00001e-14
1.00001e-14
1e-14
1e-14
1e-14
1e-14
1e-14
1.11177e-14
1e-14
6.01945e-14
1.00001e-14
1.00001e-14
1e-14
1e-14
1e-14
1e-14
1.01615e-14
1.86234e-14
1.05168e-14
7.57046e-14
1e-14
1e-14
1e-14
1.00959e-14
1.02185e-14
1.52919e-14
1.05144e-14
1.74262e-14
1e-14
1.17244e-14
1.42046e-14
1.05075e-14
1e-14
1e-14
2.35799e-14
1.00716e-14
9.98783e-13
2.2485e-14
3.41877e-14
6.78663e-14
1.05538e-14
1e-14
1e-14
1e-14
1e-14
1e-14
1e-14
1.00001e-14
1.00001e-14
1e-14
1e-14
1e-14
1.00001e-14
1.00002e-14
1e-14
1.09654e-14
2.15494e-14
1e-14
1e-14
1e-14
1e-14
1e-14
1e-14
1e-14
1e-14
1e-14
1e-14
1e-14
1e-14
1e-14
1.33847e-14
3.36851e-14
1e-14
1e-14
1e-14
1e-14
1e-14
1e-14
1e-14
1e-14
1e-14
1e-14
1e-14
1e-14
1e-14
1.0465e-14
7.06558e-14
1e-14
1e-14
1e-14
1e-14
1.00001e-14
1e-14
1e-14
1e-14
1e-14
1e-14
1.00001e-14
1e-14
1.00816e-14
1e-14
1.04179e-14
1e-14
1e-14
1e-14
1.00001e-14
1e-14
1e-14
1e-14
1e-14
1e-14
1e-14
1e-14
1e-14
1.0128e-14
1e-14
1e-14
1.00001e-14
1e-14
1e-14
1e-14
1e-14
1.00001e-14
1e-14
1e-14
1e-14
1.00001e-14
1e-14
1e-14
1.45036e-14
2.31118e-14
1.00001e-14
1e-14
1e-14
1e-14
1e-14
1e-14
1e-14
1e-14
1.00001e-14
1e-14
1e-14
1.01461e-14
1.04371e-14
1.00086e-14
1e-14
1e-14
1e-14
1e-14
1e-14
1e-14
1e-14
1e-14
1.00001e-14
1e-14
1e-14
1.86959e-14
1.72045e-14
9.97231e-13
1e-14
1e-14
1e-14
1e-14
1e-14
1e-14
1.00001e-14
1.00001e-14
1e-14
1e-14
1.12642e-14
1.0597e-14
1e-14
1e-14
1e-14
1e-14
1e-14
1e-14
1.00001e-14
1e-14
1e-14
1e-14
1.12752e-14
1e-14
7.5412e-14
1.00001e-14
1e-14
1e-14
1e-14
1e-14
1e-14
1e-14
1e-14
1.12601e-14
1e-14
6.04642e-14
1.00002e-14
1e-14
1e-14
1e-14
1e-14
1e-14
1.0146e-14
1.86939e-14
1.05976e-14
7.53346e-14
1e-14
1e-14
1e-14
1.00816e-14
1.01279e-14
1.45032e-14
1.04371e-14
1.72038e-14
1e-14
1.0966e-14
1.33851e-14
1.04652e-14
1e-14
1e-14
2.31112e-14
1.00086e-14
9.9724e-13
2.15481e-14
3.36894e-14
7.06507e-14
1.04175e-14
1e-14
1e-14
1e-14
1e-14
1.00001e-14
1.00002e-14
1.00002e-14
1.00001e-14
1.00001e-14
1e-14
1e-14
1.00001e-14
1.00001e-14
1e-14
1.3438e-14
1.23989e-14
1e-14
1e-14
1e-14
1e-14
1e-14
1e-14
1e-14
1e-14
1e-14
1e-14
1e-14
1.00001e-14
1e-14
1.70449e-14
2.93285e-14
1e-14
1e-14
1e-14
1e-14
1e-14
1e-14
1e-14
1.00001e-14
1e-14
1.00001e-14
1.00001e-14
1.00001e-14
1e-14
1.11101e-14
7.12104e-14
1.00001e-14
1e-14
1e-14
1.00001e-14
1e-14
1e-14
1.00001e-14
1e-14
1e-14
1.00001e-14
1.00001e-14
1e-14
1.01229e-14
1e-14
1e-14
1.00002e-14
1e-14
1e-14
1e-14
1e-14
1.00001e-14
1e-14
1e-14
1.00001e-14
1.00001e-14
1e-14
1e-14
1.04289e-14
1e-14
1e-14
1.00002e-14
1e-14
1e-14
1e-14
1.00001e-14
1e-14
1e-14
1e-14
1.00001e-14
1e-14
1e-14
1e-14
1.75158e-14
2.16067e-14
1.00001e-14
1e-14
1e-14
1.00001e-14
1e-14
1e-14
1e-14
1.00001e-14
1.00001e-14
1e-14
1e-14
1.01349e-14
1.07336e-14
1e-14
1.00001e-14
1e-14
1.00001e-14
1e-14
1e-14
1e-14
1.00001e-14
1.00001e-14
1.00001e-14
1e-14
1e-14
1.9902e-14
1.94332e-14
9.72091e-13
1e-14
1e-14
1e-14
1e-14
1.00001e-14
1.00001e-14
1.00001e-14
1.00001e-14
1e-14
1e-14
1.0929e-14
1.07307e-14
1.13892e-14
1e-14
1e-14
1.00001e-14
1.00001e-14
1.00001e-14
1e-14
1e-14
1.00001e-14
1e-14
1.10431e-14
1.0074e-14
7.85662e-14
1.00001e-14
1e-14
1.00001e-14
1.00001e-14
1e-14
1e-14
1e-14
1e-14
1.09258e-14
1.00741e-14
7.49133e-14
1.00001e-14
1.00001e-14
1.00001e-14
1e-14
1e-14
1e-14
1.0135e-14
1.99008e-14
1.0731e-14
7.84734e-14
1e-14
1e-14
1e-14
1.01229e-14
1.04288e-14
1.75154e-14
1.07337e-14
1.94329e-14
1.13919e-14
1.34383e-14
1.70459e-14
1.11104e-14
1e-14
1e-14
2.16065e-14
1e-14
9.72099e-13
1.23989e-14
2.93291e-14
7.12069e-14
1e-14
1e-14
1e-14
1e-14
1e-14
1.00002e-14
1.00002e-14
1.00002e-14
1.00001e-14
1e-14
1.00001e-14
1.00001e-14
1.00001e-14
1.00001e-14
1e-14
1.13794e-14
1e-14
1e-14
1e-14
1e-14
1e-14
1e-14
1e-14
1e-14
1e-14
1.00001e-14
1.00001e-14
1.00001e-14
1e-14
1e-14
1.21331e-14
1.2866e-14
1e-14
1e-14
1e-14
1e-14
1e-14
1e-14
1e-14
1e-14
1e-14
1.00001e-14
1.00001e-14
1e-14
1e-14
1e-14
4.03236e-14
1.00002e-14
1e-14
1e-14
1e-14
1.00001e-14
1.00001e-14
1e-14
1e-14
1e-14
1.00001e-14
1e-14
1e-14
1.00384e-14
1.01737e-14
1.2563e-14
1.00002e-14
1e-14
1e-14
1.00001e-14
1.00001e-14
1e-14
1e-14
1e-14
1e-14
1e-14
1e-14
1e-14
1.01518e-14
1.08235e-14
1e-14
1.00002e-14
1e-14
1e-14
1.00001e-14
1e-14
1e-14
1.00001e-14
1e-14
1e-14
1e-14
1e-14
1e-14
1.16579e-14
1e-14
1.00001e-14
1e-14
1e-14
1e-14
1e-14
1.00001e-14
1.00001e-14
1e-14
1e-14
1e-14
1e-14
1.00237e-14
1.004e-14
1.75617e-14
1e-14
1e-14
1e-14
1e-14
1e-14
1.00001e-14
1e-14
1e-14
1e-14
1e-14
1e-14
1.22592e-14
1e-14
1e-14
1.00001e-14
1.00001e-14
1e-14
1e-14
1e-14
1e-14
1e-14
1e-14
1e-14
1e-14
1.0199e-14
1e-14
1e-14
1.00001e-14
1.00001e-14
1.00001e-14
1e-14
1e-14
1e-14
1e-14
1e-14
1e-14
1.02409e-14
1.01942e-14
3.66269e-14
1.00001e-14
1.00001e-14
1.00001e-14
1e-14
1e-14
1e-14
1e-14
1e-14
1.01983e-14
1.01936e-14
2.68269e-14
1.00001e-14
1e-14
1e-14
1e-14
1e-14
1e-14
1.00237e-14
1.22589e-14
1e-14
3.66206e-14
1e-14
1e-14
1e-14
1.00384e-14
1.01518e-14
1.16579e-14
1.004e-14
1e-14
1e-14
1.13794e-14
1.21334e-14
1e-14
1.01737e-14
1.08222e-14
1e-14
1.75615e-14
1e-14
1e-14
1.28683e-14
4.03235e-14
1.25634e-14
1e-14
1e-14
1e-14
1e-14
1.00001e-14
1.00001e-14
1.00002e-14
1e-14
1e-14
1e-14
1.00001e-14
1.00002e-14
1.00002e-14
1e-14
1.04403e-14
1e-14
1e-14
1e-14
1e-14
1e-14
1e-14
1.00001e-14
1e-14
1e-14
1e-14
1e-14
1e-14
1e-14
1e-14
1.0665e-14
1e-14
1e-14
1e-14
1e-14
1e-14
1.00001e-14
1e-14
1e-14
1e-14
1e-14
1e-14
1e-14
1e-14
1e-14
1e-14
1.20349e-14
1.00001e-14
1e-14
1e-14
1.00001e-14
1.00001e-14
1e-14
1e-14
1e-14
1e-14
1e-14
1e-14
1e-14
1.00107e-14
1.00509e-14
1.0209e-14
1.00001e-14
1e-14
1.00001e-14
1.00001e-14
1e-14
1e-14
1e-14
1e-14
1e-14
1e-14
1e-14
1e-14
1.00481e-14
1e-14
1.00853e-14
1.00002e-14
1.00001e-14
1e-14
1e-14
1e-14
1e-14
1e-14
1e-14
1e-14
1e-14
1e-14
1e-14
1.04232e-14
1e-14
1e-14
1e-14
1e-14
1e-14
1e-14
1e-14
1e-14
1e-14
1e-14
1e-14
1e-14
1.0003e-14
1.00277e-14
1.01115e-14
1e-14
1e-14
1e-14
1e-14
1e-14
1e-14
1e-14
1e-14
1.00001e-14
1.00001e-14
1e-14
1.05876e-14
1.00135e-14
1e-14
1e-14
1e-14
1e-14
1e-14
1e-14
1e-14
1.00001e-14
1.00001e-14
1e-14
1.00335e-14
1.0036e-14
1.00802e-14
1.00001e-14
1e-14
1e-14
1e-14
1e-14
1e-14
1e-14
1.00001e-14
1e-14
1.00503e-14
1.00112e-14
1.07559e-14
1.00002e-14
1e-14
1e-14
1e-14
1e-14
1e-14
1e-14
1e-14
1.00334e-14
1.00112e-14
1.0448e-14
1.00002e-14
1e-14
1e-14
1e-14
1e-14
1e-14
1.00031e-14
1.05875e-14
1.00359e-14
1.0755e-14
1e-14
1e-14
1e-14
1.00107e-14
1.00481e-14
1.04232e-14
1.00277e-14
1.00135e-14
1.00802e-14
1.04403e-14
1.06651e-14
1e-14
1.00509e-14
1e-14
1e-14
1.01115e-14
1e-14
1e-14
1.20347e-14
1.02089e-14
1.00853e-14
1e-14
1e-14
1e-14
1.00001e-14
1.00002e-14
1.00001e-14
1e-14
1e-14
1e-14
1e-14
1.00001e-14
1e-14
1e-14
1.01191e-14
1.0009e-14
1e-14
1e-14
1e-14
1e-14
1.00001e-14
1e-14
1e-14
1e-14
1e-14
1e-14
1e-14
1e-14
1e-14
1.01847e-14
1.0019e-14
1e-14
1e-14
1e-14
1.00001e-14
1e-14
1e-14
1e-14
1e-14
1e-14
1e-14
1e-14
1e-14
1e-14
1.00017e-14
1.00614e-14
1.00001e-14
1e-14
1.00001e-14
1.00001e-14
1e-14
1e-14
1e-14
1e-14
1e-14
1e-14
1e-14
1e-14
1.0003e-14
1.00051e-14
1.00045e-14
1.00002e-14
1.00001e-14
1e-14
1e-14
1e-14
1e-14
1e-14
1e-14
1e-14
1e-14
1e-14
1e-14
1.00124e-14
1.00001e-14
1.00011e-14
1.00001e-14
1e-14
1e-14
1e-14
1e-14
1e-14
1e-14
1e-14
1e-14
1e-14
1e-14
1e-14
1.00972e-14
1.00088e-14
1e-14
1e-14
1e-14
1e-14
1e-14
1e-14
1e-14
1e-14
1e-14
1e-14
1e-14
1.00004e-14
1.00068e-14
1.0002e-14
1e-14
1e-14
1e-14
1e-14
1e-14
1e-14
1e-14
1e-14
1e-14
1e-14
1e-14
1.01361e-14
1.00126e-14
1e-14
1e-14
1e-14
1e-14
1e-14
1e-14
1e-14
1e-14
1.00001e-14
1e-14
1.00048e-14
1.00109e-14
1.00016e-14
1e-14
1e-14
1e-14
1e-14
1e-14
1e-14
1e-14
1e-14
1e-14
1.00093e-14
1.00035e-14
1.00127e-14
1.00001e-14
1e-14
1e-14
1e-14
1e-14
1e-14
1e-14
1e-14
1.00048e-14
1.00035e-14
1.00081e-14
1e-14
1e-14
1e-14
1e-14
1e-14
1e-14
1.00004e-14
1.01361e-14
1.00109e-14
1.00127e-14
1e-14
1e-14
1e-14
1.0003e-14
1.00124e-14
1.00972e-14
1.00068e-14
1.00126e-14
1.00016e-14
1.01191e-14
1.01847e-14
1.00017e-14
1.00051e-14
1.00001e-14
1.00088e-14
1.0002e-14
1.0009e-14
1.0019e-14
1.00614e-14
1.00045e-14
1.0001e-14
1e-14
1e-14
1e-14
1e-14
1.00001e-14
1e-14
1e-14
1e-14
1e-14
1e-14
1e-14
1e-14
1e-14
1.00284e-14
1.00024e-14
1e-14
1.00001e-14
1.00001e-14
1.00001e-14
1e-14
1e-14
1e-14
1e-14
1e-14
1e-14
1e-14
1e-14
1e-14
1.0045e-14
1.00041e-14
1e-14
1.00001e-14
1.00001e-14
1.00001e-14
1e-14
1e-14
1e-14
1e-14
1e-14
1e-14
1e-14
1e-14
1e-14
1.00006e-14
1.00013e-14
1e-14
1.00001e-14
1.00001e-14
1e-14
1e-14
1e-14
1e-14
1e-14
1e-14
1e-14
1e-14
1e-14
1.00008e-14
1.00006e-14
1e-14
1.00001e-14
1e-14
1e-14
1e-14
1e-14
1e-14
1e-14
1e-14
1e-14
1e-14
1e-14
1e-14
1.00028e-14
1.00001e-14
1e-14
1e-14
1e-14
1e-14
1e-14
1e-14
1e-14
1e-14
1e-14
1e-14
1e-14
1e-14
1e-14
1.00196e-14
1.0002e-14
1e-14
1e-14
1e-14
1e-14
1e-14
1e-14
1e-14
1e-14
1e-14
1e-14
1e-14
1.00001e-14
1.00011e-14
1.00003e-14
1e-14
1e-14
1e-14
1e-14
1e-14
1e-14
1e-14
1e-14
1e-14
1e-14
1e-14
1.00268e-14
1.00021e-14
1e-14
1e-14
1e-14
1e-14
1e-14
1e-14
1e-14
1e-14
1e-14
1e-14
1.00006e-14
1.00015e-14
1.00002e-14
1e-14
1e-14
1e-14
1e-14
1e-14
1e-14
1e-14
1e-14
1e-14
1.00018e-14
1.00004e-14
1.00002e-14
1e-14
1e-14
1e-14
1e-14
1e-14
1e-14
1e-14
1e-14
1.00006e-14
1.00004e-14
1e-14
1e-14
1e-14
1e-14
1e-14
1e-14
1e-14
1.00001e-14
1.00268e-14
1.00015e-14
1.00002e-14
1e-14
1e-14
1e-14
1.00008e-14
1.00028e-14
1.00196e-14
1.00011e-14
1.00021e-14
1.00002e-14
1.00284e-14
1.0045e-14
1.00006e-14
1.00006e-14
1.00001e-14
1.0002e-14
1.00003e-14
1.00024e-14
1.00042e-14
1.00013e-14
1e-14
1e-14
1e-14
1e-14
1.00001e-14
1.00001e-14
1e-14
1.00001e-14
1e-14
1e-14
1e-14
1e-14
1e-14
1e-14
1e-14
1.00061e-14
1.00003e-14
1e-14
1.00001e-14
1.00001e-14
1.00001e-14
1e-14
1e-14
1e-14
1e-14
1e-14
1e-14
1e-14
1e-14
1e-14
1.00098e-14
1.00008e-14
1.00001e-14
1.00001e-14
1.00001e-14
1e-14
1e-14
1e-14
1e-14
1e-14
1e-14
1e-14
1e-14
1e-14
1e-14
1.00001e-14
1e-14
1.00001e-14
1.00001e-14
1e-14
1e-14
1e-14
1e-14
1e-14
1e-14
1e-14
1e-14
1e-14
1e-14
1.00002e-14
1.00001e-14
1e-14
1e-14
1e-14
1e-14
1e-14
1e-14
1e-14
1e-14
1e-14
1e-14
1e-14
1e-14
1e-14
1.00005e-14
1e-14
1e-14
1.00001e-14
1e-14
1e-14
1e-14
1e-14
1e-14
1e-14
1e-14
1e-14
1e-14
1e-14
1e-14
1.00035e-14
1.00004e-14
1e-14
1e-14
1e-14
1e-14
1e-14
1e-14
1e-14
1e-14
1e-14
1e-14
1e-14
1e-14
1.00001e-14
1e-14
1e-14
1e-14
1e-14
1e-14
1e-14
1e-14
1e-14
1e-14
1e-14
1e-14
1e-14
1.00045e-14
1.00007e-14
1e-14
1e-14
1e-14
1e-14
1e-14
1e-14
1e-14
1e-14
1e-14
1e-14
1.00001e-14
1.00002e-14
1e-14
1e-14
1e-14
1e-14
1e-14
1e-14
1e-14
1e-14
1e-14
1e-14
1.00003e-14
1e-14
1.00003e-14
1e-14
1e-14
1e-14
1e-14
1e-14
1e-14
1e-14
1e-14
1.00001e-14
1e-14
1e-14
1e-14
1e-14
1e-14
1e-14
1e-14
1e-14
1e-14
1.00045e-14
1.00002e-14
1.00003e-14
1e-14
1e-14
1e-14
1.00002e-14
1.00005e-14
1.00035e-14
1.00001e-14
1.00007e-14
1e-14
1.00061e-14
1.00098e-14
1.00001e-14
1.00001e-14
1e-14
1.00004e-14
1e-14
1.00003e-14
1.00008e-14
1e-14
1e-14
1e-14
1.00002e-14
1.00002e-14
1.00001e-14
1e-14
1e-14
1e-14
1e-14
1e-14
1e-14
1e-14
1e-14
1.00001e-14
1e-14
1.00011e-14
1e-14
1.00002e-14
1.00002e-14
1.00001e-14
1e-14
1e-14
1e-14
1e-14
1e-14
1e-14
1.00001e-14
1e-14
1e-14
1e-14
1.00019e-14
1.00001e-14
1.00001e-14
1.00001e-14
1e-14
1e-14
1e-14
1e-14
1e-14
1e-14
1e-14
1e-14
1e-14
1e-14
1e-14
1e-14
1e-14
1e-14
1e-14
1e-14
1e-14
1e-14
1e-14
1e-14
1e-14
1e-14
1e-14
1e-14
1e-14
1e-14
1e-14
1e-14
1e-14
1e-14
1e-14
1e-14
1e-14
1e-14
1e-14
1e-14
1e-14
1e-14
1e-14
1e-14
1.00001e-14
1e-14
1.00002e-14
1e-14
1e-14
1e-14
1e-14
1e-14
1e-14
1e-14
1e-14
1e-14
1e-14
1e-14
1e-14
1.00005e-14
1.00004e-14
1e-14
1e-14
1e-14
1e-14
1e-14
1e-14
1e-14
1e-14
1e-14
1.00001e-14
1e-14
1e-14
1e-14
1e-14
1e-14
1e-14
1e-14
1e-14
1e-14
1e-14
1e-14
1e-14
1e-14
1e-14
1e-14
1.00006e-14
1.00001e-14
1e-14
1e-14
1e-14
1e-14
1e-14
1e-14
1e-14
1e-14
1e-14
1e-14
1e-14
1.00001e-14
1.00001e-14
1e-14
1.00001e-14
1e-14
1e-14
1e-14
1e-14
1.00001e-14
1e-14
1e-14
1e-14
1e-14
1.00003e-14
1e-14
1e-14
1e-14
1e-14
1e-14
1e-14
1e-14
1e-14
1e-14
1e-14
1e-14
1.00001e-14
1e-14
1e-14
1e-14
1e-14
1e-14
1e-14
1.00006e-14
1.00001e-14
1.00002e-14
1e-14
1e-14
1e-14
1e-14
1.00001e-14
1.00005e-14
1e-14
1.00001e-14
1.00001e-14
1.00011e-14
1.00019e-14
1e-14
1e-14
1e-14
1.00004e-14
1.00001e-14
1e-14
1.00001e-14
1e-14
1e-14
1.00002e-14
1e-14
1.00002e-14
1.00001e-14
1.00001e-14
1e-14
1e-14
1e-14
1e-14
1.00001e-14
1.00001e-14
1.00002e-14
1.00001e-14
1e-14
1.00002e-14
1.00001e-14
1.00002e-14
1.00001e-14
1.00001e-14
1e-14
1e-14
1e-14
1e-14
1e-14
1.00001e-14
1.00001e-14
1e-14
1e-14
1e-14
1.00004e-14
1e-14
1.00001e-14
1.00001e-14
1e-14
1e-14
1e-14
1e-14
1e-14
1e-14
1.00001e-14
1e-14
1e-14
1e-14
1e-14
1e-14
1.00001e-14
1.00001e-14
1e-14
1e-14
1e-14
1e-14
1e-14
1e-14
1.00001e-14
1e-14
1e-14
1e-14
1e-14
1e-14
1e-14
1e-14
1e-14
1e-14
1e-14
1e-14
1e-14
1e-14
1e-14
1e-14
1e-14
1e-14
1e-14
1e-14
1e-14
1e-14
1.00002e-14
1e-14
1e-14
1e-14
1e-14
1e-14
1e-14
1e-14
1e-14
1e-14
1e-14
1e-14
1e-14
1e-14
1.00004e-14
1e-14
1e-14
1e-14
1e-14
1e-14
1e-14
1e-14
1e-14
1e-14
1.00001e-14
1e-14
1e-14
1.00004e-14
1e-14
1e-14
1e-14
1e-14
1.00001e-14
1e-14
1e-14
1e-14
1e-14
1e-14
1e-14
1e-14
1e-14
1.00005e-14
1.00001e-14
1.00001e-14
1.00001e-14
1e-14
1e-14
1e-14
1e-14
1e-14
1e-14
1e-14
1e-14
1e-14
1e-14
1.00001e-14
1.00001e-14
1e-14
1e-14
1e-14
1e-14
1.00001e-14
1e-14
1e-14
1e-14
1.00001e-14
1.00004e-14
1.00002e-14
1e-14
1e-14
1e-14
1e-14
1e-14
1e-14
1e-14
1e-14
1.00001e-14
1e-14
1e-14
1e-14
1e-14
1e-14
1e-14
1e-14
1e-14
1e-14
1e-14
1.00004e-14
1e-14
1e-14
1e-14
1e-14
1e-14
1e-14
1.00004e-14
1.00005e-14
1e-14
1.00002e-14
1.00004e-14
1e-14
1e-14
1e-14
1.00004e-14
1e-14
1.00002e-14
1e-14
1e-14
1e-14
1.00002e-14
1e-14
1.00002e-14
1.00001e-14
1.00001e-14
1e-14
1e-14
1e-14
1e-14
1e-14
1.00001e-14
1.00001e-14
1e-14
1e-14
1.00001e-14
1e-14
1.00002e-14
1.00002e-14
1e-14
1e-14
1e-14
1e-14
1e-14
1e-14
1.00001e-14
1e-14
1e-14
1e-14
1e-14
1.00001e-14
1.00001e-14
1.00001e-14
1e-14
1e-14
1e-14
1e-14
1e-14
1.00001e-14
1.00001e-14
1e-14
1e-14
1e-14
1e-14
1e-14
1e-14
1e-14
1.00001e-14
1e-14
1e-14
1e-14
1e-14
1.00001e-14
1.00001e-14
1e-14
1e-14
1e-14
1e-14
1e-14
1e-14
1e-14
1e-14
1e-14
1e-14
1e-14
1e-14
1.00001e-14
1e-14
1e-14
1e-14
1e-14
1e-14
1e-14
1e-14
1.00001e-14
1e-14
1e-14
1e-14
1e-14
1e-14
1.00001e-14
1e-14
1e-14
1e-14
1e-14
1e-14
1.00001e-14
1e-14
1e-14
1e-14
1.00005e-14
1e-14
1e-14
1.00001e-14
1.00001e-14
1e-14
1e-14
1e-14
1e-14
1e-14
1e-14
1e-14
1.00001e-14
1e-14
1e-14
1e-14
1e-14
1.00001e-14
1e-14
1e-14
1e-14
1e-14
1e-14
1e-14
1e-14
1e-14
1.00001e-14
1.00003e-14
1e-14
1.00001e-14
1e-14
1e-14
1e-14
1e-14
1e-14
1e-14
1e-14
1e-14
1.00001e-14
1e-14
1e-14
1.00001e-14
1e-14
1e-14
1e-14
1e-14
1.00001e-14
1e-14
1e-14
1e-14
1e-14
1.00001e-14
1.00002e-14
1.00001e-14
1e-14
1e-14
1e-14
1e-14
1e-14
1e-14
1e-14
1.00001e-14
1.00001e-14
1.00001e-14
1e-14
1e-14
1e-14
1e-14
1e-14
1e-14
1.00001e-14
1.00001e-14
1.00001e-14
1.00002e-14
1e-14
1e-14
1e-14
1e-14
1e-14
1e-14
1e-14
1.00003e-14
1e-14
1e-14
1e-14
1e-14
1e-14
1e-14
1.00005e-14
1e-14
1e-14
1.00001e-14
1e-14
1e-14
1e-14
3.97384e-14
7.34771e-13
4.4568e-14
7.84882e-13
5.45235e-14
8.28293e-13
7.61176e-14
1.35952e-13
1.841e-14
1.14369e-14
1.47524e-13
1.72659e-14
9.16159e-14
1.02119e-14
8.02114e-14
1.84339e-13
1.71321e-12
3.38829e-14
4.94592e-13
1.20831e-13
1.05597e-14
2.60348e-14
1.60764e-14
1.00906e-13
1.16361e-14
5.95968e-13
2.28574e-14
2.13868e-13
2.09291e-13
1.47653e-12
1.11242e-14
5.87017e-14
3.08962e-14
6.18399e-13
1e-14
1.87439e-13
1.54367e-12
1.29853e-12
1.70189e-13
1.36141e-12
1.35785e-12
1.11226e-14
3.08822e-14
5.86914e-14
6.18463e-13
1.87251e-13
1.2973e-12
1.54353e-12
1.05596e-14
1.60727e-14
2.60331e-14
1.00895e-13
2.28493e-14
2.0925e-13
2.13856e-13
1e-14
1.72647e-14
1.02119e-14
9.16099e-14
8.02083e-14
3.38814e-14
1.20826e-13
4.94585e-13
1.16368e-14
5.95954e-13
1.47653e-12
3.97324e-14
4.45172e-14
7.3507e-13
7.84794e-13
5.44989e-14
7.61267e-14
8.28214e-13
1.35959e-13
1.84094e-14
1.14367e-14
1.47529e-13
1.84332e-13
1.71322e-12
4.85324e-13
2.47484e-14
5.02884e-13
3.67221e-14
7.22037e-13
4.12015e-14
7.71779e-13
5.35734e-13
2.15505e-14
5.00374e-14
8.15279e-13
6.88224e-14
1e-14
1.22598e-13
1.65144e-14
1e-14
1.15884e-14
1.37898e-13
6.9321e-14
1.02884e-14
1e-14
1.5256e-14
8.31142e-14
1.02117e-14
7.43402e-14
1.46312e-12
1.76917e-13
1.69981e-12
3.32277e-13
4.91782e-14
3.14421e-14
4.89503e-13
1.13109e-13
1.10256e-14
1e-14
6.95561e-14
1.0339e-14
2.3602e-14
1.50379e-14
9.22941e-14
3.75553e-14
1.2746e-14
6.01506e-13
1e-14
7.46801e-14
2.16669e-14
2.0301e-13
1.93955e-13
1.46821e-12
2.86632e-14
1.32407e-14
3.9826e-13
1.06295e-14
5.52325e-14
2.7578e-14
6.06234e-13
1e-14
1.08049e-12
1.38389e-13
1.71667e-13
1.5227e-12
1.32709e-12
2.40328e-13
2.41008e-13
1.54781e-13
1.38386e-12
1.37994e-12
1.32497e-14
2.86608e-14
3.98264e-13
1.0628e-14
2.75566e-14
5.5225e-14
6.06271e-13
1.39858e-13
1.08064e-12
1.71498e-13
1.32582e-12
1.52259e-12
1e-14
1.10258e-14
6.95511e-14
1.03389e-14
1.50366e-14
2.36011e-14
9.22872e-14
7.47015e-14
1e-14
2.16697e-14
1.93931e-13
2.03014e-13
1e-14
1.02882e-14
6.93192e-14
1e-14
1.52549e-14
1.02117e-14
8.31093e-14
7.43358e-14
4.91752e-14
3.32281e-13
3.14408e-14
1.13104e-13
4.89501e-13
3.7586e-14
1.27458e-14
6.01508e-13
1.46822e-12
2.47314e-14
4.85639e-13
5.03041e-13
3.6719e-14
4.1158e-14
7.22342e-13
7.71715e-13
2.15494e-14
5.35857e-13
5.00168e-14
6.88329e-14
8.15219e-13
1e-14
1.22603e-13
1.65139e-14
1e-14
1.15877e-14
1.37902e-13
1.4631e-12
1.76915e-13
1.69983e-12
4.85292e-13
2.44587e-14
5.0341e-13
3.63249e-14
7.21114e-13
4.07907e-14
7.70605e-13
5.38004e-13
2.07271e-14
4.95707e-14
8.14601e-13
6.76901e-14
1e-14
1.20997e-13
1.63107e-14
1e-14
1.15018e-14
1.37703e-13
6.73748e-14
1.03603e-14
1e-14
1.48908e-14
8.19866e-14
1.01777e-14
7.25598e-14
1.45306e-12
1.77512e-13
1.70038e-12
3.34091e-13
4.78995e-14
3.11126e-14
4.89673e-13
1.12823e-13
1.07257e-14
1e-14
6.91086e-14
1.03126e-14
2.36556e-14
1.47128e-14
9.25614e-14
5.03579e-14
1.35118e-14
5.97879e-13
1e-14
7.82489e-14
2.14264e-14
2.06469e-13
1.93432e-13
1.46883e-12
2.8087e-14
1.26403e-14
4.00928e-13
1.06532e-14
5.57409e-14
2.6944e-14
6.06347e-13
1e-14
1.08377e-12
1.72129e-13
1.69781e-13
1.52525e-12
1.31693e-12
2.76182e-13
2.76829e-13
1.53599e-13
1.37418e-12
1.37034e-12
1.26478e-14
2.80848e-14
4.00923e-13
1.06515e-14
2.6923e-14
5.57344e-14
6.06378e-13
1.73545e-13
1.08386e-12
1.6962e-13
1.31573e-12
1.52516e-12
1e-14
1.0726e-14
6.91051e-14
1.03124e-14
1.47115e-14
2.36545e-14
9.25554e-14
7.82469e-14
1e-14
2.14269e-14
1.93415e-13
2.06473e-13
1e-14
1.03602e-14
6.7374e-14
1e-14
1.48898e-14
1.01777e-14
8.1982e-14
7.2559e-14
4.7897e-14
3.34098e-13
3.11116e-14
1.12819e-13
4.89666e-13
5.0385e-14
1.35114e-14
5.97883e-13
1.46886e-12
2.44445e-14
4.85603e-13
5.03568e-13
3.63239e-14
4.07572e-14
7.21414e-13
7.70571e-13
2.07267e-14
5.38117e-13
4.95561e-14
6.77043e-14
8.14567e-13
1e-14
1.21001e-13
1.63104e-14
1e-14
1.15014e-14
1.37707e-13
1.45306e-12
1.77511e-13
1.70037e-12
4.85862e-13
2.45611e-14
5.03865e-13
3.63931e-14
7.21029e-13
4.08818e-14
7.70553e-13
5.38831e-13
2.06302e-14
4.97011e-14
8.14711e-13
6.77318e-14
1e-14
1.21274e-13
1.62818e-14
1e-14
1.14741e-14
1.37569e-13
6.75237e-14
1.03743e-14
1e-14
1.48518e-14
8.20852e-14
1.01697e-14
7.21211e-14
1.44893e-12
1.77724e-13
1.70067e-12
3.34328e-13
4.8248e-14
3.11995e-14
4.90146e-13
1.13115e-13
1.0738e-14
1e-14
6.97188e-14
1.03014e-14
2.37771e-14
1.46491e-14
9.29364e-14
5.02344e-14
1.36435e-14
5.96281e-13
1e-14
7.96038e-14
2.14126e-14
2.08369e-13
1.93527e-13
1.46895e-12
2.82173e-14
1.24796e-14
4.01565e-13
1.06474e-14
5.59323e-14
2.69014e-14
6.06503e-13
1e-14
1.08297e-12
1.73323e-13
1.69654e-13
1.52561e-12
1.31468e-12
2.7792e-13
2.78594e-13
1.53551e-13
1.37183e-12
1.36799e-12
1.24874e-14
2.82158e-14
4.01553e-13
1.06456e-14
2.68806e-14
5.59261e-14
6.06531e-13
1.74751e-13
1.08307e-12
1.69493e-13
1.31346e-12
1.5255e-12
1e-14
1.07379e-14
6.9716e-14
1.03013e-14
1.4648e-14
2.37762e-14
9.29322e-14
7.9604e-14
1e-14
2.14122e-14
1.93514e-13
2.08375e-13
1e-14
1.03741e-14
6.75233e-14
1e-14
1.48507e-14
1.01696e-14
8.20801e-14
7.21195e-14
4.82455e-14
3.34333e-13
3.11985e-14
1.13111e-13
4.90143e-13
5.02605e-14
1.36439e-14
5.96283e-13
1.46894e-12
2.45482e-14
4.86168e-13
5.04042e-13
3.63994e-14
4.08774e-14
7.21351e-13
7.70591e-13
2.06319e-14
5.38948e-13
4.97042e-14
6.7754e-14
8.14729e-13
1e-14
1.21275e-13
1.62819e-14
1e-14
1.14741e-14
1.37572e-13
1.44895e-12
1.77723e-13
1.70068e-12
4.85604e-13
2.45542e-14
5.03617e-13
3.65016e-14
7.21126e-13
4.10344e-14
7.70783e-13
5.38585e-13
2.04143e-14
4.99582e-14
8.1487e-13
6.81326e-14
1e-14
1.21929e-13
1.62717e-14
1e-14
1.14914e-14
1.37298e-13
6.77177e-14
1.03672e-14
1e-14
1.48316e-14
8.2289e-14
1.01622e-14
7.1504e-14
1.44778e-12
1.77681e-13
1.70075e-12
3.34436e-13
4.81408e-14
3.12814e-14
4.90917e-13
1.13303e-13
1.07845e-14
1e-14
6.98536e-14
1.02862e-14
2.3853e-14
1.45813e-14
9.30262e-14
4.95811e-14
1.37579e-14
5.94991e-13
1e-14
7.96371e-14
2.14071e-14
2.1008e-13
1.93279e-13
1.4696e-12
2.827e-14
1.24559e-14
4.01806e-13
1.06354e-14
5.5942e-14
2.68887e-14
6.06499e-13
1e-14
1.08294e-12
1.73034e-13
1.69695e-13
1.52546e-12
1.31418e-12
2.77768e-13
2.78425e-13
1.53614e-13
1.37123e-12
1.3674e-12
1.24639e-14
2.82693e-14
4.0179e-13
1.06336e-14
2.68678e-14
5.59371e-14
6.06527e-13
1.74444e-13
1.08303e-12
1.69535e-13
1.31298e-12
1.52538e-12
1e-14
1.07845e-14
6.98511e-14
1.02861e-14
1.45804e-14
2.38522e-14
9.30225e-14
7.96397e-14
1e-14
2.14067e-14
1.93265e-13
2.10084e-13
1e-14
1.0367e-14
6.77165e-14
1e-14
1.48306e-14
1.0162e-14
8.22841e-14
7.14979e-14
4.81395e-14
3.34442e-13