/*--------------------------------*- C++ -*----------------------------------*\
| =========                 |                                                 |
| \\      /  F ield         | OpenFOAM: The Open Source CFD Toolbox           |
|  \\    /   O peration     | Version:  2.1.1                                 |
|   \\  /    A nd           | Web:      www.OpenFOAM.org                      |
|    \\/     M anipulation  |                                                 |
\*---------------------------------------------------------------------------*/
FoamFile
{
    version     2.0;
    format      ascii;
    class       volVectorField;
    location    "0.0045";
    object      U;
}
// * * * * * * * * * * * * * * * * * * * * * * * * * * * * * * * * * * * * * //

dimensions      [0 1 -1 0 0 0 0];

internalField   nonuniform List<vector> 
10314
(
(-2.24284e-05 -2.23945e-05 0.116087)
(-6.70122e-05 -2.15774e-05 0.116092)
(-0.000117246 -2.16806e-05 0.116118)
(-0.000171613 -2.08756e-05 0.116174)
(-0.000240947 -1.93953e-05 0.11627)
(-0.000315594 -1.75509e-05 0.11641)
(-0.000417665 -1.42996e-05 0.116596)
(-0.000508597 -8.67134e-06 0.116871)
(-0.000653973 -6.17998e-07 0.117176)
(-0.000746362 3.95282e-06 0.117585)
(-0.00101284 1.06119e-05 0.117781)
(-0.00100171 1.30244e-05 0.119496)
(-0.00110695 0.000167026 0.122424)
(-0.00032563 -0.0001293 0.0986354)
(0.00365999 0.000647274 0.0251577)
(-2.15983e-05 -6.70129e-05 0.116092)
(-6.59404e-05 -6.59333e-05 0.116103)
(-0.000115835 -6.83026e-05 0.116135)
(-0.000169968 -6.58384e-05 0.116193)
(-0.000237945 -7.22522e-05 0.116289)
(-0.00031018 -6.44581e-05 0.116427)
(-0.000408826 -8.39683e-05 0.116614)
(-0.000495699 -5.82431e-05 0.116878)
(-0.000642678 -0.0001246 0.117169)
(-0.000738381 -3.91575e-05 0.117566)
(-0.00102406 -0.000279532 0.118119)
(-0.000919071 6.75339e-05 0.12092)
(-0.00105546 -0.000262142 0.119673)
(-0.000137412 0.000639702 0.0786913)
(0.00345845 0.00210278 0.0256455)
(-2.17357e-05 -0.000117287 0.116119)
(-6.83028e-05 -0.00011587 0.116137)
(-0.00011717 -0.000117127 0.116178)
(-0.00017559 -0.000113873 0.11624)
(-0.000239582 -0.000115548 0.116345)
(-0.000327208 -0.000107976 0.116485)
(-0.000411404 -0.000115855 0.116694)
(-0.000551451 -8.9193e-05 0.116955)
(-0.000639539 -0.000120999 0.117319)
(-0.000897888 -2.71548e-05 0.117726)
(-0.000917867 -0.000213168 0.118875)
(-0.00112344 0.000147665 0.119777)
(0.000146958 -9.2804e-06 0.0952499)
(-0.00160566 -0.00173577 0.0337424)
(0.0064991 0.0062793 0.0182865)
(-2.09425e-05 -0.000171715 0.116175)
(-6.57691e-05 -0.000170084 0.116194)
(-0.000113847 -0.000175694 0.116241)
(-0.000168412 -0.000168602 0.116302)
(-0.00023201 -0.000172873 0.116409)
(-0.000310191 -0.000157959 0.116541)
(-0.000390198 -0.000162599 0.116745)
(-0.000505006 -0.000126475 0.116982)
(-0.000583932 -0.000119476 0.117304)
(-0.000794991 -4.61916e-05 0.117596)
(-0.000821438 -4.65609e-05 0.118811)
(-0.00102934 -7.53052e-05 0.120728)
(0.000155564 0.00025703 0.0959863)
(0.0020952 0.00133534 0.0271767)
(5.31615e-05 -0.000156608 0.00415942)
(-1.95696e-05 -0.00024099 0.11627)
(-7.22428e-05 -0.000238137 0.11629)
(-0.000115668 -0.000239657 0.116346)
(-0.000172783 -0.000232289 0.11641)
(-0.000228812 -0.000228983 0.116527)
(-0.000316447 -0.000225363 0.116658)
(-0.00038065 -0.000210569 0.116877)
(-0.000515918 -0.00020556 0.117108)
(-0.0005669 -0.000155971 0.117429)
(-0.000776166 -0.000140486 0.117623)
(-0.000842457 -0.00010529 0.119192)
(-0.000998703 -0.00010676 0.121929)
(-6.85687e-05 9.58968e-05 0.09734)
(0.00296409 -0.00181742 0.0304591)
(0.000252229 -0.000655877 0.00586466)
(-1.78178e-05 -0.00031575 0.11641)
(-6.44223e-05 -0.000310374 0.116428)
(-0.000108029 -0.000327479 0.116485)
(-0.000157875 -0.000310547 0.116541)
(-0.000225088 -0.000316882 0.116658)
(-0.000291621 -0.000292372 0.116787)
(-0.000372519 -0.000284499 0.117005)
(-0.000459173 -0.00023154 0.117211)
(-0.000521915 -0.000211925 0.117429)
(-0.000694367 -0.00016436 0.117838)
(-0.000706917 -1.62493e-05 0.120283)
(-0.000935406 -0.000200366 0.119302)
(-9.81847e-05 0.00066148 0.0804204)
(0.00330091 0.00103133 0.0276813)
(-1.47279e-05 -0.000417601 0.116596)
(-8.40737e-05 -0.000409347 0.116614)
(-0.000116136 -0.000411623 0.116694)
(-0.000162679 -0.000390793 0.116745)
(-0.000210802 -0.000381019 0.116877)
(-0.000284068 -0.000373446 0.117005)
(-0.00032179 -0.000322527 0.117226)
(-0.000444525 -0.000349681 0.117347)
(-0.000482772 -0.00023544 0.117647)
(-0.000558958 -0.000404704 0.118929)
(-0.000889427 -8.80429e-05 0.12018)
(0.000364671 -4.61704e-05 0.0940974)
(-0.00241681 -0.00210567 0.0351925)
(0.00073962 0.000582011 -0.00304744)
(-9.41204e-06 -0.000508757 0.116871)
(-5.84866e-05 -0.000496118 0.116878)
(-8.93219e-05 -0.000552069 0.116955)
(-0.000126552 -0.000505685 0.116982)
(-0.000205641 -0.000516666 0.117109)
(-0.000231139 -0.000460314 0.117211)
(-0.000348682 -0.000446194 0.117347)
(-0.000361645 -0.000363953 0.117514)
(-0.000550883 -0.000519728 0.118693)
(-0.000589619 -0.000112236 0.121716)
(-0.000536013 -0.000611197 0.118726)
(-2.10118e-05 0.000488776 0.0811165)
(0.00275362 0.000540914 0.0253617)
(0.000495528 0.000193374 0.00363877)
(-1.42368e-06 -0.000653257 0.117177)
(-0.000125157 -0.000643964 0.117169)
(-0.000121541 -0.000640311 0.117319)
(-0.0001197 -0.000585338 0.117304)
(-0.000156692 -0.000567827 0.11743)
(-0.000212336 -0.00052333 0.117431)
(-0.00023568 -0.00048439 0.11765)
(-0.00051821 -0.00055381 0.118698)
(-0.000250437 -0.000252499 0.121739)
(-0.000627513 -0.000529109 0.116791)
(0.000379394 0.000471047 0.0761164)
(-0.00421841 -0.00267038 0.0396856)
(-0.00144267 -0.000502842 -0.000742526)
(3.04068e-06 -0.000746064 0.117585)
(-4.08742e-05 -0.000739264 0.117566)
(-2.73908e-05 -0.000899058 0.117725)
(-4.64166e-05 -0.000796045 0.117596)
(-0.00014055 -0.000777752 0.117624)
(-0.000164528 -0.000695995 0.11784)
(-0.0004053 -0.000561194 0.118932)
(-0.00011166 -0.000592287 0.121723)
(-0.000527119 -0.000630836 0.116798)
(0.00026734 0.000266324 0.0753501)
(-0.000762331 -0.000555493 0.0349138)
(0.00491268 0.00591728 0.0165699)
(9.52311e-06 -0.0010115 0.117781)
(-0.000281575 -0.00102649 0.118118)
(-0.000213878 -0.00091924 0.118873)
(-4.7228e-05 -0.000822867 0.118811)
(-0.000106542 -0.000844123 0.119193)
(-1.7242e-05 -0.000708355 0.120285)
(-8.95762e-05 -0.000891319 0.120187)
(-0.00061142 -0.000538684 0.118743)
(0.000472252 0.000376753 0.0761389)
(-0.000556318 -0.000761178 0.0349261)
(0.0044905 0.00449049 0.0164749)
(1.19452e-05 -0.00100087 0.119492)
(6.29904e-05 -0.000920667 0.120918)
(0.000148413 -0.00112463 0.119773)
(-7.59512e-05 -0.0010301 0.120728)
(-0.000106937 -0.000999214 0.121929)
(-0.000200639 -0.000935993 0.119304)
(-4.76402e-05 0.000364298 0.0941028)
(0.000488649 -2.27989e-05 0.0811235)
(-0.00266846 -0.00421712 0.0396876)
(0.00591796 0.00491217 0.016576)
(0.000165235 -0.00110566 0.122418)
(-0.000266082 -0.00105905 0.119667)
(-9.74975e-06 0.000145737 0.0952477)
(0.000256881 0.000155299 0.0959869)
(9.47351e-05 -6.89062e-05 0.0973407)
(0.000662499 -9.80608e-05 0.0804217)
(-0.00210662 -0.00241667 0.0351901)
(0.000539019 0.00275431 0.0253569)
(-0.000501105 -0.00144232 -0.000742837)
(-0.00013161 -0.000325554 0.0986248)
(0.000636015 -0.00013793 0.0786815)
(-0.00173406 -0.00160676 0.0337406)
(0.00133703 0.00209446 0.0271755)
(-0.00181691 0.00296384 0.0304582)
(0.00103124 0.00330084 0.0276809)
(0.000581969 0.000739738 -0.0030474)
(0.000193024 0.000495836 0.00363837)
(0.000646065 0.00365999 0.0251528)
(0.00210391 0.00345721 0.0256371)
(0.00627941 0.00649932 0.0182862)
(-0.000156506 5.30429e-05 0.00415911)
(-0.000655998 0.000252146 0.00586438)
(-5.4189e-06 -5.36049e-06 0.116129)
(-1.4481e-05 -5.22744e-06 0.116136)
(-2.74292e-05 -5.24313e-06 0.116166)
(-3.95547e-05 -5.57468e-06 0.116226)
(-5.78263e-05 -4.61967e-06 0.116328)
(-7.60119e-05 -5.22466e-06 0.116474)
(-0.000102711 -3.02129e-06 0.11667)
(-0.000122973 -3.49951e-06 0.116947)
(-0.00015145 2.27938e-06 0.11727)
(-0.000150464 1.12582e-06 0.117693)
(-0.000225833 5.24887e-07 0.117993)
(-0.000215266 -2.11793e-05 0.119666)
(-0.000443444 2.73879e-05 0.122496)
(0.000148873 -0.000295026 0.0986405)
(0.00274688 0.000581096 0.0277518)
(-5.24604e-06 -1.44791e-05 0.116137)
(-1.42195e-05 -1.42533e-05 0.116148)
(-2.72178e-05 -1.57611e-05 0.116184)
(-3.91696e-05 -1.46335e-05 0.116245)
(-5.75883e-05 -1.84858e-05 0.116347)
(-7.41642e-05 -1.42749e-05 0.116492)
(-0.000100718 -2.56701e-05 0.116688)
(-0.000117549 -1.08883e-05 0.116956)
(-0.000146715 -4.8446e-05 0.11727)
(-0.000152485 8.10684e-06 0.117688)
(-0.00025885 -0.000140955 0.118338)
(-0.000247765 9.71276e-05 0.120996)
(-0.000602847 -0.000319819 0.11985)
(0.000283444 0.000648765 0.0788127)
(0.00250372 0.00193923 0.0282414)
(-5.31609e-06 -2.74128e-05 0.116167)
(-1.57644e-05 -2.72537e-05 0.116185)
(-2.78195e-05 -2.77865e-05 0.116229)
(-4.22971e-05 -2.80052e-05 0.116294)
(-5.75215e-05 -2.87242e-05 0.116406)
(-8.31814e-05 -2.83345e-05 0.116551)
(-9.88751e-05 -3.26557e-05 0.11677)
(-0.000145621 -2.57357e-05 0.117032)
(-0.000135065 -4.58902e-05 0.117414)
(-0.000246626 5.04901e-06 0.117838)
(-0.000159912 -9.95782e-05 0.118998)
(-0.000547378 0.000175667 0.119703)
(0.000514996 -9.79257e-05 0.0953257)
(-0.00192344 -0.00237429 0.037696)
(0.00578492 0.00570471 0.0201644)
(-5.63655e-06 -3.96214e-05 0.116227)
(-1.45859e-05 -3.92575e-05 0.116246)
(-2.79725e-05 -4.23761e-05 0.116295)
(-4.01323e-05 -4.02751e-05 0.116359)
(-5.79804e-05 -4.37565e-05 0.116472)
(-7.7934e-05 -3.78283e-05 0.116609)
(-9.73472e-05 -4.41233e-05 0.116819)
(-0.000131519 -3.21861e-05 0.117059)
(-0.000122798 -3.714e-05 0.117395)
(-0.000209622 -6.64755e-06 0.117726)
(-0.000117533 1.83803e-05 0.118962)
(-0.000513447 -5.00837e-05 0.120648)
(0.000576005 0.000204678 0.0960374)
(0.00170449 0.00106973 0.0296973)
(-5.21752e-05 -9.94649e-05 0.00456536)
(-4.76977e-06 -5.78427e-05 0.116328)
(-1.84955e-05 -5.7741e-05 0.116348)
(-2.88142e-05 -5.7585e-05 0.116407)
(-4.36844e-05 -5.82026e-05 0.116472)
(-5.50775e-05 -5.51934e-05 0.116597)
(-8.31041e-05 -6.08317e-05 0.116731)
(-9.20044e-05 -5.1882e-05 0.116956)
(-0.000140605 -6.82021e-05 0.117182)
(-0.000121583 -3.7397e-05 0.117512)
(-0.000192452 -6.04892e-05 0.117751)
(-0.000158195 -1.79644e-05 0.119357)
(-0.00043553 -0.000110983 0.121899)
(0.000338249 3.15118e-05 0.0973559)
(0.00225033 -0.00186783 0.0330329)
(0.000108122 -0.000630602 0.00614471)
(-5.44683e-06 -7.61549e-05 0.116474)
(-1.42729e-05 -7.43216e-05 0.116492)
(-2.83676e-05 -8.34344e-05 0.116551)
(-3.774e-05 -7.82264e-05 0.116609)
(-6.06089e-05 -8.34197e-05 0.116731)
(-7.41492e-05 -7.46547e-05 0.116861)
(-0.000104157 -8.02859e-05 0.11708)
(-0.000120922 -5.53896e-05 0.117278)
(-0.000127759 -5.68807e-05 0.117513)
(-0.000194957 -3.79367e-05 0.117986)
(-0.000152016 5.72675e-05 0.120486)
(-0.000558446 -0.000281026 0.119416)
(0.000183589 0.000594386 0.0805831)
(0.00242277 0.000537064 0.0301372)
(-3.3759e-06 -0.000102641 0.116671)
(-2.57878e-05 -0.000101184 0.116688)
(-3.28808e-05 -9.92024e-05 0.11677)
(-4.41162e-05 -9.78984e-05 0.11682)
(-5.19819e-05 -9.2372e-05 0.116956)
(-7.99748e-05 -0.000104848 0.117079)
(-7.35484e-05 -7.41563e-05 0.117298)
(-0.00012119 -0.00011024 0.117423)
(-0.000107739 -9.37957e-07 0.117752)
(-9.47546e-05 -0.000164984 0.119111)
(-0.000442595 0.000108519 0.120239)
(0.000670289 -0.000108401 0.0941201)
(-0.003095 -0.00256029 0.0393178)
(1.73903e-05 -3.58574e-05 -0.00141852)
(-4.08269e-06 -0.000123133 0.116947)
(-1.12793e-05 -0.000117872 0.116956)
(-2.58525e-05 -0.00014622 0.117032)
(-3.21418e-05 -0.000132196 0.11706)
(-6.81437e-05 -0.000141316 0.117183)
(-5.51495e-05 -0.000121636 0.117278)
(-0.000109531 -0.000122405 0.117423)
(-4.66901e-05 -4.80364e-05 0.117612)
(-0.000177014 -0.000194766 0.118864)
(-0.000135797 0.000188557 0.121853)
(-0.000320618 -0.0006268 0.118705)
(9.40624e-05 0.000604699 0.0813162)
(0.00203975 -8.3097e-05 0.0281388)
(0.000550766 0.000143724 0.00356974)
(1.59256e-06 -0.000150977 0.11727)
(-4.89959e-05 -0.000147731 0.117271)
(-4.64678e-05 -0.000135743 0.117415)
(-3.7254e-05 -0.00012398 0.117396)
(-3.75752e-05 -0.000122424 0.117513)
(-5.70744e-05 -0.000128983 0.117514)
(-7.86451e-07 -0.00010906 0.117755)
(-0.00019341 -0.000180279 0.118868)
(0.000138492 0.00013657 0.121886)
(-0.000409667 -0.000411653 0.116878)
(0.00064365 0.000598108 0.0761702)
(-0.00510232 -0.00341229 0.0438941)
(-0.00217909 -0.00108703 0.0009943)
(2.90613e-07 -0.000150193 0.117692)
(6.58383e-06 -0.000153206 0.117688)
(4.7815e-06 -0.000247853 0.117838)
(-6.75498e-06 -0.000210364 0.117727)
(-6.04763e-05 -0.000193649 0.117752)
(-3.81117e-05 -0.00019643 0.117989)
(-0.000166096 -9.64465e-05 0.119115)
(0.000189261 -0.000138459 0.121861)
(-0.000408795 -0.000413152 0.116885)
(0.000457054 0.000456716 0.0753634)
(-0.00120612 -0.00109075 0.038767)
(0.0044229 0.00541438 0.0182153)
(-4.62083e-07 -0.000225036 0.117992)
(-0.00014298 -0.000260864 0.118337)
(-0.000100145 -0.000161603 0.118997)
(1.83164e-05 -0.000118853 0.118961)
(-1.88497e-05 -0.000159694 0.119358)
(5.66228e-05 -0.000153246 0.120489)
(0.00010752 -0.000444089 0.120246)
(-0.000627648 -0.000321734 0.11872)
(0.000599166 0.000641896 0.0761928)
(-0.00109148 -0.00120399 0.0387811)
(0.00406125 0.00406465 0.0182206)
(-2.19245e-05 -0.000215252 0.119662)
(9.30748e-05 -0.000249231 0.120994)
(0.000176085 -0.00054851 0.1197)
(-5.00303e-05 -0.000514307 0.120647)
(-0.00011094 -0.000436317 0.1219)
(-0.000281304 -0.00055919 0.119418)
(-0.00010948 0.000670035 0.0941257)
(0.00060476 9.3929e-05 0.0813227)
(-0.00340908 -0.00510069 0.0438964)
(0.00541417 0.00442119 0.0182211)
(2.4927e-05 -0.000444064 0.12249)
(-0.000323031 -0.000607255 0.119844)
(-9.87299e-05 0.000513747 0.0953247)
(0.000204672 0.000575864 0.0960374)
(3.0659e-05 0.000338013 0.0973564)
(0.000594745 0.000183647 0.0805845)
(-0.00256034 -0.00309471 0.0393167)
(-8.36879e-05 0.00203956 0.0281377)
(-0.00108711 -0.00217874 0.000994982)
(-0.000299916 0.00014816 0.0986299)
(0.000645653 0.000282073 0.0788009)
(-0.00237276 -0.00192439 0.0376949)
(0.00107082 0.00170389 0.0296964)
(-0.00186751 0.00225024 0.0330322)
(0.000536942 0.00242265 0.0301367)
(-3.60775e-05 1.74572e-05 -0.00141845)
(0.000143543 0.000550912 0.00356965)
(0.000579522 0.00274622 0.0277455)
(0.00193967 0.00250246 0.0282338)
(0.00570453 0.00578531 0.020164)
(-9.94086e-05 -5.22618e-05 0.0045652)
(-0.000630682 0.00010815 0.0061445)
(1.12454e-05 1.13545e-05 0.11612)
(3.88329e-05 1.1265e-05 0.116127)
(6.38042e-05 1.12593e-05 0.116157)
(9.46419e-05 9.85269e-06 0.116216)
(0.00012719 1.01375e-05 0.116317)
(0.000166253 7.0824e-06 0.116462)
(0.000212498 7.86052e-06 0.116658)
(0.000261775 1.6717e-06 0.116926)
(0.000328372 4.96711e-06 0.117243)
(0.000390057 -5.39276e-06 0.117647)
(0.000469041 3.73588e-06 0.117987)
(0.000478531 -3.36156e-05 0.119712)
(0.000306453 5.78188e-05 0.122469)
(0.000114107 -0.000331577 0.0986847)
(0.00257638 0.000565482 0.028528)
(1.12452e-05 3.88381e-05 0.116127)
(3.84845e-05 3.84141e-05 0.116139)
(6.27752e-05 3.80578e-05 0.116174)
(9.36104e-05 3.74805e-05 0.116234)
(0.000124529 3.61459e-05 0.116337)
(0.000164059 3.62114e-05 0.116479)
(0.000207253 3.25424e-05 0.116675)
(0.000259106 3.52696e-05 0.116935)
(0.000322239 2.41801e-05 0.117248)
(0.000392178 4.12121e-05 0.117653)
(0.000439883 -1.17606e-05 0.11836)
(0.000496719 0.000109593 0.121007)
(0.000107293 -5.96385e-05 0.119845)
(0.00031527 0.00043033 0.0789428)
(0.00235017 0.00189082 0.0288861)
(1.11728e-05 6.38661e-05 0.116158)
(3.80528e-05 6.27441e-05 0.116175)
(6.28693e-05 6.29087e-05 0.11622)
(9.27357e-05 5.87833e-05 0.116284)
(0.000125885 5.86975e-05 0.116396)
(0.000162549 5.14529e-05 0.116538)
(0.000211672 4.98494e-05 0.116757)
(0.000254471 3.74586e-05 0.117009)
(0.000336323 2.42831e-05 0.117395)
(0.000357405 1.74816e-05 0.117803)
(0.000514234 -4.38059e-05 0.119031)
(0.000239826 0.000112791 0.11961)
(0.000730014 4.39512e-05 0.0954681)
(-0.00186894 -0.00258385 0.0384526)
(0.00565594 0.00567168 0.0206008)
(9.80459e-06 9.46028e-05 0.116216)
(3.75288e-05 9.35355e-05 0.116236)
(5.88163e-05 9.26814e-05 0.116285)
(8.94009e-05 8.92853e-05 0.116348)
(0.000117126 8.65234e-05 0.116461)
(0.0001551 8.25587e-05 0.116595)
(0.00019363 7.46977e-05 0.116805)
(0.000235041 6.5119e-05 0.117037)
(0.000302319 4.59065e-05 0.117371)
(0.000316663 1.80036e-05 0.117693)
(0.000448808 1.3632e-05 0.119002)
(0.000121199 -0.000115132 0.120552)
(0.000630997 0.000132519 0.0961256)
(0.00166674 0.0009225 0.0303631)
(-9.63267e-05 -9.41183e-05 0.00464643)
(1.00042e-05 0.000127207 0.116317)
(3.61289e-05 0.000124411 0.116337)
(5.86194e-05 0.000125843 0.116397)
(8.65751e-05 0.000116947 0.116461)
(0.000119073 0.000118992 0.116586)
(0.000150672 0.000103479 0.116719)
(0.000195124 0.00010798 0.116946)
(0.000227669 7.31825e-05 0.117161)
(0.000287676 8.31486e-05 0.117486)
(0.000319778 1.03863e-05 0.117715)
(0.000369026 2.09875e-05 0.119406)
(0.000165599 -7.69824e-05 0.121845)
(0.000279336 -1.60051e-05 0.0974475)
(0.0021348 -0.00192917 0.0336785)
(6.91252e-05 -0.00062832 0.00622924)
(6.89202e-06 0.000166139 0.116462)
(3.62028e-05 0.000163942 0.116479)
(5.14281e-05 0.000162373 0.116538)
(8.2638e-05 0.000154871 0.116596)
(0.000103659 0.000150444 0.116719)
(0.000144234 0.000143884 0.11685)
(0.000164422 0.000125884 0.117068)
(0.000211944 0.000123364 0.117256)
(0.000237628 8.04579e-05 0.117485)
(0.000245833 6.60413e-05 0.117963)
(0.000328076 5.83932e-05 0.120542)
(-0.000114118 -0.000195976 0.119413)
(0.000114762 0.000276035 0.0806485)
(0.00231179 0.000406009 0.0306986)
(7.53254e-06 0.000212511 0.116658)
(3.24661e-05 0.000206918 0.116675)
(4.96593e-05 0.000211463 0.116758)
(7.46994e-05 0.000193167 0.116806)
(0.000107946 0.000194777 0.116946)
(0.000126113 0.000163817 0.117068)
(0.000175027 0.000174479 0.117282)
(0.00018221 0.000112248 0.117399)
(0.000228396 0.00018685 0.117727)
(0.000268131 -2.09879e-06 0.119123)
(1.8185e-07 0.000215246 0.120224)
(0.0007028 3.12171e-05 0.094132)
(-0.00304256 -0.00272459 0.0400397)
(-0.000131668 -9.93739e-05 -0.00120949)
(1.16593e-06 0.000261573 0.116926)
(3.50428e-05 0.000258876 0.116936)
(3.73077e-05 0.000254147 0.11701)
(6.50653e-05 0.000234542 0.117038)
(7.32184e-05 0.000227084 0.117162)
(0.000123489 0.000211249 0.117256)
(0.000112829 0.000181347 0.117399)
(0.000223487 0.00022266 0.117591)
(0.000114967 4.72053e-05 0.118871)
(0.000188827 0.000370885 0.121897)
(-1.67122e-05 -0.000538215 0.118641)
(-1.8579e-05 0.000450813 0.0813722)
(0.00200476 -0.000201901 0.0286997)
(0.000583814 0.000163604 0.00355422)
(4.32871e-06 0.000328531 0.117244)
(2.39845e-05 0.000321494 0.117248)
(2.38215e-05 0.000335877 0.117396)
(4.56456e-05 0.000301344 0.117373)
(8.28953e-05 0.000286883 0.117488)
(8.03717e-05 0.000236605 0.117487)
(0.000187291 0.000227468 0.11773)
(4.81904e-05 0.000113211 0.118875)
(0.000382734 0.000380983 0.121925)
(-0.000199424 -0.000290464 0.116822)
(0.000650579 0.000499846 0.0762562)
(-0.00515588 -0.00359799 0.0445423)
(-0.00230837 -0.00120113 0.00123825)
(-6.31752e-06 0.000390353 0.117647)
(4.03927e-05 0.000391654 0.117653)
(1.7103e-05 0.000356326 0.117804)
(1.76074e-05 0.000315835 0.117694)
(1.03596e-05 0.000318763 0.117716)
(6.60256e-05 0.000244875 0.117965)
(-2.09801e-06 0.000266978 0.119127)
(0.000371278 0.000187191 0.121905)
(-0.000288587 -0.000201852 0.116828)
(0.000402405 0.000402267 0.0754593)
(-0.00130107 -0.00123665 0.0393948)
(0.00434299 0.00535961 0.0186141)
(2.58033e-06 0.00046941 0.117987)
(-1.32964e-05 0.000438881 0.11836)
(-4.4532e-05 0.000511925 0.119031)
(1.3471e-05 0.000447595 0.119001)
(2.06185e-05 0.000367723 0.119407)
(5.81884e-05 0.000327018 0.120545)
(0.000215111 -9.19343e-07 0.120232)
(-0.000538584 -1.79858e-05 0.118656)
(0.000500492 0.000649592 0.0762781)
(-0.00123737 -0.00129923 0.0394093)
(0.00399559 0.00399937 0.0186269)
(-3.48541e-05 0.000478199 0.119709)
(0.000106139 0.000495079 0.121005)
(0.000112258 0.000238255 0.119609)
(-0.000114458 0.00012052 0.120552)
(-7.68409e-05 0.000164714 0.121846)
(-0.00019588 -0.000114842 0.119416)
(3.08244e-05 0.000702472 0.0941375)
(0.000451061 -1.863e-05 0.0813781)
(-0.00359471 -0.00515459 0.0445448)
(0.00535947 0.00434143 0.01862)
(5.42914e-05 0.000304304 0.122465)
(-6.24254e-05 0.000100349 0.119839)
(4.33304e-05 0.000728183 0.0954671)
(0.000132792 0.000630675 0.0961257)
(-1.64556e-05 0.000279096 0.097448)
(0.000276345 0.000114839 0.0806498)
(-0.00272446 -0.00304233 0.040039)
(-0.000202137 0.00200466 0.0286993)
(-0.00120106 -0.00230805 0.00123898)
(-0.000340254 0.000111791 0.0986757)
(0.000427097 0.000312088 0.078931)
(-0.00258267 -0.00186953 0.0384512)
(0.000923224 0.0016661 0.0303624)
(-0.00192908 0.00213485 0.0336778)
(0.000405857 0.00231173 0.0306982)
(-9.95772e-05 -0.000131667 -0.00120937)
(0.000163412 0.000583966 0.00355417)
(0.000565608 0.00257489 0.0285206)
(0.00188783 0.00234693 0.0288789)
(0.00567064 0.00565562 0.0206003)
(-9.41458e-05 -9.64274e-05 0.00464627)
(-0.000628326 6.90881e-05 0.00622911)
(2.76201e-05 2.77732e-05 0.116059)
(9.10117e-05 2.7513e-05 0.116065)
(0.000152983 2.73759e-05 0.116092)
(0.000226169 2.49924e-05 0.116148)
(0.000308243 2.46469e-05 0.116244)
(0.000403691 1.91545e-05 0.116383)
(0.000522024 1.85343e-05 0.116573)
(0.000645583 6.8067e-06 0.116835)
(0.00081399 8.57878e-06 0.117148)
(0.000937094 -1.34732e-05 0.117551)
(0.00115813 5.3686e-06 0.117908)
(0.00113286 -4.9191e-05 0.119745)
(0.00115373 0.000118014 0.122562)
(0.000212571 -0.000279961 0.0990072)
(0.00254171 0.000580229 0.0287232)
(2.74895e-05 9.1015e-05 0.116065)
(9.01702e-05 9.00671e-05 0.116076)
(0.000150783 9.09637e-05 0.116109)
(0.000223531 8.86579e-05 0.116166)
(0.000302575 8.99496e-05 0.116263)
(0.000397695 8.59104e-05 0.116399)
(0.000509879 9.10336e-05 0.116589)
(0.00063543 8.18891e-05 0.116843)
(0.000793949 0.000103427 0.117154)
(0.000939068 7.08338e-05 0.117561)
(0.00112887 0.000124299 0.118301)
(0.00122443 7.08241e-05 0.121064)
(0.000991047 0.000324248 0.119963)
(0.000483762 0.000344476 0.0793643)
(0.00231105 0.00190033 0.0290817)
(2.72844e-05 0.000153084 0.116093)
(9.09632e-05 0.00015076 0.11611)
(0.000151578 0.000151635 0.116152)
(0.000225175 0.000143809 0.116213)
(0.000305512 0.000144659 0.11632)
(0.000404736 0.00013022 0.116457)
(0.000517784 0.000131984 0.116672)
(0.000658358 0.0001016 0.11692)
(0.000806179 0.000101368 0.117317)
(0.000970786 3.23102e-05 0.117725)
(0.00115076 8.08808e-06 0.119072)
(0.00110413 -2.80516e-05 0.119694)
(0.00111598 0.000217199 0.0958936)
(-0.00173343 -0.0028267 0.0387295)
(0.00563228 0.00571357 0.0207598)
(2.49616e-05 0.000226155 0.116148)
(8.87201e-05 0.000223456 0.116167)
(0.000143839 0.000225145 0.116214)
(0.000216581 0.000216481 0.116274)
(0.000288985 0.000214905 0.116382)
(0.000384914 0.000201314 0.116512)
(0.000480977 0.000192465 0.116719)
(0.000605614 0.000164125 0.116946)
(0.000728698 0.000137029 0.117288)
(0.000852378 5.79055e-05 0.117603)
(0.000983864 1.04097e-05 0.119003)
(0.000820813 -0.000211031 0.120594)
(0.000831114 2.9331e-05 0.096358)
(0.00173516 0.000807106 0.0305569)
(-0.00011396 -0.000105488 0.00466924)
(2.45307e-05 0.000308295 0.116244)
(8.9933e-05 0.000302483 0.116264)
(0.000144584 0.000305491 0.116321)
(0.000214936 0.000288835 0.116382)
(0.000290305 0.000290233 0.116503)
(0.000382064 0.000265732 0.116632)
(0.000480313 0.000267377 0.116858)
(0.0006039 0.000220011 0.117071)
(0.000704005 0.000216687 0.117407)
(0.000855337 0.000100382 0.117627)
(0.000875364 6.64435e-05 0.119434)
(0.000846138 -6.46283e-05 0.121904)
(0.000363694 -7.70756e-05 0.0977165)
(0.00214972 -0.00196582 0.0338647)
(5.81011e-05 -0.000623169 0.00625577)
(1.89975e-05 0.000403628 0.116383)
(8.59021e-05 0.000397608 0.116399)
(0.000130196 0.000404613 0.116457)
(0.000201367 0.000384738 0.116512)
(0.000265883 0.000381894 0.116632)
(0.000361921 0.000361652 0.116763)
(0.000435286 0.000334956 0.116982)
(0.000556792 0.000315098 0.117172)
(0.000614728 0.000230455 0.117409)
(0.00071214 0.000182928 0.117887)
(0.000791325 2.3116e-05 0.120574)
(0.00039758 -0.000115726 0.119444)
(0.000180557 2.89678e-05 0.0807776)
(0.00229799 0.000360745 0.0308222)
(1.82388e-05 0.000522036 0.116574)
(9.09614e-05 0.000509634 0.11659)
(0.000131821 0.000517644 0.116673)
(0.000192454 0.00048057 0.11672)
(0.000267366 0.000479995 0.116859)
(0.00033513 0.000434743 0.116982)
(0.000434189 0.000433606 0.117198)
(0.000501884 0.00035632 0.117318)
(0.000578531 0.000382602 0.117662)
(0.000631919 0.000170873 0.119083)
(0.000430639 0.000267474 0.120285)
(0.000843716 0.000165974 0.0941704)
(-0.00286328 -0.00287457 0.0401644)
(-0.000173793 -8.47481e-05 -0.00120185)
(6.34682e-06 0.000645481 0.116836)
(8.17331e-05 0.000635276 0.116844)
(0.000101414 0.000658121 0.11692)
(0.000164012 0.000605202 0.116947)
(0.000220046 0.000603435 0.117072)
(0.000315108 0.000556242 0.117172)
(0.000356845 0.000501201 0.117318)
(0.00050735 0.000506684 0.11753)
(0.00042465 0.000295902 0.118827)
(0.000508362 0.00051915 0.121942)
(0.000308663 -0.000401084 0.118704)
(5.86456e-06 0.000398514 0.0814485)
(0.00203619 -0.000223033 0.028769)
(0.000581975 0.000179834 0.0035485)
(7.90176e-06 0.000814176 0.117149)
(0.000103223 0.000793335 0.117155)
(0.000100942 0.000805824 0.117318)
(0.00013679 0.000727815 0.117289)
(0.000216543 0.00070331 0.117409)
(0.0002304 0.000613845 0.117411)
(0.000383035 0.00057767 0.117665)
(0.000296628 0.000423412 0.11883)
(0.000593573 0.000591885 0.121965)
(2.80154e-05 -0.000141633 0.116878)
(0.000715149 0.000469567 0.0763543)
(-0.00510635 -0.00367875 0.0446326)
(-0.00232147 -0.00121766 0.00124088)
(-1.44772e-05 0.000937238 0.117551)
(7.01435e-05 0.000938731 0.117562)
(3.18455e-05 0.000970111 0.117725)
(5.74453e-05 0.000851677 0.117604)
(0.000100407 0.000854506 0.117629)
(0.000182751 0.00071146 0.11789)
(0.000171079 0.000631181 0.119088)
(0.000519285 0.000507538 0.121949)
(-0.000140225 2.66891e-05 0.116884)
(0.000425813 0.000426081 0.0755453)
(-0.00130935 -0.00129649 0.0395002)
(0.00433282 0.00536306 0.0186924)
(4.0768e-06 0.00115839 0.117908)
(0.000123304 0.00112764 0.118301)
(7.32601e-06 0.00114914 0.119073)
(1.0035e-05 0.000982929 0.119003)
(6.63178e-05 0.000874308 0.119436)
(2.31527e-05 0.000790516 0.120577)
(0.000267802 0.000430043 0.120292)
(-0.000401012 0.000307736 0.118717)
(0.000469955 0.00071472 0.0763757)
(-0.00129709 -0.00130768 0.0395148)
(0.00399442 0.00399815 0.0187072)
(-5.13153e-05 0.00113361 0.119744)
(6.83565e-05 0.00122267 0.121062)
(-2.81171e-05 0.00110184 0.119694)
(-0.00021083 0.000820396 0.120593)
(-6.44325e-05 0.000845151 0.121905)
(-0.000115477 0.000396914 0.119447)
(0.000165887 0.00084338 0.0941756)
(0.000398889 5.75118e-06 0.0814537)
(-0.00367543 -0.00510523 0.0446351)
(0.00536293 0.00433153 0.0186983)
(0.000114757 0.00115208 0.12256)
(0.000320304 0.000983768 0.11996)
(0.000217042 0.00111336 0.095893)
(3.01678e-05 0.000830716 0.096358)
(-7.73881e-05 0.000363427 0.0977171)
(2.94715e-05 0.000180634 0.0807787)
(-0.00287434 -0.00286302 0.040164)
(-0.000223133 0.00203608 0.0287688)
(-0.00121752 -0.00232123 0.00124175)
(-0.000290305 0.000210387 0.099003)
(0.000340405 0.000479301 0.079356)
(-0.00282565 -0.00173323 0.0387277)
(0.000807457 0.00173452 0.030556)
(-0.00196587 0.00214973 0.0338641)
(0.000360582 0.00229779 0.0308219)
(-8.48588e-05 -0.000173726 -0.00120171)
(0.000179762 0.000582124 0.0035485)
(0.000584175 0.0025423 0.0287204)
(0.0018932 0.00230401 0.0290757)
(0.00571158 0.00563059 0.020759)
(-0.000105525 -0.00011406 0.00466904)
(-0.000623152 5.80394e-05 0.00625562)
(4.31508e-05 4.33359e-05 0.115949)
(0.000140008 4.28308e-05 0.115952)
(0.000237255 4.26214e-05 0.115975)
(0.000350849 3.92886e-05 0.116024)
(0.00048054 3.83752e-05 0.116111)
(0.000630941 3.08503e-05 0.116238)
(0.000822158 2.94658e-05 0.116415)
(0.00102522 1.27401e-05 0.116668)
(0.00131613 1.38817e-05 0.116973)
(0.00152694 -1.97398e-05 0.117393)
(0.00195369 9.96985e-06 0.117756)
(0.00191311 -5.52758e-05 0.119755)
(0.0023273 0.000211006 0.122634)
(0.000459565 -4.90945e-05 0.0997066)
(0.00253704 0.000656196 0.0288816)
(4.2805e-05 0.000140005 0.115953)
(0.000138948 0.000138816 0.115961)
(0.00023406 0.00014103 0.115989)
(0.000346733 0.000137214 0.11604)
(0.000472246 0.000141447 0.116128)
(0.00062219 0.000134223 0.116254)
(0.000804252 0.000150294 0.116432)
(0.00100925 0.000131341 0.116677)
(0.00128301 0.00019728 0.116982)
(0.00152814 0.000119408 0.117404)
(0.00193022 0.00034478 0.11816)
(0.00210716 8.70953e-05 0.121102)
(0.00236525 0.00103287 0.120092)
(0.000858563 0.000474367 0.0803888)
(0.00229885 0.00198345 0.0293269)
(4.2537e-05 0.000237394 0.115976)
(0.000141038 0.000234042 0.115991)
(0.000235663 0.000235746 0.116028)
(0.000351289 0.000224838 0.116082)
(0.000477586 0.000227167 0.11618)
(0.00063988 0.000206848 0.116308)
(0.000819159 0.000213759 0.116514)
(0.0010721 0.000166857 0.116759)
(0.0013062 0.000189859 0.117172)
(0.00169211 5.94325e-05 0.117608)
(0.00193233 0.000108522 0.119127)
(0.00234368 -0.000184001 0.119895)
(0.00193241 0.000522025 0.0968476)
(-0.00152224 -0.00314452 0.0391461)
(0.00565622 0.0058546 0.0209949)
(3.92751e-05 0.000350867 0.116024)
(0.000137295 0.000346649 0.116041)
(0.000224868 0.000351282 0.116083)
(0.000338185 0.00033809 0.116138)
(0.000454293 0.000338329 0.116237)
(0.000608843 0.000316505 0.11636)
(0.000763959 0.00030763 0.116558)
(0.000985081 0.000261162 0.116782)
(0.00117859 0.000230871 0.117135)
(0.00146226 0.0001039 0.117458)
(0.00162015 7.72299e-06 0.118962)
(0.00176718 -0.000339406 0.120634)
(0.00133669 -0.00016974 0.0968172)
(0.0019512 0.000592533 0.0308223)
(-0.000121836 -0.000121972 0.00473363)
(3.82765e-05 0.000480638 0.116111)
(0.000141429 0.000472179 0.116128)
(0.000227085 0.000477588 0.116181)
(0.000338341 0.000454166 0.116238)
(0.000456024 0.000455923 0.116349)
(0.000609113 0.000424849 0.116471)
(0.00076318 0.000425211 0.116689)
(0.000994225 0.00037059 0.116902)
(0.00115085 0.000361155 0.117255)
(0.00148787 0.000213476 0.117484)
(0.00149974 0.000149337 0.119428)
(0.00180048 -4.62019e-05 0.121986)
(0.000666903 -0.000118131 0.0982791)
(0.00225993 -0.00204535 0.0341551)
(4.80239e-05 -0.00061414 0.00631101)
(3.07272e-05 0.000630944 0.116239)
(0.000134211 0.000622129 0.116254)
(0.000206824 0.000639801 0.116308)
(0.000316508 0.000608726 0.11636)