/*--------------------------------*- C++ -*----------------------------------*\
| =========                 |                                                 |
| \\      /  F ield         | OpenFOAM: The Open Source CFD Toolbox           |
|  \\    /   O peration     | Version:  2.1.1                                 |
|   \\  /    A nd           | Web:      www.OpenFOAM.org                      |
|    \\/     M anipulation  |                                                 |
\*---------------------------------------------------------------------------*/
FoamFile
{
    version     2.0;
    format      ascii;
    class       volScalarField;
    location    "0.001";
    object      Th;
}
// * * * * * * * * * * * * * * * * * * * * * * * * * * * * * * * * * * * * * //

dimensions      [0 0 0 0 0 0 0];

internalField   nonuniform List<scalar> 
10154
(
1.47164e-13
1e-14
1.0309e-14
1.00042e-14
1.00104e-14
1.00033e-14
1.00279e-14
1.00198e-14
1e-14
1.00001e-14
1e-14
1e-14
1e-14
1.23406e-13
1.00138e-14
1.00001e-14
1e-14
1e-14
1e-14
1e-14
1e-14
1e-14
1e-14
1e-14
1e-14
1e-14
1e-14
1e-14
1e-14
1e-14
1e-14
1e-14
1e-14
1e-14
1e-14
1e-14
1e-14
1e-14
1e-14
1e-14
1e-14
1e-14
1e-14
1.23403e-13
1e-14
1e-14
1.00001e-14
1e-14
1e-14
1e-14
1e-14
1e-14
1e-14
1e-14
1e-14
1.00138e-14
1e-14
1e-14
1e-14
1e-14
1e-14
1e-14
1e-14
1e-14
1e-14
1e-14
1e-14
1.00279e-14
1.00001e-14
1e-14
1e-14
1e-14
1e-14
1e-14
1e-14
1e-14
1e-14
1e-14
1e-14
1e-14
1.00198e-14
1e-14
1e-14
1e-14
1e-14
1e-14
1e-14
1e-14
1e-14
1e-14
1e-14
1e-14
1e-14
1e-14
1e-14
1e-14
1e-14
1e-14
1e-14
1e-14
1e-14
1e-14
1e-14
1e-14
1e-14
1e-14
1e-14
1.0309e-14
1.00001e-14
1e-14
1e-14
1e-14
1e-14
1e-14
1e-14
1e-14
1e-14
1e-14
1.00001e-14
1e-14
1e-14
1.00042e-14
1e-14
1e-14
1e-14
1e-14
1e-14
1e-14
1e-14
1e-14
1e-14
1.00001e-14
1.00001e-14
1e-14
1e-14
1.00104e-14
1e-14
1e-14
1e-14
1e-14
1e-14
1e-14
1e-14
1e-14
1e-14
1e-14
1e-14
1e-14
1e-14
1.47159e-13
1.00032e-14
1e-14
1e-14
1e-14
1e-14
1e-14
1e-14
1e-14
1e-14
1e-14
1e-14
1e-14
1e-14
1e-14
1.47559e-13
1e-14
1.03007e-14
1.00042e-14
1.00093e-14
1.00029e-14
1.00961e-14
1.00185e-14
1e-14
1.00001e-14
1e-14
1e-14
1.00001e-14
1.24013e-13
1.00132e-14
1e-14
1e-14
1e-14
1e-14
1e-14
1e-14
1e-14
1e-14
1e-14
1e-14
1e-14
1e-14
1e-14
1e-14
1e-14
1e-14
1e-14
1e-14
1e-14
1e-14
1e-14
1e-14
1e-14
1e-14
1e-14
1e-14
1e-14
1e-14
1.24009e-13
1e-14
1e-14
1e-14
1e-14
1e-14
1e-14
1e-14
1e-14
1e-14
1e-14
1e-14
1.00132e-14
1e-14
1e-14
1e-14
1e-14
1e-14
1e-14
1e-14
1e-14
1e-14
1e-14
1e-14
1.00961e-14
1e-14
1e-14
1e-14
1e-14
1e-14
1e-14
1e-14
1e-14
1e-14
1e-14
1e-14
1e-14
1.00185e-14
1e-14
1e-14
1e-14
1e-14
1e-14
1e-14
1e-14
1e-14
1e-14
1e-14
1e-14
1e-14
1e-14
1e-14
1e-14
1e-14
1e-14
1e-14
1e-14
1e-14
1e-14
1e-14
1e-14
1e-14
1e-14
1e-14
1.03007e-14
1.00001e-14
1e-14
1e-14
1e-14
1e-14
1e-14
1e-14
1e-14
1e-14
1e-14
1e-14
1e-14
1e-14
1.00042e-14
1e-14
1e-14
1e-14
1e-14
1e-14
1e-14
1e-14
1e-14
1e-14
1e-14
1e-14
1e-14
1e-14
1.00093e-14
1e-14
1e-14
1e-14
1e-14
1e-14
1e-14
1e-14
1e-14
1e-14
1e-14
1e-14
1e-14
1e-14
1.47554e-13
1.00029e-14
1e-14
1e-14
1e-14
1e-14
1e-14
1e-14
1e-14
1e-14
1e-14
1e-14
1e-14
1e-14
1e-14
1.47596e-13
1e-14
1.03032e-14
1.00043e-14
1.00091e-14
1.00029e-14
1.01042e-14
1.00183e-14
1.00001e-14
1.00001e-14
1e-14
1e-14
1.00001e-14
1.2402e-13
1.00131e-14
1e-14
1e-14
1e-14
1e-14
1e-14
1e-14
1e-14
1e-14
1e-14
1e-14
1e-14
1e-14
1e-14
1e-14
1e-14
1e-14
1e-14
1e-14
1e-14
1e-14
1e-14
1e-14
1e-14
1e-14
1e-14
1e-14
1e-14
1e-14
1.24016e-13
1e-14
1e-14
1e-14
1e-14
1e-14
1e-14
1e-14
1e-14
1e-14
1e-14
1e-14
1.00131e-14
1e-14
1e-14
1e-14
1e-14
1e-14
1e-14
1e-14
1e-14
1e-14
1e-14
1e-14
1.01042e-14
1e-14
1e-14
1e-14
1e-14
1e-14
1e-14
1e-14
1e-14
1e-14
1e-14
1e-14
1e-14
1.00183e-14
1e-14
1e-14
1e-14
1e-14
1e-14
1e-14
1e-14
1e-14
1e-14
1e-14
1e-14
1e-14
1e-14
1.00001e-14
1e-14
1e-14
1e-14
1e-14
1e-14
1e-14
1e-14
1e-14
1e-14
1e-14
1e-14
1e-14
1.03031e-14
1.00001e-14
1e-14
1e-14
1e-14
1e-14
1e-14
1e-14
1e-14
1e-14
1e-14
1e-14
1e-14
1e-14
1.00043e-14
1e-14
1e-14
1e-14
1e-14
1e-14
1e-14
1e-14
1e-14
1e-14
1e-14
1e-14
1e-14
1e-14
1.00091e-14
1e-14
1e-14
1e-14
1e-14
1e-14
1e-14
1e-14
1e-14
1e-14
1e-14
1e-14
1e-14
1e-14
1.47591e-13
1.00029e-14
1.00001e-14
1e-14
1e-14
1e-14
1e-14
1e-14
1e-14
1e-14
1e-14
1e-14
1e-14
1e-14
1e-14
1.47589e-13
1e-14
1.03043e-14
1.00044e-14
1.00092e-14
1.00029e-14
1.01015e-14
1.00183e-14
1.00001e-14
1.00001e-14
1e-14
1e-14
1e-14
1.24035e-13
1.00131e-14
1e-14
1e-14
1e-14
1e-14
1e-14
1e-14
1e-14
1e-14
1e-14
1e-14
1e-14
1e-14
1e-14
1e-14
1e-14
1e-14
1e-14
1e-14
1e-14
1e-14
1e-14
1e-14
1e-14
1e-14
1e-14
1e-14
1e-14
1e-14
1.24032e-13
1e-14
1e-14
1e-14
1e-14
1e-14
1e-14
1e-14
1e-14
1e-14
1e-14
1e-14
1.00131e-14
1e-14
1e-14
1e-14
1e-14
1e-14
1e-14
1e-14
1e-14
1e-14
1e-14
1.00001e-14
1.01015e-14
1e-14
1e-14
1e-14
1e-14
1e-14
1e-14
1e-14
1e-14
1e-14
1e-14
1e-14
1.00001e-14
1.00183e-14
1e-14
1e-14
1e-14
1e-14
1e-14
1e-14
1e-14
1e-14
1e-14
1e-14
1e-14
1e-14
1e-14
1.00001e-14
1e-14
1e-14
1e-14
1e-14
1e-14
1e-14
1e-14
1e-14
1e-14
1e-14
1e-14
1e-14
1.03043e-14
1.00001e-14
1e-14
1e-14
1e-14
1e-14
1e-14
1e-14
1e-14
1e-14
1e-14
1e-14
1e-14
1e-14
1.00044e-14
1e-14
1e-14
1e-14
1e-14
1e-14
1e-14
1e-14
1e-14
1e-14
1e-14
1e-14
1e-14
1e-14
1.00092e-14
1e-14
1e-14
1e-14
1e-14
1e-14
1e-14
1e-14
1e-14
1e-14
1e-14
1e-14
1e-14
1e-14
1.47584e-13
1.00029e-14
1e-14
1e-14
1e-14
1e-14
1e-14
1.00001e-14
1.00001e-14
1e-14
1e-14
1e-14
1e-14
1e-14
1e-14
1.4754e-13
1e-14
1.03077e-14
1.00045e-14
1.00096e-14
1.0003e-14
1.00962e-14
1.00183e-14
1.00001e-14
1.00001e-14
1e-14
1e-14
1e-14
1.24052e-13
1.0013e-14
1e-14
1e-14
1e-14
1e-14
1e-14
1e-14
1e-14
1e-14
1e-14
1e-14
1e-14
1e-14
1e-14
1e-14
1e-14
1e-14
1e-14
1e-14
1e-14
1e-14
1e-14
1e-14
1e-14
1e-14
1e-14
1e-14
1e-14
1e-14
1.2405e-13
1e-14
1e-14
1e-14
1e-14
1e-14
1e-14
1e-14
1e-14
1e-14
1e-14
1e-14
1.0013e-14
1e-14
1e-14
1e-14
1e-14
1e-14
1e-14
1e-14
1e-14
1e-14
1e-14
1e-14
1.00962e-14
1e-14
1e-14
1e-14
1e-14
1e-14
1e-14
1e-14
1e-14
1e-14
1e-14
1e-14
1e-14
1.00183e-14
1e-14
1e-14
1e-14
1e-14
1e-14
1e-14
1e-14
1e-14
1e-14
1e-14
1e-14
1e-14
1e-14
1.00001e-14
1e-14
1e-14
1e-14
1e-14
1e-14
1e-14
1e-14
1e-14
1e-14
1e-14
1e-14
1e-14
1.03077e-14
1.00001e-14
1e-14
1e-14
1e-14
1e-14
1e-14
1e-14
1e-14
1e-14
1e-14
1e-14
1e-14
1e-14
1.00045e-14
1e-14
1e-14
1e-14
1e-14
1e-14
1e-14
1e-14
1e-14
1e-14
1e-14
1e-14
1e-14
1e-14
1.00096e-14
1e-14
1e-14
1e-14
1e-14
1e-14
1e-14
1e-14
1e-14
1e-14
1e-14
1e-14
1e-14
1e-14
1.47536e-13
1.0003e-14
1e-14
1e-14
1e-14
1e-14
1e-14
1e-14
1e-14
1e-14
1e-14
1e-14
1e-14
1e-14
1e-14
1.47375e-13
1e-14
1.0321e-14
1.0005e-14
1.0011e-14
1.00028e-14
1.00908e-14
1.00186e-14
1.00001e-14
1.00001e-14
1e-14
1e-14
1e-14
1.2408e-13
1.00144e-14
1e-14
1e-14
1e-14
1e-14
1e-14
1e-14
1e-14
1e-14
1e-14
1e-14
1e-14
1e-14
1e-14
1e-14
1e-14
1e-14
1e-14
1e-14
1e-14
1e-14
1e-14
1e-14
1e-14
1e-14
1e-14
1e-14
1e-14
1e-14
1.24078e-13
1e-14
1e-14
1e-14
1e-14
1e-14
1e-14
1e-14
1e-14
1e-14
1e-14
1e-14
1.00144e-14
1e-14
1e-14
1e-14
1e-14
1e-14
1e-14
1e-14
1e-14
1e-14
1e-14
1e-14
1.00908e-14
1e-14
1e-14
1e-14
1e-14
1e-14
1e-14
1e-14
1e-14
1e-14
1e-14
1e-14
1e-14
1.00186e-14
1e-14
1e-14
1e-14
1e-14
1e-14
1e-14
1e-14
1e-14
1e-14
1e-14
1e-14
1e-14
1e-14
1.00001e-14
1e-14
1e-14
1e-14
1e-14
1e-14
1e-14
1e-14
1e-14
1e-14
1e-14
1e-14
1e-14
1.0321e-14
1.00001e-14
1e-14
1e-14
1e-14
1e-14
1e-14
1e-14
1e-14
1e-14
1e-14
1e-14
1e-14
1e-14
1.0005e-14
1e-14
1e-14
1e-14
1e-14
1e-14
1e-14
1e-14
1e-14
1e-14
1e-14
1e-14
1e-14
1e-14
1.0011e-14
1e-14
1e-14
1e-14
1e-14
1e-14
1e-14
1e-14
1e-14
1e-14
1e-14
1e-14
1e-14
1e-14
1.47372e-13
1.00028e-14
1e-14
1e-14
1e-14
1e-14
1e-14
1e-14
1e-14
1e-14
1e-14
1e-14
1e-14
1e-14
1e-14
1.46177e-13
1e-14
1.04011e-14
1.00055e-14
1.00176e-14
1.00072e-14
1.01156e-14
1.00181e-14
1.00002e-14
1.00001e-14
1e-14
1e-14
1e-14
1.23949e-13
1.0012e-14
1e-14
1e-14
1e-14
1e-14
1e-14
1e-14
1e-14
1e-14
1e-14
1e-14
1e-14
1e-14
1e-14
1e-14
1e-14
1e-14
1e-14
1e-14
1e-14
1e-14
1e-14
1e-14
1e-14
1e-14
1e-14
1e-14
1e-14
1e-14
1.23946e-13
1e-14
1e-14
1e-14
1e-14
1e-14
1e-14
1e-14
1e-14
1e-14
1e-14
1e-14
1.0012e-14
1e-14
1e-14
1e-14
1e-14
1e-14
1e-14
1e-14
1e-14
1e-14
1e-14
1e-14
1.01155e-14
1e-14
1e-14
1e-14
1e-14
1e-14
1e-14
1e-14
1e-14
1e-14
1e-14
1e-14
1e-14
1.00181e-14
1e-14
1e-14
1e-14
1e-14
1e-14
1e-14
1e-14
1e-14
1e-14
1e-14
1e-14
1e-14
1e-14
1.00002e-14
1e-14
1e-14
1e-14
1e-14
1e-14
1e-14
1e-14
1e-14
1e-14
1e-14
1e-14
1e-14
1.04011e-14
1.00001e-14
1e-14
1e-14
1e-14
1e-14
1e-14
1e-14
1e-14
1e-14
1e-14
1e-14
1e-14
1e-14
1.00055e-14
1e-14
1e-14
1e-14
1e-14
1e-14
1e-14
1e-14
1e-14
1e-14
1e-14
1e-14
1e-14
1e-14
1.00177e-14
1e-14
1e-14
1e-14
1e-14
1e-14
1e-14
1e-14
1e-14
1e-14
1e-14
1e-14
1e-14
1e-14
1.46173e-13
1.00072e-14
1e-14
1e-14
1e-14
1e-14
1e-14
1e-14
1e-14
1e-14
1e-14
1e-14
1e-14
1e-14
1e-14
1.27416e-14
1.04396e-14
1e-14
1e-14
1.00011e-14
1.00008e-14
1.00423e-14
1.00007e-14
1e-14
1e-14
1e-14
1e-14
1e-14
1.07288e-14
1.00008e-14
1e-14
1e-14
1e-14
1e-14
1e-14
1e-14
1e-14
1.00181e-14
1e-14
1e-14
1e-14
1e-14
1e-14
1e-14
1e-14
1e-14
1e-14
1.00181e-14
1e-14
1e-14
1e-14
1e-14
1e-14
1e-14
1e-14
1e-14
1e-14
1e-14
1.07294e-14
1e-14
1e-14
1e-14
1e-14
1e-14
1e-14
1e-14
1e-14
1e-14
1e-14
1e-14
1.00008e-14
1e-14
1e-14
1e-14
1e-14
1e-14
1e-14
1e-14
1e-14
1e-14
1e-14
1e-14
1.00423e-14
1e-14
1e-14
1e-14
1e-14
1e-14
1e-14
1e-14
1e-14
1e-14
1e-14
1e-14
1e-14
1.00007e-14
1e-14
1e-14
1e-14
1e-14
1e-14
1e-14
1e-14
1e-14
1e-14
1e-14
1e-14
1e-14
1.04395e-14
1e-14
1e-14
1e-14
1e-14
1e-14
1e-14
1e-14
1e-14
1e-14
1e-14
1e-14
1e-14
1e-14
1e-14
1e-14
1e-14
1e-14
1e-14
1e-14
1e-14
1e-14
1e-14
1e-14
1e-14
1e-14
1e-14
1e-14
1e-14
1e-14
1e-14
1e-14
1e-14
1e-14
1e-14
1e-14
1e-14
1e-14
1e-14
1e-14
1e-14
1e-14
1.00011e-14
1e-14
1e-14
1e-14
1e-14
1e-14
1e-14
1e-14
1e-14
1e-14
1e-14
1e-14
1e-14
1e-14
1.27441e-14
1.00008e-14
1e-14
1e-14
1e-14
1e-14
1e-14
1e-14
1e-14
1e-14
1e-14
1e-14
1e-14
1e-14
1e-14
1e-14
1.00038e-14
1e-14
1.00002e-14
1e-14
1e-14
1.00001e-14
1e-14
1e-14
1e-14
1e-14
1e-14
1e-14
1e-14
1e-14
1e-14
1.00002e-14
1.00001e-14
1e-14
1e-14
1e-14
1e-14
1e-14
1e-14
1e-14
1e-14
1e-14
1e-14
1e-14
1e-14
1e-14
1e-14
1e-14
1e-14
1e-14
1e-14
1e-14
1e-14
1e-14
1e-14
1e-14
1e-14
1e-14
1e-14
1e-14
1e-14
1.00002e-14
1e-14
1e-14
1e-14
1e-14
1e-14
1e-14
1e-14
1e-14
1e-14
1e-14
1e-14
1e-14
1.00001e-14
1e-14
1e-14
1e-14
1e-14
1e-14
1e-14
1e-14
1e-14
1e-14
1e-14
1e-14
1e-14
1e-14
1e-14
1e-14
1e-14
1e-14
1e-14
1e-14
1e-14
1e-14
1e-14
1e-14
1e-14
1e-14
1e-14
1e-14
1e-14
1e-14
1e-14
1e-14
1e-14
1e-14
1e-14
1e-14
1e-14
1e-14
1e-14
1.00002e-14
1e-14
1e-14
1e-14
1e-14
1e-14
1e-14
1e-14
1e-14
1e-14
1e-14
1e-14
1e-14
1e-14
1e-14
1e-14
1e-14
1e-14
1e-14
1e-14
1e-14
1e-14
1e-14
1e-14
1e-14
1e-14
1e-14
1e-14
1e-14
1e-14
1e-14
1e-14
1e-14
1e-14
1e-14
1e-14
1e-14
1e-14
1e-14
1e-14
1e-14
1e-14
1e-14
1.00001e-14
1e-14
1e-14
1e-14
1e-14
1e-14
1e-14
1e-14
1e-14
1e-14
1e-14
1e-14
1e-14
1e-14
1.00038e-14
1e-14
1e-14
1e-14
1e-14
1e-14
1e-14
1e-14
1e-14
1e-14
1e-14
1e-14
1e-14
1e-14
1e-14
1e-14
1e-14
1e-14
1e-14
1e-14
1e-14
1e-14
1e-14
1e-14
1e-14
1e-14
1e-14
1e-14
1e-14
1e-14
1e-14
1e-14
1e-14
1e-14
1e-14
1e-14
1e-14
1e-14
1e-14
1e-14
1e-14
1e-14
1e-14
1e-14
1e-14
1e-14
1e-14
1e-14
1e-14
1e-14
1e-14
1e-14
1e-14
1e-14
1e-14
1e-14
1e-14
1e-14
1e-14
1e-14
1e-14
1e-14
1e-14
1e-14
1e-14
1e-14
1e-14
1e-14
1e-14
1e-14
1e-14
1e-14
1e-14
1e-14
1e-14
1e-14
1e-14
1e-14
1e-14
1e-14
1e-14
1e-14
1e-14
1e-14
1e-14
1e-14
1e-14
1e-14
1e-14
1e-14
1e-14
1e-14
1e-14
1e-14
1e-14
1e-14
1e-14
1e-14
1e-14
1e-14
1e-14
1e-14
1e-14
1e-14
1e-14
1e-14
1e-14
1e-14
1e-14
1e-14
1e-14
1e-14
1e-14
1e-14
1e-14
1e-14
1e-14
1e-14
1e-14
1e-14
1e-14
1e-14
1e-14
1e-14
1e-14
1e-14
1e-14
1e-14
1e-14
1e-14
1e-14
1e-14
1e-14
1e-14
1e-14
1e-14
1e-14
1e-14
1e-14
1e-14
1e-14
1e-14
1e-14
1e-14
1e-14
1e-14
1e-14
1e-14
1e-14
1e-14
1e-14
1e-14
1e-14
1e-14
1e-14
1e-14
1e-14
1e-14
1e-14
1e-14
1e-14
1e-14
1e-14
1e-14
1e-14
1e-14
1e-14
1e-14
1e-14
1e-14
1e-14
1e-14
1e-14
1e-14
1e-14
1e-14
1e-14
1e-14
1e-14
1e-14
1e-14
1e-14
1e-14
1e-14
1e-14
1e-14
1e-14
1e-14
1e-14
1e-14
1e-14
1e-14
1e-14
1e-14
1e-14
1e-14
1e-14
1e-14
1e-14
1e-14
1e-14
1e-14
1e-14
1e-14
1e-14
1e-14
1e-14
1e-14
1e-14
1e-14
1e-14
1e-14
1e-14
1e-14
1e-14
1e-14
1e-14
1e-14
1e-14
1e-14
1e-14
1e-14
1e-14
1e-14
1e-14
1e-14
1e-14
1e-14
1e-14
1e-14
1e-14
1e-14
1e-14
1e-14
1e-14
1e-14
1e-14
1e-14
1e-14
1e-14
1e-14
1e-14
1e-14
1e-14
1e-14
1e-14
1e-14
1e-14
1e-14
1e-14
1e-14
1e-14
1e-14
1e-14
1e-14
1e-14
1e-14
1e-14
1e-14
1e-14
1e-14
1e-14
1e-14
1e-14
1e-14
1e-14
1e-14
1e-14
1e-14
1e-14
1e-14
1e-14
1e-14
1e-14
1e-14
1e-14
1e-14
1e-14
1e-14
1e-14
1e-14
1e-14
1e-14
1e-14
1e-14
1e-14
1e-14
1e-14
1e-14
1e-14
1e-14
1e-14
1e-14
1e-14
1e-14
1e-14
1e-14
1e-14
1e-14
1e-14
1e-14
1e-14
1e-14
1e-14
1e-14
1e-14
1e-14
1e-14
1e-14
1e-14
1e-14
1e-14
1e-14
1e-14
1e-14
1e-14
1e-14
1e-14
1e-14
1e-14
1e-14
1e-14
1e-14
1e-14
1e-14
1e-14
1e-14
1e-14
1e-14
1e-14
1e-14
1e-14
1e-14
1e-14
1e-14
1e-14
1e-14
1e-14
1e-14
1.00001e-14
1e-14
1e-14
1e-14
1e-14
1e-14
1e-14
1e-14
1e-14
1e-14
1e-14
1e-14
1e-14
1e-14
1.00001e-14
1e-14
1e-14
1e-14
1e-14
1e-14
1e-14
1e-14
1e-14
1e-14
1e-14
1e-14
1e-14
1e-14
1e-14
1e-14
1e-14
1e-14
1e-14
1e-14
1e-14
1e-14
1e-14
1e-14
1e-14
1e-14
1e-14
1e-14
1e-14
1e-14
1e-14
1e-14
1e-14
1e-14
1e-14
1e-14
1e-14
1e-14
1e-14
1e-14
1e-14
1e-14
1e-14
1e-14
1e-14
1e-14
1e-14
1e-14
1e-14
1e-14
1e-14
1e-14
1e-14
1e-14
1e-14
1e-14
1e-14
1e-14
1e-14
1e-14
1e-14
1e-14
1e-14
1e-14
1e-14
1e-14
1e-14
1e-14
1e-14
1e-14
1e-14
1e-14
1e-14
1e-14
1e-14
1e-14
1e-14
1e-14
1e-14
1e-14
1e-14
1e-14
1e-14
1e-14
1e-14
1e-14
1e-14
1e-14
1e-14
1e-14
1e-14
1e-14
1e-14
1e-14
1e-14
1e-14
1e-14
1e-14
1e-14
1e-14
1e-14
1e-14
1e-14
1e-14
1e-14
1e-14
1e-14
1e-14
1e-14
1e-14
1e-14
1e-14
1e-14
1e-14
1e-14
1e-14
1e-14
1e-14
1e-14
1e-14
1e-14
1e-14
1e-14
1e-14
1e-14
1e-14
1e-14
1.00001e-14
1e-14
1e-14
1e-14
1e-14
1e-14
1e-14
1e-14
1e-14
1e-14
1e-14
1e-14
1e-14
1e-14
1.00001e-14
1e-14
1e-14
1e-14
1e-14
1e-14
1e-14
1e-14
1e-14
1e-14
1e-14
1e-14
1e-14
1e-14
1.00001e-14
1e-14
1e-14
1e-14
1e-14
1e-14
1e-14
1e-14
1e-14
1e-14
1e-14
1e-14
1e-14
1.00001e-14
1.00001e-14
1e-14
1.00001e-14
1e-14
1e-14
1e-14
1e-14
1e-14
1e-14
1e-14
1e-14
1e-14
1e-14
1e-14
1e-14
1e-14
1e-14
1e-14
1e-14
1e-14
1e-14
1e-14
1e-14
1e-14
1e-14
1e-14
1e-14
1e-14
1e-14
1e-14
1e-14
1e-14
1e-14
1e-14
1e-14
1e-14
1e-14
1e-14
1e-14
1e-14
1e-14
1e-14
1e-14
1e-14
1e-14
1e-14
1e-14
1e-14
1e-14
1e-14
1e-14
1e-14
1e-14
1e-14
1e-14
1e-14
1e-14
1e-14
1e-14
1e-14
1.00001e-14
1e-14
1e-14
1e-14
1e-14
1e-14
1e-14
1e-14
1e-14
1e-14
1e-14
1e-14
1e-14
1e-14
1e-14
1e-14
1e-14
1e-14
1e-14
1e-14
1e-14
1e-14
1e-14
1e-14
1e-14
1e-14
1.00001e-14
1e-14
1e-14
1e-14
1e-14
1e-14
1e-14
1e-14
1e-14
1e-14
1e-14
1e-14
1e-14
1e-14
1.00001e-14
1e-14
1e-14
1e-14
1e-14
1e-14
1e-14
1e-14
1e-14
1e-14
1e-14
1e-14
1e-14
1e-14
1.00001e-14
1e-14
1e-14
1e-14
1e-14
1e-14
1e-14
1e-14
1e-14
1e-14
1e-14
1e-14
1e-14
1e-14
1e-14
1e-14
1e-14
1e-14
1e-14
1e-14
1e-14
1e-14
1e-14
1e-14
1e-14
1e-14
1e-14
1e-14
1e-14
1e-14
1e-14
1e-14
1e-14
1e-14
1e-14
1e-14
1e-14
1e-14
1e-14
1e-14
1e-14
1e-14
1e-14
1e-14
1e-14
1e-14
1e-14
1e-14
1e-14
1e-14
1.00001e-14
1e-14
1.00001e-14
1e-14
1.00001e-14
1.00001e-14
1e-14
1e-14
1e-14
1e-14
1e-14
1e-14
1e-14
1e-14
1e-14
1e-14
1e-14
1e-14
1e-14
1e-14
1e-14
1e-14
1e-14
1e-14
1e-14
1e-14
1e-14
1e-14
1e-14
1e-14
1e-14
1e-14
1e-14
1e-14
1e-14
1e-14
1e-14
1e-14
1e-14
1e-14
1e-14
1e-14
1e-14
1e-14
1e-14
1e-14
1e-14
1e-14
1e-14
1e-14
1e-14
1e-14
1e-14
1e-14
1e-14
1e-14
1e-14
1e-14
1e-14
1e-14
1e-14
1e-14
1e-14
1e-14
1e-14
1e-14
1e-14
1e-14
1e-14
1e-14
1e-14
1e-14
1e-14
1e-14
1e-14
1e-14
1e-14
1e-14
1e-14
1e-14
1e-14
1e-14
1e-14
1e-14
1e-14
1e-14
1e-14
1e-14
1e-14
1e-14
1e-14
1e-14
1e-14
1e-14
1e-14
1e-14
1e-14
1e-14
1e-14
1e-14
1e-14
1e-14
1e-14
1e-14
1e-14
1e-14
1e-14
1e-14
1e-14
1e-14
1e-14
1e-14
1e-14
1e-14
1e-14
1e-14
1e-14
1e-14
1e-14
1e-14
1e-14
1e-14
1e-14
1e-14
1e-14
1e-14
1e-14
1e-14
1e-14
1e-14
1e-14
1e-14
1e-14
1e-14
1e-14
1e-14
1e-14
1e-14
1e-14
1e-14
1e-14
1e-14
1e-14
1e-14
1e-14
1e-14
1e-14
1e-14
1e-14
1e-14
1e-14
1e-14
1e-14
1e-14
1e-14
1e-14
1e-14
1e-14
1e-14
1e-14
1e-14
1e-14
1e-14
1e-14
1e-14
1e-14
1e-14
1e-14
1e-14
1e-14
1e-14
1e-14
1e-14
1e-14
1e-14
1e-14
1e-14
1e-14
1e-14
1e-14
1e-14
1e-14
1e-14
1e-14
1e-14
1e-14
1e-14
1e-14
1e-14
1e-14
1e-14
1e-14
1e-14
1e-14
1e-14
1e-14
1e-14
1e-14
1e-14
1e-14
1e-14
1e-14
1e-14
1e-14
1e-14
1e-14
1e-14
1e-14
1e-14
1e-14
1e-14
1e-14
1e-14
1e-14
1e-14
1e-14
1e-14
1e-14
1e-14
1e-14
1e-14
1e-14
1e-14
1e-14
1e-14
1e-14
1e-14
1e-14
1e-14
1e-14
1e-14
1e-14
1e-14
1e-14
1e-14
1e-14
1e-14
1e-14
1e-14
1e-14
1e-14
1e-14
1e-14
1e-14
1e-14
1e-14
1e-14
1e-14
1e-14
1e-14
1e-14
1e-14
1e-14
1e-14
1e-14
1e-14
1e-14
1e-14
1e-14
1e-14
1e-14
1e-14
1e-14
1e-14
1e-14
1e-14
1e-14
1e-14
1e-14
1e-14
1e-14
1e-14
1e-14
1e-14
1e-14
1e-14
1e-14
1e-14
1e-14
1e-14
1e-14
1e-14
1e-14
1e-14
1e-14
1e-14
1e-14
1e-14
1e-14
1e-14
1e-14
1e-14
1e-14
1e-14
1e-14
1e-14
1e-14
1e-14
1e-14
1e-14
1e-14
1e-14
1e-14
1e-14
1e-14
1e-14
1e-14
1e-14
1e-14
1e-14
1e-14
1e-14
1e-14
1e-14
1e-14
1e-14
1e-14
1e-14
1e-14
1e-14
1e-14
1e-14
1e-14
1e-14
1e-14
1e-14
1e-14
1e-14
1e-14
1e-14
1e-14
1e-14
1e-14
1e-14
1e-14
1e-14
1e-14
1e-14
1e-14
1e-14
1e-14
1e-14
1e-14
1e-14
1e-14
1e-14
1e-14
1e-14
1e-14
3.69329e-13
2.11657e-14
1.87871e-14
1.00124e-14
1.01203e-14
1.37519e-14
1.72609e-13
1.09924e-14
1.05429e-14
1.62306e-13
1.52811e-13
1.04434e-14
1.03918e-14
3.1051e-13
1.39812e-13
1.0294e-14
1.06367e-13
1.2172e-14
1.03171e-14
1.49433e-14
1.09759e-14
1.0006e-14
1.00162e-14
1e-14
2.53927e-14
1.08753e-14
1.0104e-14
1.11391e-14
1.01546e-14
1.00142e-14
1.0002e-14
3.16664e-13
3.4703e-13
1.00215e-14
1.35162e-13
1.09305e-14
1.00777e-14
1.00069e-14
3.45058e-13
3.438e-13
1e-14
3.46379e-13
3.16657e-13
1.00215e-14
1e-14
1.35162e-13
1.00776e-14
1.0929e-14
1.00069e-14
3.10499e-13
1.08954e-14
2.53879e-14
1.01042e-14
1.39805e-13
1.02938e-14
1.11389e-14
1.00142e-14
1.01546e-14
1.0002e-14
1.2172e-14
1.06366e-13
1.03171e-14
3.69331e-13
2.11652e-14
1.49419e-14
1.0006e-14
1.09759e-14
1.00162e-14
1.87889e-14
1.00125e-14
1.01205e-14
1.37513e-14
1.0992e-14
1.72617e-13
1.05431e-14
1.62318e-13
1.04439e-14
1.52686e-13
1.03901e-14
3.56301e-13
1e-14
3.68471e-13
1.93327e-14
1e-14
1.00058e-14
1.78861e-14
1.00071e-14
1e-14
1e-14
1.01e-14
1.30317e-14
1.57004e-13
1e-14
1.03412e-14
1.72043e-13
1.07722e-14
1.04656e-14
1.39487e-13
1.02285e-14
1.01952e-14
1.61658e-13
1.52137e-13
1.03803e-14
1.03294e-14
2.84014e-13
3.08529e-13
1.04356e-13
1e-14
1.38776e-13
1.02951e-14
9.78135e-14
1e-14
1.02092e-14
1.06143e-13
1.17088e-14
1.02756e-14
1.01105e-14
1.00041e-14
1e-14
1.46297e-14
1.06962e-14
1.00055e-14
1.00087e-14
1.17828e-14
1e-14
1e-14
1e-14
1.01184e-14
2.34607e-14
1.06081e-14
1.01037e-14
1.00594e-14
1e-14
1e-14
1.08634e-14
1.01387e-14
1.00093e-14
1.00013e-14
2.93565e-13
2.71426e-13
1e-14
3.15363e-13
3.45558e-13
1e-14
1.02577e-14
1.01162e-14
1e-14
1.35064e-13
1.07871e-14
1.00861e-14
1.0005e-14
2.74526e-13
2.73615e-13
1e-14
3.43456e-13
3.42153e-13
1e-14
2.71059e-13
2.93562e-13
1e-14
3.44937e-13
3.15353e-13
1e-14
1.17879e-14
1e-14
1.01161e-14
1.02575e-14
1e-14
1.35059e-13
1.0086e-14
1.07869e-14
1.0005e-14
2.84005e-13
3.08517e-13
1e-14
1e-14
1.01184e-14
1.06077e-14
2.34609e-14
1.01036e-14
1.04353e-13
1e-14
1.3877e-13
1.02951e-14
1e-14
1.00594e-14
1e-14
1.08633e-14
1.00093e-14
1.01387e-14
1.00013e-14
1e-14
9.78135e-14
1.02092e-14
1.17088e-14
1.06142e-13
1.02756e-14
3.563e-13
1e-14
3.6847e-13
1.9333e-14
1.00041e-14
1.01105e-14
1e-14
1.46294e-14
1.00055e-14
1.06962e-14
1.00087e-14
1e-14
1.00058e-14
1.78864e-14
1.00071e-14
1e-14
1e-14
1.01e-14
1.30311e-14
1e-14
1.57e-13
1.03415e-14
1.07719e-14
1.72049e-13
1.0466e-14
1.02289e-14
1.394e-13
1.0195e-14
1.61667e-13
1.0381e-14
1.5205e-13
1.03292e-14
3.56457e-13
1e-14
3.6843e-13
1.94269e-14
1e-14
1.00055e-14
1.79176e-14
1.00059e-14
1e-14
1.00034e-14
1.00991e-14
1.28673e-14
1.57499e-13
1e-14
1.03435e-14
1.72088e-13
1.07167e-14
1.04655e-14
1.39833e-13
1.02346e-14
1.02006e-14
1.6167e-13
1.52146e-13
1.03786e-14
1.03275e-14
2.8499e-13
3.08714e-13
1.05487e-13
1e-14
1.38754e-13
1.03093e-14
9.80699e-14
1e-14
1.02122e-14
1.06177e-13
1.16489e-14
1.02758e-14
1.01768e-14
1.00044e-14
1e-14
1.45628e-14
1.06741e-14
1.00054e-14
1.00079e-14
1.25201e-14
1e-14
1e-14
1e-14
1.01168e-14
2.36878e-14
1.05144e-14
1.01062e-14
1.0057e-14
1e-14
1e-14
1.08329e-14
1.01401e-14
1.00083e-14
1.00013e-14
2.94227e-13
2.73537e-13
1e-14
3.15561e-13
3.45448e-13
1e-14
1.02482e-14
1.0114e-14
1e-14
1.35192e-13
1.0795e-14
1.00881e-14
1.0005e-14
2.76764e-13
2.75808e-13
1e-14
3.43371e-13
3.42067e-13
1e-14
2.73173e-13
2.94226e-13
1e-14
3.44829e-13
3.15552e-13
1e-14
1.25203e-14
1e-14
1.01139e-14
1.02482e-14
1e-14
1.35188e-13
1.00881e-14
1.07949e-14
1.0005e-14
2.8498e-13
3.08703e-13
1e-14
1e-14
1.01167e-14
1.05142e-14
2.3688e-14
1.01062e-14
1.05486e-13
1e-14
1.38749e-13
1.03093e-14
1e-14
1.0057e-14
1e-14
1.08328e-14
1.00083e-14
1.01401e-14
1.00013e-14
1e-14
9.80693e-14
1.02122e-14
1.16488e-14
1.06177e-13
1.02758e-14
3.56455e-13
1e-14
3.68429e-13
1.94269e-14
1.00044e-14
1.01768e-14
1e-14
1.45624e-14
1.00054e-14
1.06741e-14
1.00079e-14
1e-14
1.00054e-14
1.7918e-14
1.00059e-14
1e-14
1.00034e-14
1.00992e-14
1.28666e-14
1e-14
1.57494e-13
1.03437e-14
1.07165e-14
1.72094e-13
1.04658e-14
1.02349e-14
1.39746e-13
1.02006e-14
1.61678e-13
1.03792e-14
1.52059e-13
1.03274e-14
3.56296e-13
1e-14
3.68428e-13
1.94419e-14
1e-14
1.00053e-14
1.79097e-14
1.0006e-14
1e-14
1.00137e-14
1.00995e-14
1.2851e-14
1.57556e-13
1e-14
1.03466e-14
1.72108e-13
1.07081e-14
1.04664e-14
1.3988e-13
1.02377e-14
1.02036e-14
1.61678e-13
1.52159e-13
1.03791e-14
1.03277e-14
2.85035e-13
3.08762e-13
1.0546e-13
1e-14
1.38717e-13
1.0313e-14
9.8094e-14
1e-14
1.02146e-14
1.06201e-13
1.16357e-14
1.02762e-14
1.01866e-14
1.00045e-14
1e-14
1.45462e-14
1.06688e-14
1.00055e-14
1.00079e-14
1.26112e-14
1e-14
1e-14
1e-14
1.0117e-14
2.38003e-14
1.04995e-14
1.01059e-14
1.00576e-14
1e-14
1e-14
1.08233e-14
1.01402e-14
1.0008e-14
1.00012e-14
2.94177e-13
2.73539e-13
1e-14
3.15599e-13
3.4546e-13
1e-14
1.02496e-14
1.01143e-14
1e-14
1.35217e-13
1.07965e-14
1.00882e-14
1.00049e-14
2.76788e-13
2.75833e-13
1e-14
3.43373e-13
3.42069e-13
1e-14
2.73176e-13
2.94179e-13
1e-14
3.44841e-13
3.1559e-13
1e-14
1.26118e-14
1e-14
1.01143e-14
1.02497e-14
1e-14
1.35214e-13
1.00881e-14
1.07963e-14
1.00048e-14
2.85025e-13
3.08751e-13
1e-14
1e-14
1.0117e-14
1.04992e-14
2.38006e-14
1.01059e-14
1.05458e-13
1e-14
1.38713e-13
1.0313e-14
1e-14
1.00576e-14
1e-14
1.08232e-14
1.0008e-14
1.01402e-14
1.00012e-14
1e-14
9.80939e-14
1.02146e-14
1.16356e-14
1.062e-13
1.02762e-14
3.56295e-13
1e-14
3.68428e-13
1.94428e-14
1.00045e-14
1.01866e-14
1e-14
1.45458e-14
1.00055e-14
1.06687e-14
1.00079e-14
1e-14
1.00053e-14
1.79099e-14
1.0006e-14
1e-14
1.00137e-14
1.00996e-14
1.28504e-14
1e-14
1.57551e-13
1.03468e-14
1.0708e-14
1.72114e-13
1.04668e-14
1.0238e-14
1.39794e-13
1.02036e-14
1.61687e-13
1.03797e-14
1.52072e-13
1.03275e-14
3.56229e-13
1e-14
3.68412e-13
1.94456e-14
1e-14
1.00057e-14
1.78985e-14
1.00065e-14
1e-14
1.00164e-14
1.00993e-14
1.28653e-14
1.57551e-13
1e-14
1.03476e-14
1.72128e-13
1.07158e-14
1.04701e-14
1.39879e-13
1.02383e-14
1.02039e-14
1.61689e-13
1.52161e-13
1.0381e-14
1.03289e-14
2.8506e-13
3.08785e-13
1.05405e-13
1e-14
1.38681e-13
1.0316e-14
9.81041e-14
1e-14
1.02148e-14
1.06238e-13
1.1631e-14
1.02763e-14
1.01863e-14
1.00046e-14
1e-14
1.45284e-14
1.06669e-14
1.00056e-14
1.00079e-14
1.26223e-14
1e-14
1e-14
1e-14
1.01163e-14
2.39058e-14
1.04911e-14
1.01046e-14
1.00575e-14
1e-14
1e-14
1.0815e-14
1.01401e-14
1.00079e-14
1.00012e-14
2.94172e-13
2.73533e-13
1e-14
3.15596e-13
3.45471e-13
1e-14
1.02499e-14
1.01142e-14
1e-14
1.35219e-13
1.07963e-14
1.00879e-14
1.00047e-14
2.76779e-13
2.75825e-13
1e-14
3.4337e-13
3.42066e-13
1e-14
2.7317e-13
2.94172e-13
1e-14
3.44851e-13
3.15587e-13
1e-14
1.26229e-14
1e-14
1.01141e-14
1.02499e-14
1e-14
1.35216e-13
1.00878e-14
1.07961e-14
1.00047e-14
2.85051e-13
3.08774e-13
1e-14
1e-14
1.01163e-14
1.04908e-14
2.39064e-14
1.01046e-14
1.05404e-13
1e-14
1.38677e-13
1.0316e-14
1e-14
1.00575e-14
1e-14
1.08148e-14
1.00079e-14
1.01401e-14
1.00012e-14
1e-14
9.81038e-14
1.02148e-14
1.16308e-14
1.06238e-13
1.02763e-14
3.56227e-13
1e-14
3.68412e-13
1.94458e-14
1.00046e-14
1.01863e-14
1e-14
1.45279e-14
1.00056e-14
1.06668e-14
1.00079e-14
1e-14
1.00058e-14
1.78988e-14
1.00065e-14
1e-14
1.00165e-14
1.00993e-14
1.28647e-14
1e-14
1.57547e-13
1.03478e-14
1.07156e-14
1.72134e-13
1.04704e-14
1.02386e-14
1.39793e-13
1.02038e-14
1.61698e-13
1.03817e-14
1.52073e-13
1.03288e-14
3.56193e-13
1e-14
3.68384e-13
1.95192e-14
1e-14
1.00057e-14
1.79098e-14
1.00085e-14
1e-14
1.00187e-14
1.01015e-14
1.28937e-14
1.57471e-13
1e-14
1.03501e-14
1.72155e-13
1.07533e-14
1.04819e-14
1.39821e-13
1.02393e-14
1.0204e-14
1.61746e-13
1.52179e-13
1.03862e-14
1.03323e-14
2.8509e-13
3.08818e-13
1.0531e-13
1e-14
1.38665e-13
1.03217e-14
9.81329e-14
1e-14
1.02144e-14
1.0634e-13
1.16336e-14
1.02766e-14
1.01851e-14
1.00045e-14
1e-14
1.44727e-14
1.0669e-14
1.00055e-14
1.00075e-14
1.26303e-14
1e-14
1e-14
1e-14
1.01151e-14
2.40605e-14
1.04928e-14
1.01029e-14
1.00577e-14
1e-14
1e-14
1.08105e-14
1.01404e-14
1.00077e-14
1.00011e-14
2.94166e-13
2.73521e-13
1e-14
3.15582e-13
3.45499e-13
1e-14
1.02497e-14
1.0114e-14
1e-14
1.3522e-13
1.07977e-14
1.00876e-14
1.00047e-14
2.76754e-13
2.75801e-13
1e-14
3.43381e-13
3.42077e-13
1e-14
2.7316e-13
2.94166e-13
1e-14
3.44879e-13
3.15573e-13
1e-14
1.26307e-14
1e-14
1.01139e-14
1.02497e-14
1e-14
1.35216e-13
1.00875e-14
1.07975e-14
1.00047e-14
2.85081e-13
3.08807e-13
1e-14
1e-14
1.01151e-14
1.04925e-14
2.40609e-14
1.01029e-14
1.05309e-13
1e-14
1.38661e-13
1.03218e-14
1e-14
1.00577e-14
1e-14
1.08103e-14
1.00077e-14
1.01403e-14
1.00011e-14
1e-14
9.81328e-14
1.02144e-14
1.16333e-14
1.0634e-13
1.02766e-14
3.56192e-13
1e-14
3.68384e-13
1.95198e-14
1.00045e-14
1.0185e-14
1e-14
1.44726e-14
1.00055e-14
1.06688e-14
1.00075e-14
1e-14
1.00057e-14
1.79101e-14
1.00085e-14
1e-14
1.00188e-14
1.01015e-14
1.28933e-14
1e-14
1.57465e-13
1.03503e-14
1.07532e-14
1.72162e-13
1.04823e-14
1.02396e-14
1.39734e-13
1.0204e-14
1.61757e-13
1.0387e-14
1.52091e-13
1.03322e-14
3.55879e-13
1e-14
3.68611e-13
1.98083e-14
1e-14
1.00061e-14
1.81913e-14
1.00168e-14
1e-14
1.00374e-14
1.01182e-14
1.28721e-14
1.57216e-13
1e-14
1.03567e-14
1.72346e-13
1.08856e-14
1.05172e-14
1.39631e-13
1.02401e-14
1.0203e-14
1.61974e-13
1.52316e-13
1.04044e-14
1.03439e-14
2.851e-13
3.09138e-13
1.0503e-13
1e-14
1.38719e-13
1.03325e-14
9.81465e-14
1e-14
1.02129e-14
1.06691e-13
1.16522e-14
1.02808e-14
1.01864e-14
1.00043e-14
1e-14
1.46017e-14
1.0688e-14
1.00061e-14
1.00073e-14
1.26297e-14
1e-14
1e-14
1e-14
1.01121e-14
2.4696e-14
1.06414e-14
1.01053e-14
1.0058e-14
1e-14
1e-14
1.08339e-14
1.01427e-14
1.00077e-14
1.0001e-14
2.94097e-13
2.73441e-13
1e-14
3.15697e-13
3.45597e-13
1e-14
1.02488e-14
1.01137e-14
1e-14
1.35542e-13
1.08243e-14
1.00896e-14
1.00046e-14
2.76685e-13
2.75729e-13
1e-14
3.43472e-13
3.42214e-13
1e-14
2.73079e-13
2.94096e-13
1e-14
3.45e-13
3.1569e-13
1e-14
1.26296e-14
1e-14
1.01137e-14
1.02487e-14
1e-14
1.35536e-13
1.00895e-14
1.0824e-14
1.00046e-14
2.85092e-13
3.09136e-13
1e-14
1e-14
1.01121e-14
1.0641e-14
2.46967e-14
1.01053e-14
1.05029e-13
1e-14
1.38717e-13
1.03325e-14
1e-14
1.0058e-14
1e-14
1.08337e-14
1.00077e-14
1.01426e-14
1.0001e-14
1e-14
9.81473e-14
1.02128e-14
1.16519e-14
1.06691e-13
1.02808e-14
3.55881e-13
1e-14
3.68611e-13
1.981e-14
1.00043e-14
1.01863e-14
1e-14
1.46015e-14
1.00061e-14
1.06878e-14
1.00073e-14
1e-14
1.00061e-14
1.8192e-14
1.00168e-14
1e-14
1.00376e-14
1.01182e-14
1.28719e-14
1e-14
1.57211e-13
1.0357e-14
1.08857e-14
1.72356e-13
1.05178e-14
1.02404e-14
1.39543e-13
1.0203e-14
1.61987e-13
1.04053e-14
1.52229e-13
1.03438e-14
3.55924e-13
1e-14
3.56396e-13
3.22406e-14
1e-14
1.00048e-14
1.65431e-14
1.01684e-14
1e-14
1.0053e-14
1.05852e-14
1.44072e-14
1.55967e-13
1e-14
1.03513e-14
2.02716e-13
1.11149e-14
1.05924e-14
1.3838e-13
1.01826e-14
1.0146e-14
1.92695e-13
1.83634e-13
1.058e-14
1.04903e-14
2.84327e-13
3.05601e-13
1.03486e-13
1e-14
1.35864e-13
1.03501e-14
9.80114e-14
1e-14
1.01887e-14
1.21224e-13
1.15867e-14
1.0209e-14
1.01627e-14
1.00035e-14
1e-14
2.55795e-14
1.14506e-14
1.0006e-14
1.00197e-14
1.19966e-14
1e-14
1e-14
1e-14
1.01122e-14
2.80386e-14
1.00062e-14
1.0059e-14
1.0063e-14
1e-14
1e-14
1.10137e-14
1.01511e-14
1.00097e-14
1.00011e-14
2.9364e-13
2.73198e-13
1e-14
3.13339e-13
3.23216e-13
1e-14
1.03306e-14
1.01145e-14
1e-14
1.50794e-13
1.09373e-14
1.00268e-14
1e-14
2.76555e-13
2.75664e-13
1e-14
3.24805e-13
3.24485e-13
1e-14
2.72855e-13
2.9364e-13
1e-14
3.22988e-13
3.1334e-13
1e-14
1.19956e-14
1e-14
1.01145e-14
1.03305e-14
1e-14
1.50794e-13
1.00268e-14
1.09372e-14
1e-14
2.84328e-13
3.05601e-13
1e-14
1e-14
1.01122e-14
1.00062e-14
2.80401e-14
1.0059e-14
1.03486e-13
1e-14
1.35863e-13
1.03501e-14
1e-14
1.0063e-14
1e-14
1.10135e-14
1.00097e-14
1.01511e-14
1.00011e-14
1e-14
9.80118e-14
1.01887e-14
1.15863e-14
1.21229e-13
1.02091e-14
3.55924e-13
1e-14
3.56401e-13
3.22423e-14
1.00035e-14
1.01626e-14
1e-14
2.55768e-14
1.0006e-14
1.14504e-14
1.00197e-14
1e-14
1.00048e-14
1.65436e-14
1.01685e-14
1e-14
1.00534e-14
1.05853e-14
1.44071e-14
1e-14
1.55963e-13
1.03519e-14
1.11162e-14
2.02728e-13
1.05937e-14
1.01832e-14
1.38295e-13
1.01462e-14
1.92704e-13
1.05807e-14
1.83535e-13
1.04901e-14
1e-14
1e-14
1e-14
1.33319e-14
1e-14
1.0117e-14
1.00092e-14
1.01129e-14
1.02255e-14
1e-14
1.00063e-14
1.00208e-14
1.2223e-14
1.006e-14
1e-14
1.00734e-14
1.00048e-14
1e-14
1.30908e-14
1e-14
1e-14
1.01202e-14
1.0141e-14
1.00004e-14
1e-14
1e-14
1e-14
1e-14
1e-14
1.00029e-14
1.24547e-14
1.00713e-14
1e-14
1.00011e-14
1.00884e-14
1.00044e-14
1e-14
1.00713e-14
1e-14
1.00003e-14
1.00075e-14
1.00034e-14
1e-14
1e-14
1e-14
1e-14
1.08531e-14
1.00313e-14
1e-14
1e-14
1.00174e-14
1.00027e-14
1e-14
1.00068e-14
1e-14
1e-14
1.00018e-14
1.00004e-14
1e-14
1e-14
1e-14
1e-14
1.00304e-14
1e-14
1e-14
1.00021e-14
1.00376e-14
1e-14
1e-14
1.00135e-14
1.00029e-14
1e-14
1e-14
1e-14
1e-14
1.00186e-14
1e-14
1e-14
1.00012e-14
1e-14
1e-14
1.00304e-14
1e-14
1e-14
1.0002e-14
1e-14
1e-14
1e-14
1.00376e-14
1e-14
1.00135e-14
1e-14
1.00029e-14
1e-14
1e-14
1.00313e-14
1.08529e-14
1e-14
1e-14