/*--------------------------------*- C++ -*----------------------------------*\
| =========                 |                                                 |
| \\      /  F ield         | OpenFOAM: The Open Source CFD Toolbox           |
|  \\    /   O peration     | Version:  2.1.1                                 |
|   \\  /    A nd           | Web:      www.OpenFOAM.org                      |
|    \\/     M anipulation  |                                                 |
\*---------------------------------------------------------------------------*/
FoamFile
{
    version     2.0;
    format      ascii;
    class       volVectorField;
    location    "0.001";
    object      U;
}
// * * * * * * * * * * * * * * * * * * * * * * * * * * * * * * * * * * * * * //

dimensions      [0 1 -1 0 0 0 0];

internalField   nonuniform List<vector> 
10154
(
(0.000214494 -0.00182904 0.00813051)
(-0.00209409 -0.00238682 0.00778597)
(-0.000422043 -0.00700952 0.0249198)
(-0.00608513 -0.00673518 0.0193244)
(-0.000731768 0.00018196 0.0822794)
(0.000117219 0.000326925 0.101656)
(-0.00569869 -0.00619534 0.0175978)
(-0.000672218 6.71796e-05 0.0837114)
(-6.55339e-05 -2.90128e-05 0.10027)
(-0.000253628 -0.000232218 0.0987884)
(3.76404e-05 -0.000177631 0.0974606)
(0.000323434 0.00110198 0.119932)
(-4.8838e-05 0.00109476 0.121261)
(-0.00136092 -0.000886912 0.00516112)
(-0.000502267 -7.60896e-05 0.0843936)
(0.000101407 -0.000363743 0.0965676)
(0.000192347 0.000894189 0.119592)
(5.3943e-05 0.000904212 0.120985)
(-4.27741e-05 0.000953089 0.120131)
(-0.000210893 0.00108544 0.119519)
(-8.63342e-05 0.000904726 0.120055)
(5.96728e-06 0.000883534 0.11895)
(-0.0043655 -0.00430582 0.0161987)
(-0.000472953 -0.000374311 0.0788783)
(0.000599908 0.000572889 0.119297)
(5.33815e-05 0.000832339 0.119592)
(1.22417e-05 0.000658432 0.119305)
(0.000106749 0.000738002 0.118462)
(1.61253e-05 0.000743352 0.118229)
(0.000154188 0.00085349 0.118376)
(0.000227893 0.000968894 0.117727)
(-2.19142e-05 0.000953915 0.117624)
(-0.00431958 -0.00437314 0.0162387)
(-0.000281072 -0.000282347 0.0782821)
(0.000470399 0.000589655 0.117802)
(6.25512e-05 0.000510587 0.120397)
(0.00032636 0.000500832 0.118208)
(0.000147664 0.000649822 0.117516)
(0.000137328 0.000713514 0.117453)
(5.44213e-05 0.000724364 0.117398)
(2.33801e-05 0.000831328 0.117473)
(3.24701e-05 0.000693954 0.117344)
(-4.83789e-06 0.000719029 0.117356)
(-0.000887334 -0.00136004 0.00516087)
(-0.000373301 -0.000474059 0.0789044)
(0.000593108 0.000470002 0.11781)
(0.000202597 0.000200492 0.120568)
(0.0004764 0.000500697 0.117954)
(0.000228438 0.000482573 0.117388)
(0.000231255 0.000531052 0.117189)
(0.000174547 0.000576991 0.11713)
(0.00013071 0.000595236 0.116982)
(0.0001231 0.00064852 0.116979)
(0.000118421 0.000658396 0.116829)
(2.70764e-06 0.000673126 0.11682)
(-6.91714e-05 -0.000500168 0.0843976)
(0.000572452 0.000602633 0.119311)
(0.000512786 6.37609e-05 0.120402)
(0.000501528 0.000475732 0.117959)
(0.000347723 0.000346865 0.11728)
(0.000355876 0.000450874 0.117103)
(0.000241145 0.000456842 0.116897)
(0.000201495 0.000506692 0.116778)
(0.000126462 0.000495594 0.116652)
(8.76141e-05 0.000538538 0.116619)
(5.73637e-05 0.000488418 0.116541)
(1.07862e-05 0.000501508 0.11653)
(-0.00619636 -0.0057011 0.0175977)
(-0.000363195 0.000101556 0.0965725)
(0.000832423 5.53213e-05 0.119598)
(0.000501527 0.000327089 0.118212)
(0.000482844 0.000228646 0.117391)
(0.000451524 0.000355771 0.117104)
(0.000338569 0.000338557 0.116894)
(0.000287631 0.000374499 0.116663)
(0.000213512 0.000385968 0.116524)
(0.00016257 0.000395809 0.116387)
(0.000116218 0.000416816 0.116327)
(8.16563e-05 0.000415702 0.116246)
(1.58995e-05 0.000423705 0.116225)
(6.70675e-05 -0.000672914 0.0837127)
(0.000892095 0.000192785 0.119594)
(0.000658263 1.30238e-05 0.119309)
(0.000650619 0.000147623 0.117518)
(0.000530922 0.00023142 0.117192)
(0.000457452 0.000240662 0.116899)
(0.000374626 0.000287425 0.116664)
(0.000288658 0.000288249 0.116446)
(0.000222864 0.000311877 0.116305)
(0.000157309 0.000305564 0.116181)
(0.000107556 0.000320714 0.116117)
(6.43234e-05 0.000305379 0.116057)
(1.80582e-05 0.000310068 0.116037)
(-0.00238676 -0.00209397 0.00778614)
(-2.90942e-05 -6.53231e-05 0.100271)
(0.00090347 5.46829e-05 0.120988)
(0.000738117 0.00010785 0.118465)
(0.00071371 0.000137889 0.117455)
(0.000576804 0.000175057 0.117132)
(0.000506963 0.000201608 0.116779)
(0.000386065 0.00021368 0.116525)
(0.000312098 0.000222849 0.116305)
(0.000230861 0.00023087 0.116156)
(0.000171434 0.000233092 0.116031)
(0.000116076 0.000240717 0.115958)
(7.10782e-05 0.000239156 0.1159)
(1.99849e-05 0.000242251 0.115877)
(-0.00700919 -0.000422144 0.0249199)
(-0.000231767 -0.000253607 0.0987898)
(0.000952243 -4.34689e-05 0.120133)
(0.000743201 1.61136e-05 0.118232)
(0.000724559 5.34746e-05 0.117399)
(0.000594673 0.000130899 0.116984)
(0.000495876 0.000126135 0.116653)
(0.000395799 0.000162598 0.116388)
(0.000305815 0.0001571 0.116181)
(0.000233111 0.000171372 0.116032)
(0.00016717 0.000167019 0.115919)
(0.000113647 0.000173028 0.115847)
(6.58868e-05 0.000167841 0.115797)
(2.04726e-05 0.000169891 0.115776)
(-0.0067347 -0.00608381 0.0193247)
(-0.000178275 3.76997e-05 0.0974636)
(0.001085 -0.000210344 0.119522)
(0.000853356 0.000154574 0.118379)
(0.000831711 2.33063e-05 0.117475)
(0.000648952 0.000123362 0.11698)
(0.000538654 8.78001e-05 0.11662)
(0.000417034 0.000116381 0.116328)
(0.000320843 0.000107582 0.116117)
(0.000240773 0.000116134 0.115959)
(0.000173096 0.000113649 0.115848)
(0.000116908 0.000116902 0.115775)
(6.79524e-05 0.000115698 0.115728)
(2.15136e-05 0.000116694 0.115707)
(0.000182285 -0.000734129 0.0822864)
(0.00110047 0.000321953 0.119937)
(0.000904214 -8.82539e-05 0.120057)
(0.000968142 0.000227754 0.117729)
(0.000694016 3.20108e-05 0.117345)
(0.000658087 0.000118425 0.11683)
(0.000488603 5.74168e-05 0.116542)
(0.000415533 8.17007e-05 0.116246)
(0.00030552 6.4307e-05 0.116057)
(0.000239148 7.10786e-05 0.1159)
(0.000167925 6.58577e-05 0.115798)
(0.000115697 6.79479e-05 0.115729)
(6.56957e-05 6.57078e-05 0.115689)
(2.17748e-05 6.64568e-05 0.115673)
(-0.00182966 0.000214676 0.00813172)
(0.000327048 0.000117217 0.101663)
(0.00109669 -4.87923e-05 0.121266)
(0.000884546 5.85477e-06 0.118953)
(0.000955204 -2.19396e-05 0.117624)
(0.000719535 -5.05436e-06 0.117357)
(0.000674062 2.6799e-06 0.116819)
(0.000501659 1.05226e-05 0.116529)
(0.00042385 1.58961e-05 0.116225)
(0.000310147 1.80167e-05 0.116036)
(0.000242298 2.00159e-05 0.115877)
(0.000169947 2.04878e-05 0.115776)
(0.000116745 2.15531e-05 0.115708)
(6.6461e-05 2.18048e-05 0.115673)
(2.16484e-05 2.16741e-05 0.115661)
(0.000206336 -0.00192949 0.00838757)
(-0.0020416 -0.00237563 0.00805707)
(-0.000308494 -0.0062609 0.0259412)
(-0.00560695 -0.00613028 0.0207681)
(-0.000678834 -0.000245936 0.0822042)
(0.00030821 -9.69926e-05 0.10148)
(-0.00534749 -0.00544533 0.0190996)
(-0.00060202 -0.000159466 0.0837638)
(-2.04328e-05 -0.000335059 0.100261)
(-0.000216779 -0.00059398 0.0988568)
(7.76749e-05 -0.000527735 0.0975729)
(0.000299098 0.000578811 0.120138)
(-1.10072e-05 0.000368904 0.121398)
(-0.00135347 -0.00110728 0.00540479)
(-0.00060752 -9.33498e-05 0.084588)
(9.91006e-05 -0.000658433 0.0965651)
(0.000246396 0.000521158 0.119712)
(9.67003e-05 0.000360524 0.120974)
(2.40278e-05 0.000432933 0.120049)
(-0.000212459 0.000472792 0.119426)
(-0.000137857 0.000182603 0.120084)
(6.41527e-06 0.000155564 0.119021)
(-0.0039201 -0.0038878 0.0176602)
(-0.00059823 -0.000630348 0.0788983)
(0.000611455 0.000314319 0.119312)
(-0.000150595 0.000389716 0.11966)
(-6.01559e-05 0.00012297 0.119427)
(2.56944e-05 0.000120851 0.118554)
(-4.48953e-06 7.98614e-05 0.118347)
(8.77221e-05 0.000113578 0.118478)
(0.000111235 0.000236012 0.11789)
(-1.04919e-05 0.000229769 0.11774)
(-0.00389814 -0.00392743 0.0176989)
(-0.000455501 -0.000453888 0.0783227)
(0.000392677 0.00039977 0.117889)
(-0.000206515 8.01147e-05 0.120535)
(0.000147102 7.26656e-05 0.118321)
(3.63512e-05 0.000187823 0.117597)
(6.02034e-05 0.000190947 0.117514)
(1.6891e-05 0.000203615 0.117469)
(-2.0849e-06 0.000234121 0.117545)
(-8.17016e-06 0.000156888 0.117421)
(3.05073e-08 0.000167579 0.117427)
(-0.00110679 -0.00135346 0.00540538)
(-0.000628682 -0.000598447 0.0789234)
(0.000400441 0.00039282 0.117897)
(-0.000146001 -0.000144403 0.120675)
(0.000205729 0.000176232 0.118048)
(1.58724e-05 0.000118246 0.117448)
(6.84135e-05 0.000140314 0.117258)
(3.77885e-05 0.000136846 0.117205)
(3.6482e-05 0.000139347 0.11706)
(4.30963e-05 0.000148789 0.117062)
(4.28771e-05 0.000163987 0.11692)
(-8.52742e-07 0.000167578 0.116912)
(-9.27315e-05 -0.000607164 0.0845937)
(0.000313006 0.000612034 0.119325)
(8.07588e-05 -0.000207157 0.120541)
(0.000175959 0.000205663 0.118052)
(5.57411e-05 5.61754e-05 0.11734)
(0.000115235 0.000127097 0.117175)
(5.35827e-05 0.000116817 0.116971)
(5.90294e-05 0.000135187 0.116854)
(2.87058e-05 0.000129185 0.116726)
(2.22404e-05 0.000141063 0.116693)
(1.01804e-05 0.000117498 0.116618)
(3.9891e-06 0.000121752 0.116608)
(-0.0054447 -0.00534748 0.0190996)
(-0.000658665 9.85878e-05 0.0965708)
(0.000390053 -0.000150403 0.119667)
(7.26197e-05 0.000147029 0.118325)
(0.000117605 1.54632e-05 0.117451)
(0.000127164 0.000115305 0.117176)
(7.6122e-05 7.62833e-05 0.11697)
(7.64145e-05 0.0001012 0.116737)
(5.02561e-05 9.36151e-05 0.116599)
(4.24239e-05 0.000100421 0.116458)
(3.14273e-05 0.000102459 0.116399)
(2.37008e-05 0.000105368 0.116316)
(3.62319e-06 0.000106703 0.116297)
(-0.000159324 -0.000602243 0.0837651)
(0.000520328 0.000246336 0.119715)
(0.000122886 -6.03275e-05 0.119431)
(0.000187968 3.55346e-05 0.1176)
(0.0001401 6.82987e-05 0.11726)
(0.000116961 5.32529e-05 0.116972)
(0.000101138 7.63068e-05 0.116738)
(7.09465e-05 7.07187e-05 0.116517)
(5.83295e-05 8.0337e-05 0.116373)
(3.75965e-05 7.63858e-05 0.116245)
(2.72312e-05 8.07144e-05 0.11618)
(1.44763e-05 7.35448e-05 0.116118)
(5.0916e-06 7.48424e-05 0.116099)
(-0.00237574 -0.0020414 0.00805721)
(-0.000335135 -2.03334e-05 0.100262)
(0.000360274 9.68937e-05 0.120976)
(0.00012091 2.57969e-05 0.118557)
(0.000190966 6.0394e-05 0.117517)
(0.000136693 3.79626e-05 0.117207)
(0.00013526 5.91279e-05 0.116855)
(9.35579e-05 5.04068e-05 0.1166)
(8.04485e-05 5.83873e-05 0.116373)
(5.59353e-05 5.59801e-05 0.116221)
(4.28234e-05 5.86422e-05 0.116091)
(2.86056e-05 5.86259e-05 0.116016)
(1.7865e-05 5.90872e-05 0.115955)
(4.83523e-06 5.93008e-05 0.115932)
(-0.00626101 -0.000308574 0.0259414)
(-0.000593756 -0.000217074 0.0988585)
(0.00043249 2.33628e-05 0.120051)
(7.98306e-05 -4.68335e-06 0.118349)
(0.000203797 1.62233e-05 0.117471)
(0.000139046 3.64151e-05 0.117062)
(0.000129312 2.83868e-05 0.116728)
(0.000100312 4.23465e-05 0.116459)
(7.65046e-05 3.74224e-05 0.116246)
(5.85872e-05 4.27433e-05 0.116092)
(4.02523e-05 4.01476e-05 0.115974)
(2.76955e-05 4.17208e-05 0.115899)
(1.51679e-05 3.93108e-05 0.115846)
(5.06394e-06 3.97657e-05 0.115825)
(-0.0061299 -0.00560555 0.0207685)
(-0.000527972 7.75214e-05 0.0975753)
(0.000472849 -0.000212293 0.119429)
(0.000113616 8.78767e-05 0.118481)
(0.000234258 -2.18019e-06 0.117548)
(0.000148984 4.32295e-05 0.117063)
(0.000141131 2.22987e-05 0.116694)
(0.000102549 3.15527e-05 0.116399)
(8.08205e-05 2.72964e-05 0.11618)
(5.86543e-05 2.8684e-05 0.116016)
(4.18028e-05 2.77514e-05 0.1159)
(2.77739e-05 2.77848e-05 0.115823)
(1.5914e-05 2.76302e-05 0.115774)
(5.06973e-06 2.74826e-05 0.115752)
(-0.000245716 -0.000679766 0.0822122)
(0.000578297 0.000298573 0.120144)
(0.000182488 -0.000138926 0.120086)
(0.000235736 0.000110967 0.117892)
(0.000157048 -8.61558e-06 0.117422)
(0.00016384 4.27061e-05 0.116921)
(0.000117621 9.989e-06 0.116618)
(0.000105268 2.36078e-05 0.116317)
(7.36145e-05 1.43671e-05 0.116118)
(5.90247e-05 1.78047e-05 0.115955)
(3.93477e-05 1.51201e-05 0.115847)
(2.75734e-05 1.58705e-05 0.115775)
(1.48764e-05 1.48843e-05 0.115733)
(4.98754e-06 1.49224e-05 0.115715)
(-0.00192999 0.000207303 0.00838968)
(-9.70382e-05 0.000308379 0.101488)
(0.000369728 -1.10171e-05 0.121402)
(0.000155917 6.33144e-06 0.119024)
(0.000230411 -1.04472e-05 0.117741)
(0.000167806 -1.0559e-07 0.117428)
(0.000168025 -7.55829e-07 0.116911)
(0.000121896 3.9654e-06 0.116607)
(0.000106875 3.72982e-06 0.116297)
(7.49772e-05 5.16964e-06 0.116099)
(5.93916e-05 4.93721e-06 0.115932)
(3.98624e-05 5.15227e-06 0.115825)
(2.75286e-05 5.14666e-06 0.115752)
(1.49673e-05 5.07326e-06 0.115715)
(5.00538e-06 5.03949e-06 0.115701)
(0.000207607 -0.00197316 0.00840928)
(-0.00205723 -0.00241738 0.00808894)
(-0.000251471 -0.00617849 0.0262172)
(-0.00546393 -0.00604701 0.0211155)
(-0.000428603 -0.000318516 0.0823342)
(0.000340657 -0.000104089 0.101525)
(-0.00521827 -0.00531787 0.0194055)
(-0.000277823 -0.00010928 0.083835)
(3.12665e-05 -0.000265951 0.100361)
(-0.000123297 -0.000614867 0.0989696)
(-3.86416e-05 -0.00071398 0.0977345)
(4.90781e-05 -0.000120017 0.120138)
(-5.87098e-05 -0.000345808 0.121376)
(-0.00133973 -0.00119914 0.005417)
(-0.000447323 2.1632e-05 0.084632)
(-2.86855e-05 -0.000685175 0.0965912)
(0.000185225 8.37112e-05 0.119692)
(8.34037e-05 -0.000200288 0.120893)
(0.000126744 -0.000143452 0.119948)
(-9.97556e-05 -0.00025503 0.119331)
(-0.000107138 -0.000489581 0.120074)
(3.52641e-05 -0.000450095 0.119002)
(-0.0038406 -0.00380908 0.0179263)
(-0.00050332 -0.000638771 0.0789882)
(0.000525855 -3.1047e-06 0.119254)
(-0.000221945 -2.20554e-05 0.119642)
(-5.00214e-05 -0.000326563 0.119441)
(-2.31768e-05 -0.000360095 0.11857)
(-1.36153e-05 -0.000436939 0.118367)
(3.68064e-05 -0.000507474 0.118504)
(-2.51419e-06 -0.000419887 0.117894)
(-3.48236e-06 -0.000444251 0.117722)
(-0.0038194 -0.00384814 0.0179644)
(-0.000395783 -0.000393305 0.0784248)
(0.000293596 0.000210926 0.11781)
(-0.000363993 -0.000208056 0.120564)
(4.47621e-06 -0.000267825 0.118311)
(-7.05328e-05 -0.00023742 0.117576)
(-2.2084e-05 -0.000310472 0.11748)
(-2.25868e-05 -0.000304357 0.117431)
(-2.35328e-05 -0.000348646 0.117508)
(-4.17797e-05 -0.000372218 0.117388)
(8.13362e-06 -0.000372065 0.117396)
(-0.00119857 -0.00133989 0.00541703)
(-0.000637991 -0.000503214 0.0790132)
(0.000209334 0.000294553 0.117819)
(-0.000367286 -0.000364667 0.120697)
(-3.05878e-05 -0.000108803 0.118039)
(-0.000188485 -0.000226736 0.117435)
(-8.69181e-05 -0.000236969 0.117246)
(-9.54199e-05 -0.000285935 0.117194)
(-5.63542e-05 -0.000297799 0.117044)
(-3.3938e-05 -0.000332262 0.117048)
(-3.07535e-05 -0.000315628 0.116904)
(-4.61165e-06 -0.000325943 0.116895)
(2.10162e-05 -0.000447958 0.0846381)
(-4.78275e-06 0.000525435 0.119266)
(-0.000209387 -0.000364738 0.120571)
(-0.000110075 -3.0156e-05 0.118042)
(-0.000224348 -0.000223778 0.117333)
(-0.000122342 -0.000186943 0.117163)
(-0.000132916 -0.00021759 0.116957)
(-8.31289e-05 -0.000232246 0.116835)
(-6.88815e-05 -0.000234527 0.116706)
(-4.2277e-05 -0.000253823 0.116673)
(-3.58117e-05 -0.000253571 0.116598)
(-2.25762e-06 -0.000257366 0.116589)
(-0.00531709 -0.00521834 0.0194055)
(-0.000684986 -3.01012e-05 0.0965973)
(-2.18179e-05 -0.000222999 0.119649)
(-0.000268731 3.82549e-06 0.118316)
(-0.000228029 -0.000188432 0.117438)
(-0.000187365 -0.000122104 0.117165)
(-0.000183489 -0.000183083 0.116958)
(-0.000132487 -0.000169351 0.116723)
(-0.000112225 -0.000195938 0.116586)
(-7.77578e-05 -0.000192576 0.116443)
(-5.30099e-05 -0.00020971 0.116386)
(-3.42702e-05 -0.000203731 0.116302)
(-8.24262e-06 -0.000209406 0.116284)
(-0.000108898 -0.000278152 0.0838362)
(8.37462e-05 0.000184311 0.119695)
(-0.000326693 -5.11428e-05 0.119445)
(-0.000237606 -7.19053e-05 0.117579)
(-0.000237348 -8.7262e-05 0.117248)
(-0.000217813 -0.000133222 0.116958)
(-0.000169602 -0.000132515 0.116724)
(-0.000145753 -0.000145831 0.116503)
(-0.000106282 -0.000151371 0.116359)
(-8.25968e-05 -0.000153203 0.116232)
(-5.33925e-05 -0.000160525 0.116167)
(-3.54909e-05 -0.000159733 0.116106)
(-7.80751e-06 -0.000162158 0.116087)
(-0.00241752 -0.00205668 0.00808891)
(-0.000266092 3.13746e-05 0.100362)
(-0.000200104 8.28816e-05 0.120896)
(-0.000360121 -2.36492e-05 0.118573)
(-0.000310645 -2.24083e-05 0.117482)
(-0.000286154 -9.55197e-05 0.117196)
(-0.000232355 -8.3114e-05 0.116837)
(-0.000196121 -0.00011207 0.116588)
(-0.000151348 -0.000106156 0.11636)
(-0.000119612 -0.000119519 0.116209)
(-8.69047e-05 -0.000116737 0.11608)
(-5.95483e-05 -0.000124625 0.116006)
(-3.59032e-05 -0.000122435 0.115944)
(-1.04766e-05 -0.000125183 0.115922)
(-0.00617854 -0.000251488 0.0262173)
(-0.000614946 -0.000124108 0.0989715)
(-0.000143738 0.000125922 0.11995)
(-0.000436919 -1.41336e-05 0.11837)
(-0.000304202 -2.31124e-05 0.117432)
(-0.000297839 -5.67106e-05 0.117047)
(-0.000234495 -6.92455e-05 0.116708)
(-0.000192718 -7.79492e-05 0.116445)
(-0.000153193 -8.27618e-05 0.116233)
(-0.000116864 -8.7011e-05 0.11608)
(-8.76984e-05 -8.77695e-05 0.115963)
(-5.90798e-05 -9.10742e-05 0.115889)
(-3.60435e-05 -9.07538e-05 0.115837)
(-1.05511e-05 -9.19356e-05 0.115816)
(-0.00604679 -0.00546235 0.021116)
(-0.000713941 -3.89792e-05 0.0977362)
(-0.000254411 -9.99477e-05 0.119334)
(-0.000507238 3.67512e-05 0.118507)
(-0.000348666 -2.36009e-05 0.11751)
(-0.000332322 -3.38584e-05 0.117049)
(-0.000253765 -4.22143e-05 0.116674)
(-0.000209693 -5.28892e-05 0.116386)
(-0.000160419 -5.32748e-05 0.116167)
(-0.000124623 -5.94365e-05 0.116006)
(-9.09677e-05 -5.8959e-05 0.11589)
(-6.25363e-05 -6.24985e-05 0.115814)
(-3.67675e-05 -6.19053e-05 0.115764)
(-1.15605e-05 -6.31326e-05 0.115743)
(-0.000318106 -0.000428386 0.0823421)
(-0.00011959 4.94515e-05 0.120143)
(-0.000489445 -0.000107368 0.120076)
(-0.000419735 -2.75906e-06 0.117896)
(-0.000371931 -4.22462e-05 0.117389)
(-0.000315534 -3.10493e-05 0.116905)
(-0.000253494 -3.61761e-05 0.116599)
(-0.000203816 -3.45061e-05 0.116303)
(-0.000159732 -3.5708e-05 0.116106)
(-0.000122556 -3.60626e-05 0.115945)
(-9.0758e-05 -3.61388e-05 0.115838)
(-6.20291e-05 -3.6879e-05 0.115765)
(-3.66724e-05 -3.66858e-05 0.115724)
(-1.18297e-05 -3.72438e-05 0.115707)
(-0.00197358 0.000208597 0.00841121)
(-0.000104104 0.000340909 0.101533)
(-0.000345861 -5.86215e-05 0.12138)
(-0.000450109 3.52235e-05 0.119006)
(-0.000444264 -3.38307e-06 0.117723)
(-0.000372133 8.16876e-06 0.117397)
(-0.000325896 -4.32076e-06 0.116894)
(-0.000257244 -2.08008e-06 0.116588)
(-0.00020924 -8.02061e-06 0.116283)
(-0.000161977 -7.61228e-06 0.116086)
(-0.000125058 -1.03036e-05 0.115922)
(-9.17797e-05 -1.03779e-05 0.115815)
(-6.3087e-05 -1.1442e-05 0.115744)
(-3.71319e-05 -1.16782e-05 0.115707)
(-1.20446e-05 -1.2018e-05 0.115693)
(0.000207013 -0.00197944 0.00842892)
(-0.00205281 -0.00243326 0.00810301)
(-0.000205796 -0.00626507 0.0263677)
(-0.00535391 -0.00611496 0.0212602)
(-0.00031087 -0.000506325 0.0827833)
(0.000291161 -0.000230879 0.101896)
(-0.0051388 -0.00534455 0.0194818)
(-3.30539e-05 -0.000179564 0.0839786)
(8.88344e-05 -0.000358421 0.100642)
(-1.38035e-05 -0.000823389 0.0992087)
(-0.000188047 -0.00110622 0.098155)
(-0.000299135 -0.000997754 0.120245)
(-0.000102717 -0.00117802 0.121458)
(-0.00132859 -0.00121655 0.00542244)
(-0.00039262 -1.28141e-05 0.0847111)
(-0.000145191 -0.000834034 0.0966457)
(0.000121758 -0.000432515 0.119731)
(7.65676e-05 -0.000868462 0.120952)
(0.000219827 -0.000829003 0.119994)
(4.61417e-05 -0.00109215 0.119427)
(-5.7375e-05 -0.00118592 0.120138)
(5.70732e-05 -0.00109179 0.119038)
(-0.00382855 -0.00380574 0.0179708)
(-0.000478855 -0.000709068 0.0790953)
(0.000377093 -0.000338891 0.119329)
(-0.000275301 -0.000451977 0.119709)
(-3.29361e-05 -0.000793903 0.119476)
(-8.65681e-05 -0.00087501 0.118602)
(-3.37985e-05 -0.000988252 0.118365)
(-3.47774e-05 -0.00115289 0.118545)
(-0.000147576 -0.00112566 0.117834)
(-3.42332e-06 -0.00116258 0.117654)
(-0.00381649 -0.00383633 0.0180089)
(-0.000425305 -0.000419816 0.0785089)
(0.000143446 -1.88107e-05 0.117875)
(-0.000518674 -0.000522185 0.12061)
(-0.00018233 -0.000639261 0.118279)
(-0.000200487 -0.000707036 0.117515)
(-0.000118199 -0.000856839 0.117403)
(-6.75922e-05 -0.000847528 0.117346)
(-4.41605e-05 -0.000968953 0.117431)
(-7.48499e-05 -0.000920926 0.117301)
(1.48146e-05 -0.000925219 0.117308)
(-0.00121607 -0.00132876 0.00542231)
(-0.000708091 -0.000478385 0.0791229)
(-2.3916e-05 0.000145911 0.117885)
(-0.000594337 -0.000588467 0.120756)
(-0.000306717 -0.00043545 0.118006)
(-0.000406969 -0.00059158 0.117384)
(-0.000251379 -0.000624575 0.117174)
(-0.000233962 -0.000712828 0.117116)
(-0.000150886 -0.000735495 0.116961)
(-0.000114199 -0.000812846 0.116969)
(-0.000110127 -0.0007973 0.116809)
(-9.22992e-06 -0.000819842 0.116798)
(-1.36379e-05 -0.000394157 0.0847176)
(-0.000340763 0.000375074 0.119342)
(-0.000525489 -0.000521329 0.120617)
(-0.000438243 -0.000305726 0.11801)
(-0.000520695 -0.000519933 0.117283)
(-0.000373618 -0.000512499 0.117084)
(-0.000325668 -0.000558534 0.116869)
(-0.000228928 -0.00060382 0.116741)
(-0.000167067 -0.000599422 0.116613)
(-0.000106706 -0.00065051 0.116581)
(-8.20822e-05 -0.000622191 0.116505)
(-8.29779e-06 -0.000632984 0.116495)
(-0.00534389 -0.00513913 0.0194817)
(-0.000833329 -0.000147758 0.0966525)
(-0.000451817 -0.000277559 0.119716)
(-0.000641337 -0.000183748 0.118284)
(-0.000593893 -0.000406461 0.117387)
(-0.000513508 -0.000373208 0.117085)
(-0.000446976 -0.000446278 0.116872)
(-0.00034289 -0.000440265 0.116633)
(-0.000274682 -0.000482569 0.116497)
(-0.000197356 -0.000481043 0.116356)
(-0.000137048 -0.000516806 0.1163)
(-9.27656e-05 -0.00050723 0.116216)
(-1.99727e-05 -0.000519624 0.116198)
(-0.000179413 -3.41063e-05 0.0839796)
(-0.000431751 0.000119904 0.119733)
(-0.000793621 -3.55254e-05 0.11948)
(-0.000707481 -0.000203219 0.117518)
(-0.000625496 -0.00025207 0.117176)
(-0.000559141 -0.00032601 0.11687)
(-0.000440706 -0.000342853 0.116634)
(-0.000361966 -0.000361912 0.116414)
(-0.000269648 -0.000380938 0.116272)
(-0.000201242 -0.000379533 0.116149)
(-0.00013287 -0.000398171 0.116086)
(-8.49275e-05 -0.000388646 0.116026)
(-2.05766e-05 -0.00039443 0.116008)
(-0.0024332 -0.00205221 0.00810289)
(-0.000358276 8.90886e-05 0.100643)
(-0.000867792 7.5372e-05 0.120955)
(-0.000875606 -8.75237e-05 0.118605)
(-0.000857068 -0.000119438 0.117405)
(-0.000712752 -0.000234205 0.117118)
(-0.000604103 -0.000229 0.116742)
(-0.000482884 -0.00027451 0.116498)
(-0.000380988 -0.000269462 0.116273)
(-0.000292341 -0.000292202 0.116127)
(-0.000214595 -0.000288753 0.116002)
(-0.000146194 -0.000304147 0.115931)
(-8.90597e-05 -0.000300083 0.115871)
(-2.55336e-05 -0.000305508 0.11585)
(-0.00626507 -0.000205556 0.0263679)
(-0.000823588 -1.53854e-05 0.0992101)
(-0.0008292 0.000218736 0.119995)
(-0.000988092 -3.43998e-05 0.118369)
(-0.00084729 -6.77709e-05 0.117347)
(-0.000735258 -0.000151647 0.116963)
(-0.000599618 -0.000167514 0.116614)
(-0.000481226 -0.000197669 0.116357)
(-0.00037963 -0.000201416 0.11615)
(-0.000288945 -0.000214737 0.116002)
(-0.000213188 -0.000213242 0.11589)
(-0.000144196 -0.000221325 0.115819)
(-8.62913e-05 -0.000218128 0.115769)
(-2.59662e-05 -0.000220828 0.115749)
(-0.00611487 -0.00535216 0.0212607)
(-0.00110563 -0.000188574 0.0981557)
(-0.00109036 4.53845e-05 0.11943)
(-0.00115263 -3.50721e-05 0.118548)
(-0.000969359 -4.42459e-05 0.117434)
(-0.000813042 -0.000114356 0.11697)
(-0.000650343 -0.00010665 0.116582)
(-0.000516848 -0.000136931 0.116301)
(-0.000398051 -0.000132707 0.116086)
(-0.000304168 -0.000146049 0.115931)
(-0.000221185 -0.000144018 0.115819)
(-0.000151092 -0.000151031 0.115747)
(-8.85708e-05 -0.000149584 0.1157)
(-2.795e-05 -0.000152043 0.11568)
(-0.000505476 -0.000309246 0.0827895)
(-0.000996222 -0.000297448 0.120251)
(-0.00118558 -5.67555e-05 0.12014)
(-0.00112484 -0.00014806 0.117836)
(-0.000920555 -7.51612e-05 0.117302)
(-0.000796917 -0.00011048 0.11681)
(-0.000622108 -8.26304e-05 0.116505)
(-0.000507303 -9.31266e-05 0.116217)
(-0.000388712 -8.52575e-05 0.116026)
(-0.000300255 -8.93016e-05 0.115872)
(-0.000218161 -8.64311e-05 0.11577)
(-0.000149768 -8.87516e-05 0.115701)
(-8.73026e-05 -8.73265e-05 0.115662)
(-2.83315e-05 -8.85429e-05 0.115646)
(-0.00197976 0.000208046 0.00843086)
(-0.000230765 0.000291888 0.101905)
(-0.00117883 -0.000102511 0.121462)
(-0.00109226 5.72727e-05 0.119041)
(-0.00116326 -3.07135e-06 0.117654)
(-0.000925473 1.49936e-05 0.117309)
(-0.000820266 -8.7805e-06 0.116798)
(-0.000632818 -7.91986e-06 0.116494)
(-0.000519444 -1.96424e-05 0.116197)
(-0.00039419 -2.02753e-05 0.116007)
(-0.000305334 -2.52934e-05 0.11585)
(-0.00022062 -2.57135e-05 0.115749)
(-0.000151986 -2.7801e-05 0.115681)
(-8.83627e-05 -2.81183e-05 0.115646)
(-2.86687e-05 -2.86365e-05 0.115633)
(0.00020175 -0.00198511 0.00847613)
(-0.00203982 -0.00247045 0.00813661)
(-0.000140039 -0.0065113 0.0266901)
(-0.00526002 -0.00627028 0.0215219)
(-0.000405915 -0.000906289 0.0838426)
(6.71853e-05 -0.000502233 0.102667)
(-0.00505041 -0.00543816 0.0195906)
(0.000218983 -0.00037484 0.0843757)
(0.000121962 -0.000660954 0.101215)
(0.000175626 -0.00134472 0.0996584)
(-0.000490454 -0.00194844 0.0990813)
(-0.000986655 -0.00239823 0.120343)
(-0.000178766 -0.00236216 0.121526)
(-0.00131993 -0.00122354 0.00542697)
(-0.000476953 -0.000172465 0.0850436)
(-0.000387382 -0.00113986 0.0967774)
(1.47337e-05 -0.00116791 0.119792)
(5.95119e-05 -0.00181286 0.12104)
(0.00034725 -0.00177263 0.12004)
(0.000191521 -0.00231721 0.119634)
(-7.86927e-05 -0.00204369 0.120183)
(6.43246e-05 -0.00186159 0.119069)
(-0.00383046 -0.0038196 0.0179988)
(-0.000565257 -0.000879169 0.0794345)
(0.000109468 -0.000822748 0.119488)
(-0.000384395 -0.00100126 0.119776)
(-5.88046e-05 -0.00135872 0.119471)
(-0.00018025 -0.00150675 0.118594)
(-4.28593e-05 -0.00164422 0.118318)
(-0.000149484 -0.00195207 0.118578)
(-0.000375227 -0.00194432 0.117682)
(-6.48996e-06 -0.00197908 0.117496)
(-0.00383052 -0.00383816 0.0180379)
(-0.000547544 -0.000538677 0.0787414)
(-0.000117764 -0.000384776 0.118068)
(-0.000789511 -0.000934645 0.12066)
(-0.00044342 -0.00111012 0.118189)
(-0.000364325 -0.00125504 0.117382)
(-0.000230088 -0.00148263 0.117254)
(-0.000108374 -0.00144786 0.117195)
(-7.00322e-05 -0.00168171 0.117305)
(-0.000122286 -0.00149412 0.117135)
(2.07043e-05 -0.00150034 0.117142)
(-0.00122307 -0.00132017 0.00542683)
(-0.0008813 -0.000565172 0.0794663)
(-0.000395942 -0.000113937 0.118077)
(-0.00093712 -0.00092964 0.120856)
(-0.00066693 -0.00083212 0.117937)
(-0.000660498 -0.000996701 0.117262)
(-0.000437487 -0.00103581 0.117023)
(-0.000381646 -0.00115717 0.116954)
(-0.000246798 -0.00118571 0.116801)
(-0.00020369 -0.0013138 0.116813)
(-0.000201963 -0.00128716 0.11663)
(-1.48314e-05 -0.00132153 0.116615)
(-0.000173508 -0.000479737 0.0850507)
(-0.000825852 0.000103352 0.119504)
(-0.000940453 -0.000792166 0.120668)
(-0.000836141 -0.000665435 0.117941)
(-0.000858385 -0.000856903 0.117166)
(-0.000651743 -0.00086575 0.11692)
(-0.000529027 -0.00091396 0.1167)
(-0.000379301 -0.000984815 0.116565)
(-0.000264109 -0.000968474 0.116444)
(-0.000172165 -0.00105269 0.116414)
(-0.000130406 -0.000984865 0.116334)
(-1.45995e-05 -0.00100171 0.116323)
(-0.00543766 -0.00505067 0.0195905)
(-0.00113917 -0.000392115 0.0967843)
(-0.00100224 -0.000388841 0.119783)
(-0.00111325 -0.000445983 0.118193)
(-0.000999797 -0.000660159 0.117265)
(-0.000867304 -0.000651161 0.116921)
(-0.000719019 -0.000718046 0.116699)
(-0.000556726 -0.000713538 0.11646)
(-0.000435917 -0.000765666 0.116326)
(-0.000314402 -0.000763667 0.116194)
(-0.000220278 -0.000817456 0.11614)
(-0.000151385 -0.000801331 0.116058)
(-3.17427e-05 -0.000819802 0.116039)
(-0.000375395 0.000216974 0.0843765)
(-0.00116627 1.13793e-05 0.119794)
(-0.001358 -6.2695e-05 0.119474)
(-0.00125588 -0.000367325 0.117384)
(-0.00103662 -0.000438448 0.117025)
(-0.000914872 -0.000529383 0.116701)
(-0.00071417 -0.000556618 0.116461)
(-0.000576673 -0.000576466 0.116248)
(-0.000429352 -0.000605405 0.11611)
(-0.000315805 -0.000599208 0.115996)
(-0.000209831 -0.000627967 0.115936)
(-0.000132831 -0.000607995 0.11588)
(-3.30398e-05 -0.000616539 0.115863)
(-0.00247057 -0.0020395 0.0081365)
(-0.000660282 0.000121934 0.101216)
(-0.00181167 5.81091e-05 0.121043)
(-0.00150723 -0.000181304 0.118598)
(-0.0014829 -0.000231502 0.117257)
(-0.00115763 -0.000382101 0.116957)
(-0.000985295 -0.000379474 0.116566)
(-0.000766095 -0.000435725 0.116327)
(-0.000605534 -0.000429108 0.116111)
(-0.000458704 -0.000458516 0.115973)
(-0.000336966 -0.000453717 0.115858)
(-0.000229115 -0.000475632 0.115792)
(-0.000140024 -0.00046913 0.115737)
(-3.99525e-05 -0.000476915 0.115717)
(-0.00651138 -0.000139655 0.0266902)
(-0.00134492 0.00017255 0.099659)
(-0.00177172 0.0003456 0.120041)
(-0.00164363 -4.38848e-05 0.118321)
(-0.00144815 -0.000108831 0.117196)
(-0.0011853 -0.000247704 0.116803)
(-0.000968749 -0.000264599 0.116445)
(-0.00076388 -0.000314836 0.116195)
(-0.000599431 -0.000316003 0.115997)
(-0.00045397 -0.000337139 0.115858)
(-0.000332924 -0.000332975 0.115755)
(-0.000225245 -0.000345132 0.115689)
(-0.000134124 -0.000338872 0.115644)
(-4.06645e-05 -0.000342753 0.115626)
(-0.00627014 -0.00525789 0.0215225)
(-0.00194666 -0.000490373 0.0990812)
(-0.00231374 0.000190233 0.119638)
(-0.00195145 -0.000150469 0.11858)
(-0.0016819 -7.01607e-05 0.117308)
(-0.00131431 -0.000203838 0.116814)
(-0.0010527 -0.000172085 0.116415)
(-0.000817594 -0.000220176 0.11614)
(-0.000627833 -0.000209633 0.115936)
(-0.000475676 -0.000228927 0.115792)
(-0.000344961 -0.00022502 0.11569)
(-0.00023503 -0.000234945 0.115625)
(-0.000137659 -0.000232456 0.115582)
(-4.35241e-05 -0.000235832 0.115565)
(-0.000904331 -0.000401345 0.0838449)
(-0.00239404 -0.000982704 0.120349)
(-0.00204325 -7.70542e-05 0.120185)
(-0.00194262 -0.000375534 0.117684)
(-0.00149358 -0.00012272 0.117136)
(-0.00128653 -0.000202574 0.116631)
(-0.000984881 -0.000131132 0.116334)
(-0.000801422 -0.000151846 0.116058)
(-0.000608128 -0.000133259 0.115881)
(-0.000469348 -0.000140325 0.115737)
(-0.000338927 -0.000134308 0.115645)
(-0.000232688 -0.000137893 0.115583)
(-0.000135016 -0.000135036 0.115549)
(-4.39723e-05 -0.000136531 0.115535)
(-0.00198537 0.000202721 0.00847811)
(-0.00050202 6.88027e-05 0.10268)
(-0.0023648 -0.000178743 0.121531)
(-0.00186261 6.48348e-05 0.119072)
(-0.00198055 -6.02059e-06 0.117497)
(-0.0015008 2.09696e-05 0.117142)