/*--------------------------------*- C++ -*----------------------------------*\
| =========                 |                                                 |
| \\      /  F ield         | OpenFOAM: The Open Source CFD Toolbox           |
|  \\    /   O peration     | Version:  2.1.1                                 |
|   \\  /    A nd           | Web:      www.OpenFOAM.org                      |
|    \\/     M anipulation  |                                                 |
\*---------------------------------------------------------------------------*/
FoamFile
{
    version     2.0;
    format      ascii;
    class       surfaceScalarField;
    location    "0.003";
    object      phi;
}
// * * * * * * * * * * * * * * * * * * * * * * * * * * * * * * * * * * * * * //

dimensions      [0 3 -1 0 0 0 0];

internalField   nonuniform List<scalar> 
29776
(
-3.05897e-12
-9.20551e-14
-2.93269e-12
6.08371e-12
-2.61454e-12
2.24148e-13
-3.06581e-13
-2.94575e-12
5.64272e-12
2.30774e-12
5.09424e-12
9.81265e-10
6.92296e-11
6.93975e-11
-6.67662e-11
-6.69086e-11
7.47879e-11
4.62358e-12
7.97738e-10
6.99968e-11
7.31091e-11
-6.57919e-11
-7.03907e-11
4.96629e-11
-7.04425e-11
-4.69927e-11
1.9517e-11
-5.82505e-11
1.81576e-11
-1.63285e-11
1.11692e-10
1.38673e-11
-5.83385e-11
-7.73631e-12
2.37026e-12
-1.86009e-11
7.59094e-11
1.37225e-11
-1.06922e-11
-1.05017e-11
-4.86353e-11
1.35019e-11
-1.83624e-11
6.19812e-11
-2.86385e-13
1.18717e-11
-1.02905e-11
-9.69846e-12
-1.01203e-11
1.38427e-11
8.71859e-12
-1.25228e-11
-3.72616e-12
-5.95638e-13
-3.23292e-13
-2.55029e-12
7.19538e-12
-1.49602e-13
6.70979e-12
1.2218e-09
-1.39473e-12
6.00423e-12
1.20286e-09
2.42348e-12
2.28956e-12
9.63302e-10
4.79084e-11
6.17416e-11
-4.67008e-11
-6.06091e-11
2.6007e-12
1.86129e-12
9.68113e-10
6.48262e-11
6.70565e-11
-6.28157e-11
-6.51944e-11
4.38974e-12
2.84968e-12
9.78659e-10
6.71391e-11
6.75999e-11
-6.55639e-11
-6.51117e-11
6.68418e-11
3.45546e-12
8.07578e-10
6.77444e-11
6.84933e-11
-6.37239e-11
-6.56553e-11
4.69415e-11
-6.27025e-11
-4.4693e-11
-4.02693e-11
1.31592e-11
1.63106e-11
-1.3998e-11
9.00581e-11
1.71695e-11
-7.76884e-12
-7.81924e-12
3.68243e-13
1.51398e-12
-1.46272e-11
2.31315e-12
-2.993e-12
1.34249e-11
8.82152e-13
6.07026e-12
1.19781e-09
2.19292e-12
5.73573e-12
1.21426e-09
1.64173e-12
5.83232e-12
1.20415e-09
5.73789e-14
5.07183e-12
1.21236e-09
-4.9197e-13
5.30183e-12
1.22239e-09
-6.22139e-13
4.92347e-12
1.19643e-09
2.87784e-12
1.28572e-12
9.4471e-10
4.78139e-11
6.22513e-11
-4.69273e-11
-6.12134e-11
6.82709e-11
2.07832e-12
8.22377e-10
6.42249e-11
6.43391e-11
-6.13936e-11
-6.19053e-11
4.64682e-11
-6.38739e-11
-4.52735e-11
-2.87652e-11
1.05241e-11
-5.41304e-12
7.87769e-11
1.69056e-11
-6.4756e-12
-7.20755e-12
-8.00009e-12
1.58406e-11
1.11494e-11
-9.06348e-12
-9.63575e-13
5.96964e-13
-2.03428e-12
2.40088e-12
-8.25622e-13
4.94477e-12
1.18338e-09
-1.58955e-12
4.91126e-12
1.18773e-09
-3.75553e-13
5.14068e-12
1.19564e-09
1.26676e-13
4.31411e-12
1.19446e-09
2.45325e-13
4.50939e-12
1.19719e-09
1.82712e-13
3.91684e-12
1.2076e-09
-2.25844e-12
4.60995e-12
1.20564e-09
-8.69405e-13
3.62232e-12
1.19102e-09
6.73736e-11
1.61553e-12
7.63335e-10
4.46059e-11
6.79679e-11
-4.40555e-11
-6.52563e-11
4.92957e-11
-6.45159e-11
-4.63798e-11
1.83656e-11
-6.02965e-11
1.36979e-11
-1.52406e-11
1.10848e-10
2.89825e-12
-1.01273e-11
1.43347e-12
5.79564e-12
1.5907e-13
3.73452e-12
1.18294e-09
3.35638e-13
3.63001e-12
1.18301e-09
5.31521e-13
4.18547e-12
1.18489e-09
1.2596e-14
3.57133e-12
1.18329e-09
-4.60674e-13
3.532e-12
1.18297e-09
-1.50881e-12
3.3231e-12
1.18459e-09
-1.58329e-12
2.93924e-12
1.19574e-09
-1.9172e-12
3.99164e-12
1.2248e-09
-1.87269e-12
2.78483e-12
1.1807e-09
6.83775e-11
1.84729e-12
7.69292e-10
5.05204e-11
6.8389e-11
-4.82999e-11
-6.67872e-11
5.05027e-11
-6.67667e-11
-4.82698e-11
1.89593e-11
-6.35512e-11
1.33301e-11
-1.55215e-11
1.15161e-10
3.22348e-12
-1.10105e-11
1.57622e-12
6.21086e-12
-3.0644e-13
3.10739e-12
1.18016e-09
-6.28963e-13
2.98315e-12
1.18021e-09
-4.46317e-13
3.1951e-12
1.18173e-09
-5.11121e-13
2.79218e-12
1.18131e-09
-7.70156e-13
2.88188e-12
1.18214e-09
-1.05655e-12
2.61011e-12
1.18185e-09
-2.20333e-12
2.67863e-12
1.18415e-09
-2.77569e-12
2.72915e-12
1.19564e-09
-2.782e-12
2.78382e-12
1.22797e-09
-1.6166e-12
1.89375e-12
1.18038e-09
6.79606e-11
9.00403e-13
7.62906e-10
4.46101e-11
-6.52665e-11
-4.4083e-11
4.93085e-11
6.72823e-11
-4.63955e-11
-6.44371e-11
-3.97554e-11
1.9173e-11
-8.91634e-12
9.04455e-11
-7.95341e-12
1.29211e-11
1.11567e-11
-9.10995e-12
-9.13859e-14
2.45573e-12
1.1784e-09
-2.43034e-13
2.36235e-12
1.17845e-09
-3.75076e-13
2.58688e-12
1.17911e-09
-7.13011e-13
2.34338e-12
1.17912e-09
-1.05861e-12
2.39929e-12
1.17998e-09
-1.53248e-12
2.27009e-12
1.18065e-09
-2.05409e-12
2.11779e-12
1.18197e-09
-2.73368e-12
2.06003e-12
1.18365e-09
-3.99829e-12
2.20711e-12
1.19557e-09
-3.64354e-12
1.56812e-12
1.22464e-09
-2.09221e-12
2.28034e-12
1.19082e-09
6.43459e-11
-2.95884e-12
8.22396e-10
4.6458e-11
6.82777e-11
-4.5251e-11
-6.38447e-11
6.42429e-11
-6.19046e-11
-6.13613e-11
-3.85467e-11
1.10524e-11
-7.18459e-12
8.9512e-11
1.96938e-11
-9.05751e-12
-9.76523e-12
-1.00809e-11
1.35814e-11
1.47796e-11
-9.63789e-12
-2.41581e-13
1.95178e-12
1.17677e-09
-5.12641e-13
1.89455e-12
1.17688e-09
-6.69605e-13
1.98304e-12
1.17751e-09
-9.24328e-13
1.83717e-12
1.17772e-09
-1.27211e-12
1.86927e-12
1.17865e-09
-1.6355e-12
1.77618e-12
1.17946e-09
-2.10504e-12
1.64344e-12
1.18123e-09
-2.67445e-12
1.53931e-12
1.18199e-09
-2.93206e-12
1.05592e-12
1.18405e-09
-4.64736e-12
1.50915e-12
1.19554e-09
-1.24811e-12
-2.11287e-13
1.20536e-09
6.20976e-11
6.80048e-13
9.44819e-10
4.76768e-11
-6.11927e-11
-4.6936e-11
-5.02219e-11
2.99341e-12
1.40952e-11
-6.09615e-12
1.01327e-10
1.30391e-12
6.56385e-13
-1.12445e-11
-1.89508e-13
9.47374e-12
-1.88189e-13
1.47896e-12
1.17586e-09
-4.12872e-13
1.4488e-12
1.17593e-09
-6.42569e-13
1.5234e-12
1.17628e-09
-9.59544e-13
1.43512e-12
1.17648e-09
-1.34585e-12
1.45255e-12
1.17722e-09
-1.76547e-12
1.35813e-12
1.17797e-09
-2.26075e-12
1.27821e-12
1.17948e-09
-2.61916e-12
1.07368e-12
1.18061e-09
-3.34027e-12
7.65856e-13
1.18172e-09
-3.99266e-12
4.89457e-13
1.18446e-09
-5.0496e-12
-2.92411e-13
1.20743e-09
-3.63045e-12
6.17873e-13
1.19646e-09
6.79974e-11
-4.41435e-12
8.07882e-10
4.69068e-11
6.70192e-11
-4.46918e-11
-6.25836e-11
6.71211e-11
-6.59862e-11
-6.40659e-11
-4.07835e-11
1.16095e-11
-6.11922e-12
9.26926e-11
1.65503e-11
-7.9018e-12
-7.62028e-12
-9.38571e-12
1.28877e-11
1.44184e-11
-8.35056e-12
-2.36668e-13
1.10452e-12
1.17527e-09
-4.93529e-13
1.0851e-12
1.17535e-09
-7.50547e-13
1.11749e-12
1.17563e-09
-1.05687e-12
1.05643e-12
1.17587e-09
-1.44211e-12
1.06613e-12
1.17658e-09
-1.85707e-12
9.71098e-13
1.17724e-09
-2.3864e-12
9.27787e-13
1.17861e-09
-2.88196e-12
7.33837e-13
1.17991e-09
-3.54745e-12
5.03195e-13
1.18205e-09
-4.56323e-12
2.79987e-14
1.18286e-09
-5.45036e-12
-1.70753e-13
1.19704e-09
-3.08615e-12
1.23355e-13
1.22232e-09
6.75348e-11
-2.64423e-12
9.78772e-10
6.66061e-11
-6.52382e-11
-6.56228e-11
-4.01887e-11
1.80391e-13
5.5528e-12
9.14123e-11
-7.20737e-12
1.44973e-11
1.28405e-11
-9.55235e-12
-1.2506e-12
-3.14672e-13
-5.07007e-13
2.07229e-12
-2.21547e-13
7.75213e-13
1.17506e-09
-4.63382e-13
7.63064e-13
1.17508e-09
-7.32981e-13
7.87034e-13
1.17521e-09
-1.04656e-12
7.42492e-13
1.17539e-09
-1.42414e-12
7.58991e-13
1.17587e-09
-1.82663e-12
6.5292e-13
1.17646e-09
-2.33199e-12
6.68223e-13
1.17768e-09
-2.79808e-12
4.11981e-13
1.17906e-09
-3.59238e-12
4.32359e-13
1.18122e-09
-4.36047e-12
-4.7959e-13
1.18316e-09
-5.2423e-12
3.83393e-13
1.19432e-09
-2.05701e-12
-1.4428e-12
1.21211e-09
6.67195e-11
-2.27017e-12
9.68174e-10
6.44116e-11
-6.51169e-11
-6.2853e-11
-2.05228e-12
-5.04656e-11
1.94023e-11
-1.14254e-12
1.00977e-10
1.63277e-12
9.12582e-13
-1.41715e-11
2.06493e-12
1.80689e-13
9.38056e-12
-2.38654e-13
4.95289e-13
1.17515e-09
-4.93703e-13
4.88346e-13
1.1751e-09
-7.7753e-13
5.0444e-13
1.17519e-09
-1.10639e-12
4.75114e-13
1.17526e-09
-1.51356e-12
5.00131e-13
1.17563e-09
-1.97484e-12
4.19214e-13
1.17625e-09
-2.57944e-12
5.08615e-13
1.17746e-09
-3.19643e-12
2.84741e-13
1.17904e-09
-4.20419e-12
6.10036e-13
1.18165e-09
-5.18795e-12
-3.04894e-13
1.18477e-09
-5.96227e-12
1.54055e-12
1.19553e-09
-2.44256e-12
-2.05018e-12
1.2039e-09
6.15299e-11
1.46186e-12
9.63327e-10
4.78567e-11
-6.06385e-11
-4.67261e-11
-4.2406e-11
5.34526e-12
1.56402e-11
-8.26401e-12
9.12145e-11
4.23589e-12
3.38614e-13
-1.37449e-11
2.32612e-12
-1.48443e-12
8.32873e-12
-2.30938e-13
2.41849e-13
1.17547e-09
-4.8019e-13
2.3828e-13
1.1753e-09
-7.54105e-13
2.46428e-13
1.17516e-09
-1.0763e-12
2.30885e-13
1.17508e-09
-1.44106e-12
2.43604e-13
1.17533e-09
-1.88709e-12
1.95584e-13
1.1759e-09
-2.36306e-12
2.43288e-13
1.17684e-09
-2.97784e-12
1.18722e-13
1.17839e-09
-3.65055e-12
2.94555e-13
1.18014e-09
-4.93803e-12
-1.40386e-13
1.18289e-09
-5.8343e-12
7.94812e-13
1.18765e-09
-6.13925e-12
-8.07266e-13
1.21399e-09
-4.57285e-12
1.3956e-13
1.2028e-09
7.22618e-11
-2.3049e-12
7.97816e-10
6.96312e-11
-7.06683e-11
-6.58273e-11
4.96375e-11
7.46835e-11
-4.70055e-11
-7.03336e-11
-6.07164e-11
2.19514e-11
-1.53204e-11
1.1777e-10
-9.59248e-12
1.12284e-11
1.42318e-11
-7.29058e-12
-2.34201e-13
1.1759e-09
-4.80077e-13
1.1755e-09
-7.63458e-13
1.17516e-09
-1.09886e-12
1.17506e-09
-1.47482e-12
1.17526e-09
-1.94719e-12
1.17583e-09
-2.45999e-12
1.17674e-09
-3.1018e-12
1.17835e-09
-3.74854e-12
1.18012e-09
-4.9512e-12
1.18282e-09
-6.12516e-12
1.18334e-09
-6.79185e-12
1.19755e-09
-5.05916e-12
1.22184e-09
6.88966e-11
9.81083e-10
6.85711e-11
-6.70279e-11
-6.69922e-11
-4.29001e-11
6.58677e-12
-1.85617e-12
9.62727e-11
-9.87551e-12
1.53754e-11
1.53925e-11
-1.00992e-11
-3.21994e-12
-9.09713e-14
-2.77392e-12
6.08496e-12
-2.77123e-12
2.22899e-13
-3.02716e-13
-2.76659e-12
5.61764e-12
1.51314e-12
9.35268e-13
9.77534e-10
6.67839e-11
6.71161e-11
-6.6261e-11
-6.63633e-11
7.24446e-11
1.64008e-12
7.94232e-10
6.72966e-11
7.05219e-11
-6.54517e-11
-7.00713e-11
4.84057e-11
-7.13276e-11
-4.84421e-11
1.77139e-11
-5.93912e-11
1.61681e-11
-1.49205e-11
1.12875e-10
1.32753e-11
-5.87226e-11
-6.88135e-12
1.92354e-12
-1.67123e-11
7.55845e-11
1.31322e-11
-1.09228e-11
-1.06766e-11
-4.8694e-11
1.29615e-11
-1.58568e-11
6.17771e-11
8.19587e-14
1.12998e-11
-1.05232e-11
-9.869e-12
-1.03022e-11
1.33389e-11
8.45296e-12
-1.26671e-11
-3.87828e-12
-5.36366e-13
-3.33259e-13
-2.43419e-12
7.18209e-12
-1.02751e-12
2.03244e-12
1.22172e-09
-2.31238e-12
2.72267e-12
1.20307e-09
9.72933e-13
-6.31714e-13
9.60811e-10
4.71814e-11
6.0933e-11
-4.76349e-11
-6.06432e-11
1.70445e-12
-1.25012e-12
9.6684e-10
6.36756e-11
6.54845e-11
-6.26538e-11
-6.47145e-11
2.80361e-12
-6.86091e-14
9.76384e-10
6.48925e-11
6.62695e-11
-6.5475e-11
-6.44427e-11
6.59328e-11
1.57426e-12
8.05213e-10
6.4916e-11
6.71157e-11
-6.40697e-11
-6.59971e-11
4.61344e-11
-6.40528e-11
-4.63835e-11
-4.13419e-11
1.22272e-11
1.49532e-11
-1.1938e-11
9.1879e-11
1.66539e-11
-8.35333e-12
-8.14693e-12
4.13965e-15
1.52291e-12
-1.4325e-11
2.16964e-12
-2.81867e-12
1.3447e-11
5.17851e-13
1.07148e-12
1.19825e-09
1.96713e-12
1.36954e-12
1.21416e-09
1.06624e-12
1.99671e-12
1.20242e-09
-4.54605e-13
1.70941e-12
1.21092e-09
-1.39001e-12
1.69717e-12
1.22156e-09
-1.90767e-12
2.31082e-12
1.19621e-09
2.72242e-12
-1.7351e-12
9.42958e-10
4.65815e-11
6.10988e-11
-4.77708e-11
-6.10504e-11
6.75709e-11
1.34193e-12
8.19891e-10
6.26267e-11
6.36538e-11
-6.17995e-11
-6.2311e-11
4.53148e-11
-6.43628e-11
-4.68233e-11
-3.00687e-11
9.91582e-12
-3.29822e-12
8.04139e-11
1.65658e-11
-6.94555e-12
-7.52215e-12
-8.33431e-12
1.54983e-11
1.0714e-11
-9.36692e-12
-9.88705e-13
5.59756e-13
-1.98267e-12
2.41161e-12
-4.71438e-13
8.19943e-13
1.18409e-09
-8.85664e-13
9.31125e-13
1.18858e-09
-1.2196e-13
9.32885e-13
1.19594e-09
3.03983e-13
6.26228e-13
1.19512e-09
4.91299e-13
7.77825e-13
1.19792e-09
1.1733e-12
8.74241e-13
1.20836e-09
-1.91315e-12
1.8238e-12
1.20517e-09
-4.17306e-13
1.46868e-12
1.1894e-09
6.59781e-11
-7.27027e-13
7.61826e-10
4.3146e-11
6.71042e-11
-4.51417e-11
-6.47936e-11
4.83185e-11
-6.50443e-11
-4.77462e-11
1.72212e-11
-6.18955e-11
1.20771e-11
-1.39053e-11
1.12481e-10
2.70573e-12
-9.95159e-12
1.47701e-12
5.76887e-12
1.86519e-13
6.49075e-13
1.18292e-09
3.36101e-13
6.21422e-13
1.18317e-09
2.69814e-13
9.07176e-13
1.18498e-09
-6.59039e-14
7.32227e-13
1.18352e-09
-1.85429e-13
6.90925e-13
1.18318e-09
-5.46306e-13
8.2559e-13
1.185e-09
1.91382e-13
4.2366e-13
1.1964e-09
-5.17035e-13
1.55759e-12
1.22542e-09
-1.23601e-13
7.57804e-13
1.17883e-09
6.74002e-11
1.05188e-13
7.68156e-10
4.97133e-11
6.74173e-11
-4.96064e-11
-6.70702e-11
4.96865e-11
-6.70558e-11
-4.95783e-11
1.79408e-11
-6.52427e-11
1.18717e-11
-1.39643e-11
1.16795e-10
3.02423e-12
-1.08346e-11
1.61396e-12
6.19648e-12
-1.24878e-13
6.35348e-13
1.1803e-09
-2.79399e-13
5.81189e-13
1.18041e-09
-1.80229e-13
6.53182e-13
1.18189e-09
-1.28067e-13
5.51789e-13
1.18144e-09
-1.68638e-13
6.2177e-13
1.18225e-09
-5.29148e-14
5.93728e-13
1.18197e-09
-5.07098e-13
6.28337e-13
1.1844e-09
-2.81333e-13
5.79151e-13
1.1964e-09
-6.65079e-13
2.77112e-13
1.22883e-09
7.26809e-13
5.98116e-13
1.17849e-09
6.71096e-11
4.15549e-13
7.61399e-10
4.31572e-11
-6.48003e-11
-4.51606e-11
4.83383e-11
6.58991e-11
-4.77617e-11
-6.49611e-11
-4.10629e-11
1.78342e-11
-7.09661e-12
9.18307e-11
-8.32968e-12
1.26297e-11
1.06289e-11
-9.32456e-12
-1.80297e-15
5.25692e-13
1.17851e-09
-4.00753e-14
4.95362e-13
1.17858e-09
-7.95929e-14
5.93435e-13
1.17921e-09
-1.93616e-13
5.44578e-13
1.17925e-09
-2.84079e-13
5.67184e-13
1.18012e-09
-4.18373e-13
5.8618e-13
1.18079e-09
-4.45753e-13
4.93861e-13
1.18213e-09
-5.85897e-13
4.53654e-13
1.18392e-09
-1.57059e-12
5.09327e-13
1.19632e-09
-1.46221e-12
-1.64546e-13
1.22529e-09
-1.36025e-12
1.91203e-12
1.18923e-09
6.36472e-11
-2.71904e-12
8.19884e-10
4.53018e-11
6.75749e-11
-4.68071e-11
-6.43454e-11
6.26357e-11
-6.23232e-11
-6.18104e-11
-3.94702e-11
1.05747e-11
-5.82296e-12
9.1232e-11
1.9389e-11
-9.48909e-12
-1.01421e-11
-1.04857e-11
1.34848e-11
1.44221e-11
-1.0045e-11
-6.99922e-14
4.25798e-13
1.17694e-09
-1.49395e-13
4.11041e-13
1.17705e-09
-1.7267e-13
4.43544e-13
1.17768e-09
-2.10401e-13
4.14703e-13
1.17789e-09
-3.01138e-13
4.2811e-13
1.17888e-09
-3.78787e-13
4.36918e-13
1.17969e-09
-4.8832e-13
3.86534e-13
1.18144e-09
-6.32528e-13
4.30294e-13
1.18216e-09
-4.47124e-13
6.12882e-14
1.18431e-09
-1.86099e-12
5.62928e-13
1.19623e-09
1.68443e-12
-1.21193e-12
1.20494e-09
6.10937e-11
2.03433e-12
9.42922e-10
4.65843e-11
-6.10695e-11
-4.77788e-11
-5.1783e-11
2.29889e-12
1.22592e-11
-4.77604e-12
1.03095e-10
1.02681e-12
5.91801e-13
-1.09667e-11
-2.32722e-13
9.58082e-12
-3.69367e-14
3.25748e-13
1.176e-09
-8.68497e-14
3.20587e-13
1.17608e-09
-1.41082e-13
3.52933e-13
1.17643e-09
-2.18068e-13
3.374e-13
1.17663e-09
-3.20396e-13
3.42188e-13
1.17741e-09
-4.28021e-13
3.33816e-13
1.17818e-09
-5.80756e-13
3.10052e-13
1.17971e-09
-5.97445e-13
3.01769e-13
1.18075e-09
-8.47496e-13
1.8403e-13
1.18185e-09
-9.07791e-13
2.09475e-13
1.18487e-09
-2.39878e-12
-5.28717e-13
1.20824e-09
-1.5692e-12
1.44722e-12
1.19622e-09
6.71491e-11
-2.748e-12
8.05332e-10
4.61254e-11
6.59648e-11
-4.63906e-11
-6.40388e-11
6.49412e-11
-6.59776e-11
-6.40447e-11
-4.14254e-11
1.10902e-11
-4.87779e-12
9.43065e-11
1.61626e-11
-8.34867e-12
-7.94085e-12
-9.74663e-12
1.25349e-11
1.40265e-11
-8.6325e-12
-5.54197e-14
2.45831e-13
1.17541e-09
-1.17171e-13
2.43936e-13
1.17549e-09
-1.7528e-13
2.56084e-13
1.17579e-09
-2.37382e-13
2.43981e-13
1.17603e-09
-3.31907e-13
2.47833e-13
1.17677e-09
-4.19297e-13
2.30677e-13
1.17743e-09
-5.61699e-13
2.17251e-13
1.17884e-09
-6.23238e-13
2.08881e-13
1.18006e-09
-7.04005e-13
1.37778e-13
1.18218e-09
-8.11398e-13
9.54852e-14
1.18309e-09
-1.79049e-12
-3.30845e-13
1.19782e-09
-3.52729e-14
4.79743e-13
1.22153e-09
6.62461e-11
-1.61558e-12
9.76403e-10
6.49331e-11
-6.44757e-11
-6.5503e-11
-4.07746e-11
-2.65577e-13
5.62593e-12
9.2517e-11
-7.50079e-12
1.41215e-11
1.23167e-11
-9.79428e-12
-1.22738e-12
-3.54528e-13
-5.1654e-13
2.09845e-12
-4.53638e-14
1.7559e-13
1.17518e-09
-9.99475e-14
1.74268e-13
1.1752e-09
-1.63952e-13
1.85079e-13
1.17535e-09
-2.33098e-13
1.74977e-13
1.17553e-09
-3.26766e-13
1.85429e-13
1.17602e-09
-4.06749e-13
1.53275e-13
1.17662e-09
-5.41549e-13
1.77511e-13
1.17786e-09
-5.56669e-13
9.21184e-14
1.17919e-09
-7.46673e-13
1.81978e-13
1.18136e-09
-6.61048e-13
-2.4095e-13
1.18341e-09
-1.82516e-12
1.26236e-13
1.19503e-09
9.95069e-13
-1.03418e-12
1.2108e-09
6.54848e-11
-8.52054e-13
9.66771e-10
6.36321e-11
-6.47772e-11
-6.27058e-11
-1.99758e-12
-5.12993e-11
1.75853e-11
-9.03106e-13
1.02099e-10
1.27007e-12
9.08873e-13
-1.38042e-11
2.06266e-12
1.6416e-13
9.39847e-12
-5.01604e-14
1.14138e-13
1.17526e-09
-1.08514e-13
1.12541e-13
1.17522e-09
-1.746e-13
1.20114e-13
1.17532e-09
-2.45567e-13
1.11609e-13
1.1754e-09
-3.44275e-13
1.26355e-13
1.17578e-09
-4.37407e-13
9.65188e-14
1.1764e-09
-5.91981e-13
1.53662e-13
1.17764e-09
-6.56644e-13
4.79036e-14
1.17915e-09
-9.24049e-13
2.77729e-13
1.18182e-09
-9.78744e-13
-3.11078e-13
1.1849e-09
-2.08964e-12
8.77514e-13
1.19589e-09
3.97405e-13
-1.9341e-12
1.20231e-09
6.08712e-11
2.46684e-12
9.60769e-10
4.71233e-11
-6.06907e-11
-4.76695e-11
-4.38821e-11
4.79782e-12
1.4018e-11
-6.57564e-12
9.25132e-11
3.81524e-12
3.25173e-13
-1.33826e-11
2.37643e-12
-1.2902e-12
8.15595e-12
-4.78978e-14
5.53997e-14
1.17558e-09
-1.04309e-13
5.74998e-14
1.17541e-09
-1.64966e-13
6.14799e-14
1.17529e-09
-2.3458e-13
5.7408e-14
1.17521e-09
-3.13404e-13
6.52121e-14
1.17547e-09
-4.05417e-13
4.61312e-14
1.17604e-09
-4.93872e-13
7.51353e-14
1.17701e-09
-5.84992e-13
1.31372e-14
1.17851e-09
-6.36493e-13
1.24962e-13
1.18035e-09
-9.6747e-13
-1.70677e-13
1.18308e-09
-1.41922e-12
4.64306e-13
1.18852e-09
-2.86744e-12
-4.97735e-13
1.214e-09
-1.63657e-12
1.09401e-12
1.20294e-09
7.05434e-11
-1.48031e-12
7.94097e-10
6.7322e-11
-7.00294e-11
-6.5401e-11
4.84035e-11
7.25124e-11
-4.84704e-11
-7.13184e-11
-6.12987e-11
2.05173e-11
-1.45805e-11
1.18687e-10
-9.91257e-12
1.09289e-11
1.37554e-11
-7.55321e-12
-4.66019e-14
1.17601e-09
-1.00588e-13
1.17561e-09
-1.64947e-13
1.17528e-09
-2.39993e-13
1.17518e-09
-3.21662e-13
1.1754e-09
-4.22393e-13
1.17597e-09
-5.26608e-13
1.17691e-09
-6.39235e-13
1.17847e-09
-6.64401e-13
1.18027e-09
-8.52277e-13
1.18283e-09
-1.10033e-12
1.18405e-09
-2.12921e-12
1.19809e-09
-8.51833e-13
1.22166e-09
6.71186e-11
9.77355e-10
6.68125e-11
-6.63032e-11
-6.62285e-11
-4.36275e-11
6.25977e-12
-1.70509e-12
9.70544e-11
-1.02276e-11
1.49034e-11
1.48856e-11
-1.04247e-11
-3.25857e-12
-8.85003e-14
-2.76029e-12
6.10597e-12
-2.80458e-12
2.22347e-13
-2.99047e-13
-2.75088e-12
5.63216e-12
3.51806e-13
-2.19307e-12
9.79178e-10
6.64144e-11
6.68229e-11
-6.64707e-11
-6.65732e-11
7.17778e-11
-1.55111e-12
7.96023e-10
6.70588e-11
7.03555e-11
-6.56596e-11
-7.01912e-11
4.80797e-11
-7.22569e-11
-4.90536e-11
1.7343e-11
-5.95803e-11
1.57187e-11
-1.50004e-11
1.13296e-10
1.324e-11
-5.90687e-11
-6.53755e-12
1.66529e-12
-1.64897e-11
7.58044e-11
1.31521e-11
-1.10358e-11
-1.07301e-11
-4.89351e-11
1.29505e-11
-1.55543e-11
6.18931e-11
1.90705e-13
1.13044e-11
-1.06035e-11
-9.92237e-12
-1.04002e-11
1.33478e-11
8.46654e-12
-1.27376e-11
-3.91602e-12
-5.24821e-13
-3.34737e-13
-2.433e-12
7.20858e-12
-2.41062e-14
-2.74203e-12
1.22228e-09
-2.718e-13
-2.07802e-12
1.20384e-09
5.94602e-13
-3.59643e-12
9.6283e-10
4.7301e-11
6.14907e-11
-4.76833e-11
-6.03986e-11
7.23351e-13
-2.70961e-12
9.67919e-10
6.35497e-11
6.55271e-11
-6.28673e-11
-6.47081e-11
8.97935e-13
-1.66952e-12
9.77723e-10
6.45072e-11
6.60889e-11
-6.58421e-11
-6.46e-11
6.53958e-11
3.408e-13
8.05565e-10
6.4559e-11
6.70034e-11
-6.44257e-11
-6.62287e-11
4.5831e-11
-6.49626e-11
-4.69657e-11
-4.16638e-11
1.21442e-11
1.46129e-11
-1.1969e-11
9.23299e-11
1.66482e-11
-8.48239e-12
-8.22298e-12
-9.03316e-14
1.51954e-12
-1.43208e-11
2.14981e-12
-2.77378e-12
1.35155e-11
2.21564e-13
-3.25994e-12
1.19855e-09
9.23953e-13
-3.14425e-12
1.21453e-09
-3.19884e-13
-2.44113e-12
1.20251e-09
-1.47948e-12
-1.70113e-12
1.21107e-09
-1.78914e-12
-1.59293e-12
1.22179e-09
-1.23611e-12
-4.9633e-13
1.1965e-09
2.08689e-12
-2.76045e-12
9.42812e-10
4.67044e-11
6.1516e-11
-4.77639e-11
-6.08693e-11
6.73984e-11
5.51364e-13
8.19848e-10
6.24656e-11
6.35071e-11
-6.21442e-11
-6.2658e-11
4.5088e-11
-6.485e-11
-4.7226e-11
-3.02818e-11
9.85131e-12
-3.2531e-12
8.08346e-11
1.65956e-11
-7.04955e-12
-7.57962e-12
-8.43934e-12
1.55021e-11
1.06687e-11
-9.44966e-12
-9.87247e-13
5.51776e-13
-1.98275e-12
2.41822e-12
-1.75681e-13
-2.74892e-12
1.18375e-09
-5.98734e-13
-2.65548e-12
1.18852e-09
-5.97805e-13
-2.79245e-12
1.19629e-09
-1.58932e-13
-2.37603e-12
1.19536e-09
4.8338e-14
-2.1506e-12
1.19828e-09
8.80469e-13
-1.79513e-12
1.20883e-09
-1.48291e-12
-6.91654e-13
1.20547e-09
-6.47116e-13
-8.77528e-13
1.18999e-09
6.58057e-11
-1.44025e-12
7.61941e-10
4.31538e-11
6.72475e-11
-4.52542e-11
-6.4871e-11
4.81634e-11
-6.54548e-11
-4.81132e-11
1.69934e-11
-6.22342e-11
1.18409e-11
-1.37497e-11
1.12956e-10
2.67259e-12
-9.97831e-12
1.50366e-12
5.80207e-12
7.53435e-14
-2.20709e-12
1.18231e-09
1.06922e-13
-2.18057e-12
1.18267e-09
-1.10841e-13
-2.09952e-12
1.1845e-09
-1.75602e-13
-1.80067e-12
1.18301e-09
4.54096e-14
-1.81734e-12
1.18263e-09
8.16989e-14
-1.38428e-12
1.18456e-09
1.16184e-12
-1.62525e-12
1.19625e-09
6.64019e-13
-8.12486e-13
1.22585e-09
8.29969e-14
-1.28196e-12
1.17925e-09
6.74744e-11
-9.79037e-14
7.68433e-10
4.96491e-11
6.74922e-11
-4.98993e-11
-6.729e-11
4.96213e-11
-6.7274e-11
-4.98704e-11
1.77683e-11
-6.56187e-11
1.17196e-11
-1.36825e-11
1.17288e-10
2.99068e-12
-1.08709e-11
1.64607e-12
6.23418e-12
4.46712e-14
-1.76273e-12
1.17982e-09
6.68258e-14
-1.7293e-12
1.17993e-09
9.18703e-14
-1.76315e-12
1.18152e-09
2.85915e-13
-1.56306e-12
1.18101e-09
3.9502e-13
-1.50953e-12
1.18184e-09
7.66347e-13
-1.33808e-12
1.18156e-09
7.46099e-13
-1.22033e-12
1.18402e-09
1.35998e-12
-1.15384e-12
1.19613e-09
1.26854e-12
-1.36314e-12
1.22901e-09
1.44191e-12
-6.72786e-13
1.1789e-09
6.72559e-11
6.46524e-13
7.61503e-10
4.31696e-11
-6.48773e-11
-4.52705e-11
4.81855e-11
6.573e-11
-4.81302e-11
-6.53719e-11
-4.12829e-11
1.77102e-11
-6.83625e-12
9.22894e-11
-8.44911e-12
1.26479e-11
1.05598e-11
-9.38255e-12
8.48732e-14
-1.38493e-12
1.17805e-09
1.72033e-13
-1.35124e-12
1.17811e-09
2.28793e-13
-1.35658e-12
1.17875e-09
3.44267e-13
-1.21262e-12
1.17878e-09
5.16327e-13
-1.22787e-12
1.17967e-09
6.77555e-13
-1.0717e-12
1.18036e-09
9.80619e-13
-1.07519e-12
1.18168e-09
1.16059e-12
-9.70794e-13
1.18355e-09
8.00495e-13
-7.32251e-13
1.19606e-09
8.7824e-13
-1.14894e-12
1.2257e-09
-5.59552e-13
1.48991e-12
1.18982e-09
6.35073e-11
-2.09486e-12
8.19827e-10
4.50768e-11
6.74014e-11
-4.72143e-11
-6.4842e-11
6.24774e-11
-6.26653e-11
-6.21493e-11
-4.00682e-11
1.05358e-11
-5.58328e-12
9.17336e-11
1.94064e-11
-9.57602e-12
-1.02275e-11
-1.05863e-11
1.35574e-11
1.44121e-11
-1.00963e-11
9.78186e-14
-1.08289e-12
1.17654e-09
2.04768e-13
-1.05537e-12
1.17664e-09
3.12981e-13
-1.07195e-12
1.17729e-09
4.9518e-13
-9.84415e-13
1.17748e-09
6.61387e-13
-9.89237e-13
1.17847e-09
8.80207e-13
-8.84175e-13
1.17928e-09
1.08322e-12
-8.69378e-13
1.18103e-09
1.21947e-12
-6.59446e-13
1.18171e-09
1.62203e-12
-7.53776e-13
1.18393e-09
6.7384e-13
-5.21012e-14
1.19609e-09
2.73638e-12
-8.91577e-13
1.20526e-09
6.15113e-11
1.24761e-12
9.42749e-10
4.67105e-11
-6.08853e-11
-4.777e-11
-5.19326e-11
2.16871e-12
1.21623e-11
-4.42314e-12
1.03536e-10
9.82626e-13
5.86153e-13
-1.10044e-11
-2.17501e-13
9.65316e-12
1.12485e-13
-8.19957e-13
1.17562e-09
2.33045e-13
-7.99728e-13
1.1757e-09
3.53032e-13
-8.06671e-13
1.17605e-09
5.11561e-13
-7.47159e-13
1.17624e-09
6.88097e-13
-7.52595e-13
1.17699e-09
8.95472e-13
-6.74023e-13
1.17776e-09
1.07793e-12
-6.47587e-13
1.17931e-09
1.34042e-12
-4.96257e-13
1.18033e-09
1.37567e-12
-3.81467e-13
1.18145e-09
1.77769e-12
-8.97803e-15
1.18443e-09
4.56776e-13
-5.29033e-14
1.20872e-09
-3.62333e-13
1.81044e-12
1.19647e-09
6.70163e-11
-8.98686e-13
8.05612e-10
4.58323e-11
6.54129e-11
-4.69668e-11
-6.49569e-11
6.45892e-11
-6.62447e-11
-6.44275e-11
-4.20971e-11
1.10798e-11
-4.59787e-12
9.4864e-11
1.61509e-11
-8.43207e-12
-8.01608e-12
-9.83814e-12
1.25811e-11
1.39983e-11
-8.67629e-12
1.24605e-13
-6.083e-13
1.17508e-09
2.57146e-13
-5.93732e-13
1.17515e-09
3.95718e-13
-6.00619e-13
1.17544e-09
5.73935e-13
-5.60903e-13
1.17566e-09
7.63957e-13
-5.62076e-13
1.17639e-09
9.98376e-13
-4.96372e-13
1.17702e-09
1.23439e-12
-4.82539e-13
1.17844e-09
1.51196e-12
-3.24886e-13
1.17961e-09
1.81154e-12
-2.75529e-13
1.18177e-09
2.1328e-12
2.16561e-13
1.18254e-09
1.55824e-12
1.60535e-13
1.19818e-09
1.64653e-12
1.49727e-12
1.22176e-09
6.60847e-11
-7.05622e-13
9.77727e-10
6.45111e-11
-6.4614e-11
-6.58541e-11
-4.12975e-11
-4.13952e-13
5.81503e-12
9.3048e-11
-7.57952e-12
1.41102e-11
1.22531e-11
-9.85048e-12
-1.22018e-12
-3.74682e-13
-5.18526e-13
2.1134e-12
1.28255e-13
-4.2486e-13
1.17487e-09
2.6127e-13
-4.15685e-13
1.17489e-09
4.01893e-13
-4.17312e-13
1.17502e-09
5.72408e-13
-3.90847e-13
1.17519e-09
7.57271e-13
-3.84106e-13
1.17566e-09
9.92779e-13
-3.38837e-13
1.17622e-09
1.21778e-12
-3.02423e-13
1.17745e-09
1.56395e-12
-2.11528e-13
1.17873e-09
1.79391e-12
-8.01178e-14
1.18094e-09
2.35994e-12
1.38031e-13
1.18293e-09
1.67328e-12
6.0291e-13
1.19527e-09
2.6667e-12
3.28746e-13
1.21098e-09
6.55176e-11
-5.89805e-13
9.67863e-10
6.3543e-11
-6.47252e-11
-6.28778e-11
-2.06587e-12
-5.1651e-11
1.73922e-11
-6.87114e-13
1.0253e-10
1.19561e-12
9.15665e-13
-1.37999e-11
2.0716e-12
1.7106e-13
9.44601e-12
1.35191e-13
-2.70306e-13
1.17498e-09
2.75868e-13
-2.65273e-13
1.17493e-09
4.27248e-13
-2.66356e-13
1.17502e-09
6.10349e-13
-2.50715e-13
1.17507e-09
8.14845e-13
-2.46344e-13
1.17544e-09
1.07826e-12
-2.19821e-13
1.17602e-09
1.35938e-12
-1.94896e-13
1.17725e-09
1.7595e-12
-1.5405e-13
1.17869e-09
2.09218e-12
-5.73978e-14
1.18147e-09
2.77652e-12
-7.95478e-14
1.18443e-09
2.42614e-12
6.02972e-13
1.19624e-09
3.56977e-12
-9.23387e-13
1.20242e-09
6.1486e-11
2.7218e-13
9.62794e-10
4.72842e-11
-6.04064e-11
-4.76819e-11
-4.38224e-11
4.63147e-12
1.39842e-11
-6.17385e-12
9.2867e-11
3.69393e-12
3.31207e-13
-1.33966e-11
2.39381e-12
-1.20045e-12
8.17816e-12
1.32808e-13
-1.29606e-13
1.1753e-09
2.72169e-13
-1.266e-13
1.17514e-09
4.23586e-13
-1.26593e-13
1.17499e-09
6.02279e-13
-1.17934e-13
1.1749e-09
8.06186e-13
-1.14275e-13
1.17513e-09
1.05999e-12
-1.00963e-13
1.17567e-09
1.35297e-12
-8.87655e-14
1.17661e-09
1.72539e-12
-6.78919e-14
1.17806e-09
2.17189e-12
-3.98466e-14
1.17988e-09
2.63156e-12
-5.18765e-14
1.18259e-09
3.11659e-12
1.79835e-13
1.18845e-09
1.99936e-12
-2.24571e-13
1.21442e-09
1.49786e-12
1.85186e-14
1.20369e-09
7.03373e-11
-3.40085e-13
7.95866e-10
6.7026e-11
-7.02e-11
-6.5648e-11
4.80959e-11
7.18099e-11
-4.908e-11
-7.22731e-11
-6.18902e-11
2.0405e-11
-1.44404e-11
1.19237e-10
-1.00049e-11
1.09289e-11
1.37135e-11
-7.6114e-12
1.35802e-13
1.17574e-09
2.79316e-13
1.17533e-09
4.34082e-13
1.17499e-09
6.15577e-13
1.17488e-09
8.24881e-13
1.17507e-09
1.08677e-12
1.17561e-09
1.3847e-12
1.17652e-09
1.75603e-12
1.17802e-09
2.18823e-12
1.17978e-09
2.71732e-12
1.18224e-09
3.21824e-12
1.18372e-09
2.6449e-12
1.19843e-09
2.13287e-12
1.22219e-09
6.67802e-11
9.79009e-10
6.64043e-11
-6.65563e-11
-6.64894e-11
-4.41416e-11
6.16863e-12
-1.66634e-12
9.7589e-11
-1.03317e-11
1.4856e-11
1.48228e-11
-1.05167e-11
-3.27017e-12
-8.77541e-14
-2.76298e-12
6.11924e-12
-2.81701e-12
2.21563e-13
-2.98773e-13
-2.75366e-12
5.64788e-12
1.61262e-13
-5.17737e-12
9.84221e-10
6.65117e-11
6.69375e-11
-6.66787e-11
-6.68007e-11
7.1291e-11
-5.52531e-12
8.03404e-10
6.7249e-11
7.06821e-11
-6.58525e-11
-7.02653e-11
4.77747e-11
-7.30297e-11
-4.95466e-11
1.72576e-11
-5.97764e-11
1.53965e-11
-1.53841e-11
1.13797e-10
1.32532e-11
-5.93394e-11
-6.29128e-12
1.47131e-12
-1.67095e-11
7.62377e-11
1.32209e-11
-1.11027e-11
-1.07402e-11
-4.91402e-11
1.29711e-11
-1.56463e-11
6.22291e-11
2.68842e-13
1.13462e-11
-1.06499e-11
-9.93631e-12
-1.04464e-11
1.33329e-11
8.4791e-12
-1.28081e-11
-3.92953e-12
-5.18909e-13
-3.42171e-13
-2.4343e-12
7.22491e-12
1.70406e-12
-7.50389e-12
1.22291e-09
2.14733e-12
-7.26718e-12
1.20514e-09
5.70382e-13
-7.57074e-12
9.69471e-10
4.76639e-11
6.23741e-11
-4.761e-11
-5.99206e-11
-5.07892e-13
-5.16099e-12
9.71309e-10
6.39388e-11
6.61197e-11
-6.27908e-11
-6.4418e-11
-9.21802e-13
-3.83778e-12
9.8163e-10
6.46031e-11
6.63375e-11
-6.59984e-11
-6.45955e-11
6.4796e-11
-1.57245e-12
8.08053e-10
6.45541e-11
6.71962e-11
-6.46324e-11
-6.6207e-11
4.54786e-11
-6.5634e-11
-4.73868e-11
-4.17573e-11
1.21116e-11
1.43474e-11
-1.2325e-11
9.25157e-11
1.66599e-11
-8.52679e-12
-8.22882e-12
-1.04093e-13
1.50683e-12
-1.42798e-11
2.13274e-12
-2.77951e-12
1.35239e-11
-2.48802e-13
-7.22846e-12
1.19853e-09
-3.81849e-13
-7.38735e-12
1.21478e-09
-2.52905e-12
-6.85914e-12
1.20394e-09
-2.77606e-12
-5.07493e-12
1.21123e-09
-2.0692e-12
-4.91104e-12
1.22216e-09
-2.85636e-13
-3.27511e-12
1.19642e-09
2.14725e-12
-4.30803e-12
9.43599e-10
4.69625e-11
6.20926e-11
-4.75878e-11
-6.03783e-11
6.7239e-11
-7.58546e-13
8.21659e-10
6.24958e-11
6.35604e-11
-6.21492e-11
-6.2614e-11
4.49352e-11
-6.50062e-11
-4.73645e-11
-3.03166e-11
9.83842e-12
-3.37884e-12
8.08996e-11
1.66103e-11
-7.06636e-12
-7.57447e-12
-8.44773e-12
1.54856e-11
1.06588e-11
-9.46938e-12
-9.88165e-13
5.5252e-13
-1.98367e-12
2.41931e-12
2.66582e-13
-6.28789e-12
1.18256e-09
1.06401e-13
-6.13597e-12
1.18742e-09
-1.04125e-12
-6.33414e-12
1.19691e-09
-6.39137e-13
-5.17246e-12
1.19505e-09
-6.34059e-13
-4.96348e-12
1.19833e-09
5.29734e-13
-4.36588e-12
1.20876e-09
-1.45134e-12
-2.98835e-12
1.20613e-09
-1.11579e-13
-2.70425e-12
1.1906e-09
6.56882e-11
-2.44972e-12
7.63758e-10
4.32193e-11
6.7398e-11
-4.52168e-11
-6.47751e-11
4.80586e-11
-6.56095e-11
-4.82397e-11
1.69556e-11
-6.23472e-11
1.17856e-11
-1.37668e-11
1.13062e-10
2.66898e-12
-9.98511e-12
1.50651e-12
5.80963e-12
-1.29105e-14
-5.10124e-12
1.18115e-09
-2.67595e-14
-4.98176e-12
1.18153e-09
-3.69112e-13
-5.11201e-12
1.18362e-09
-1.01061e-13
-4.34831e-12
1.18192e-09
4.14777e-13
-4.3899e-12
1.18154e-09
7.35636e-13
-3.6807e-12
1.18355e-09
2.03158e-12
-3.61823e-12
1.19559e-09
1.85887e-12
-2.74303e-12
1.22606e-09
7.0294e-13
-2.5808e-12
1.18054e-09
6.75702e-11
-7.19804e-13
7.6979e-10
4.96456e-11
6.75899e-11
-4.99355e-11
-6.72644e-11