/*--------------------------------*- C++ -*----------------------------------*\
| =========                 |                                                 |
| \\      /  F ield         | OpenFOAM: The Open Source CFD Toolbox           |
|  \\    /   O peration     | Version:  2.1.1                                 |
|   \\  /    A nd           | Web:      www.OpenFOAM.org                      |
|    \\/     M anipulation  |                                                 |
\*---------------------------------------------------------------------------*/
FoamFile
{
    version     2.0;
    format      ascii;
    class       volScalarField;
    location    "0.003";
    object      Th;
}
// * * * * * * * * * * * * * * * * * * * * * * * * * * * * * * * * * * * * * //

dimensions      [0 0 0 0 0 0 0];

internalField   nonuniform List<scalar> 
10260
(
3.56767e-13
3.98995e-13
1.03211e-14
1.09525e-14
1e-14
1.16467e-14
2.67884e-14
2.45889e-13
1.00007e-14
1.00025e-14
1e-14
1.00165e-14
1.00307e-14
1.13988e-14
1.08854e-14
1e-14
1.00001e-14
1e-14
1e-14
1e-14
1.00001e-14
1.00026e-14
1.00276e-14
1.24623e-14
1.60549e-14
7.89977e-13
1.00001e-14
1.00001e-14
1e-14
1e-14
1e-14
1e-14
1e-14
1.00025e-14
1.01115e-14
1e-14
4.57788e-13
1.00001e-14
1e-14
1e-14
1e-14
1e-14
1e-14
1e-14
1e-14
1.00001e-14
1.01208e-14
1e-14
4.13971e-13
1.00002e-14
1e-14
1e-14
1e-14
1e-14
1e-14
1e-14
1e-14
1.00001e-14
1.00002e-14
1.01118e-14
1.22739e-14
1.00002e-14
1e-14
1e-14
1e-14
1e-14
1e-14
1e-14
1e-14
1e-14
1e-14
1.00026e-14
1.24627e-14
1.84626e-14
1.00002e-14
1e-14
1e-14
1e-14
1.00001e-14
1.00001e-14
1e-14
1e-14
1e-14
1e-14
1e-14
1.00278e-14
1e-14
1.46139e-13
1.00001e-14
1e-14
1e-14
1e-14
1.00001e-14
1.00001e-14
1e-14
1.00001e-14
1e-14
1e-14
1e-14
1.00027e-14
1.14149e-14
1.81144e-14
1e-14
1e-14
1e-14
1.00001e-14
1.00001e-14
1e-14
1e-14
1.00001e-14
1e-14
1e-14
1e-14
1.00001e-14
1.00313e-14
1.01715e-14
1.01487e-12
1e-14
1e-14
1.00001e-14
1.00001e-14
1e-14
1e-14
1e-14
1.00001e-14
1.00001e-14
1e-14
1e-14
1.00001e-14
1.00168e-14
1e-14
1e-14
1.00001e-14
1e-14
1e-14
1e-14
1.00001e-14
1.00001e-14
1e-14
1.00001e-14
1.00001e-14
1e-14
1e-14
1.00001e-14
1e-14
1e-14
1e-14
1.00003e-14
1.00001e-14
1e-14
1e-14
1.00001e-14
1e-14
1e-14
1e-14
1e-14
1e-14
1e-14
1e-14
1.00026e-14
1.09641e-14
1.21439e-14
1.00001e-14
1e-14
1.00002e-14
1.00002e-14
1e-14
1.00001e-14
1.00002e-14
1.00001e-14
1e-14
1e-14
1e-14
1.00001e-14
1.00011e-14
1.03384e-14
1.50997e-14
3.59597e-13
4.03527e-13
1.02884e-14
1.08708e-14
1e-14
1.15527e-14
2.67362e-14
2.48205e-13
1.00003e-14
1.00011e-14
1e-14
1.00141e-14
1.00262e-14
1.1313e-14
1.07993e-14
1e-14
1.00001e-14
1e-14
1e-14
1e-14
1e-14
1.00013e-14
1.00246e-14
1.23062e-14
1.59498e-14
7.91383e-13
1.00002e-14
1.00001e-14
1e-14
1e-14
1e-14
1e-14
1e-14
1.00014e-14
1.00981e-14
1e-14
4.72928e-13
1.00002e-14
1e-14
1e-14
1e-14
1e-14
1e-14
1e-14
1e-14
1e-14
1.01076e-14
1e-14
4.28674e-13
1.00002e-14
1e-14
1e-14
1e-14
1e-14
1e-14
1e-14
1e-14
1e-14
1e-14
1.00983e-14
1.21395e-14
1.00003e-14
1e-14
1e-14
1e-14
1e-14
1e-14
1e-14
1e-14
1e-14
1e-14
1.00014e-14
1.2307e-14
1.954e-14
1.00002e-14
1e-14
1e-14
1e-14
1e-14
1e-14
1e-14
1e-14
1e-14
1e-14
1e-14
1.00247e-14
1e-14
1.51906e-13
1e-14
1e-14
1e-14
1e-14
1e-14
1.00001e-14
1e-14
1e-14
1e-14
1e-14
1e-14
1.00013e-14
1.13146e-14
1.83449e-14
1e-14
1e-14
1e-14
1e-14
1e-14
1e-14
1e-14
1.00001e-14
1e-14
1e-14
1e-14
1e-14
1.00265e-14
1.01774e-14
1.01067e-12
1e-14
1e-14
1e-14
1.00001e-14
1e-14
1e-14
1e-14
1.00001e-14
1e-14
1e-14
1e-14
1.00001e-14
1.00144e-14
1e-14
1e-14
1e-14
1e-14
1e-14
1e-14
1e-14
1.00001e-14
1e-14
1.00001e-14
1e-14
1e-14
1e-14
1e-14
1e-14
1e-14
1e-14
1.00003e-14
1e-14
1e-14
1e-14
1e-14
1e-14
1e-14
1e-14
1e-14
1e-14
1e-14
1e-14
1.00012e-14
1.08725e-14
1.21934e-14
1.00001e-14
1e-14
1.00002e-14
1.00001e-14
1e-14
1.00001e-14
1.00001e-14
1e-14
1e-14
1e-14
1e-14
1e-14
1.00005e-14
1.02918e-14
1.50665e-14
3.59921e-13
4.03928e-13
1.02804e-14
1.08502e-14
1e-14
1.15631e-14
2.69428e-14
2.48341e-13
1e-14
1e-14
1e-14
1.00136e-14
1.00258e-14
1.12908e-14
1.08118e-14
1e-14
1.00001e-14
1e-14
1e-14
1e-14
1e-14
1.00005e-14
1.00238e-14
1.22712e-14
1.59926e-14
7.91073e-13
1.00001e-14
1e-14
1e-14
1e-14
1e-14
1e-14
1e-14
1.00007e-14
1.00958e-14
1e-14
4.73147e-13
1.00001e-14
1e-14
1e-14
1e-14
1e-14
1e-14
1e-14
1e-14
1e-14
1.01053e-14
1e-14
4.2866e-13
1.00001e-14
1e-14
1e-14
1e-14
1e-14
1e-14
1e-14
1e-14
1.00001e-14
1e-14
1.0096e-14
1.2125e-14
1.00001e-14
1e-14
1e-14
1e-14
1e-14
1e-14
1e-14
1e-14
1e-14
1e-14
1.00007e-14
1.2272e-14
1.97646e-14
1.00001e-14
1e-14
1e-14
1e-14
1e-14
1e-14
1e-14
1e-14
1e-14
1e-14
1e-14
1.00239e-14
1e-14
1.51686e-13
1e-14
1e-14
1e-14
1e-14
1e-14
1e-14
1e-14
1e-14
1e-14
1e-14
1e-14
1.00006e-14
1.12919e-14
1.84521e-14
1e-14
1e-14
1e-14
1e-14
1e-14
1e-14
1e-14
1.00001e-14
1e-14
1e-14
1e-14
1e-14
1.00258e-14
1.01808e-14
1.00895e-12
1e-14
1e-14
1e-14
1e-14
1e-14
1e-14
1e-14
1e-14
1e-14
1e-14
1e-14
1.00001e-14
1.00137e-14
1e-14
1e-14
1e-14
1e-14
1e-14
1e-14
1e-14
1e-14
1e-14
1e-14
1e-14
1e-14
1e-14
1e-14
1e-14
1e-14
1e-14
1.00001e-14
1e-14
1e-14
1e-14
1e-14
1e-14
1e-14
1e-14
1e-14
1e-14
1e-14
1e-14
1e-14
1.08509e-14
1.22052e-14
1.00002e-14
1e-14
1.00001e-14
1.00002e-14
1e-14
1e-14
1.00001e-14
1e-14
1.00001e-14
1.00002e-14
1.00001e-14
1e-14
1e-14
1.02811e-14
1.51154e-14
3.59885e-13
4.03835e-13
1.02754e-14
1.08476e-14
1e-14
1.15645e-14
2.7016e-14
2.4841e-13
1e-14
1e-14
1e-14
1.00134e-14
1.00258e-14
1.12873e-14
1.0823e-14
1e-14
1e-14
1e-14
1e-14
1e-14
1e-14
1e-14
1.00232e-14
1.22704e-14
1.60049e-14
7.91086e-13
1.00001e-14
1e-14
1e-14
1e-14
1e-14
1e-14
1e-14
1e-14
1.00954e-14
1e-14
4.72922e-13
1.00001e-14
1e-14
1e-14
1e-14
1e-14
1e-14
1e-14
1e-14
1e-14
1.0105e-14
1e-14
4.2839e-13
1e-14
1e-14
1e-14
1e-14
1e-14
1e-14
1e-14
1e-14
1e-14
1e-14
1.00956e-14
1.21207e-14
1.00001e-14
1.00001e-14
1e-14
1e-14
1e-14
1e-14
1e-14
1e-14
1e-14
1e-14
1e-14
1.22711e-14
1.97024e-14
1.00002e-14
1e-14
1e-14
1e-14
1e-14
1e-14
1e-14
1e-14
1e-14
1e-14
1e-14
1.00233e-14
1e-14
1.51335e-13
1.00001e-14
1e-14
1e-14
1e-14
1e-14
1e-14
1e-14
1e-14
1e-14
1e-14
1e-14
1e-14
1.12878e-14
1.83802e-14
1e-14
1e-14
1e-14
1e-14
1e-14
1e-14
1e-14
1e-14
1e-14
1e-14
1e-14
1e-14
1.00258e-14
1.01801e-14
1.00843e-12
1e-14
1e-14
1e-14
1e-14
1e-14
1e-14
1e-14
1e-14
1e-14
1e-14
1.00001e-14
1e-14
1.00134e-14
1e-14
1e-14
1e-14
1e-14
1e-14
1e-14
1e-14
1e-14
1e-14
1e-14
1e-14
1e-14
1e-14
1e-14
1e-14
1e-14
1e-14
1.00001e-14
1e-14
1e-14
1e-14
1e-14
1e-14
1e-14
1e-14
1e-14
1.00001e-14
1e-14
1e-14
1e-14
1.08479e-14
1.21607e-14
1.00001e-14
1e-14
1e-14
1e-14
1e-14
1e-14
1e-14
1.00001e-14
1.00001e-14
1.00001e-14
1e-14
1e-14
1e-14
1.02754e-14
1.51224e-14
3.59355e-13
4.03126e-13
1.03045e-14
1.08886e-14
1e-14
1.1573e-14
2.71793e-14
2.48431e-13
1e-14
1e-14
1e-14
1.00133e-14
1.00283e-14
1.13046e-14
1.08387e-14
1e-14
1e-14
1e-14
1e-14
1e-14
1e-14
1e-14
1.00225e-14
1.22157e-14
1.5988e-14
7.90992e-13
1e-14
1e-14
1e-14
1e-14
1e-14
1e-14
1e-14
1e-14
1.00937e-14
1e-14
4.72763e-13
1.00001e-14
1e-14
1e-14
1e-14
1e-14
1e-14
1e-14
1e-14
1e-14
1.01044e-14
1e-14
4.28166e-13
1.00001e-14
1e-14
1e-14
1e-14
1e-14
1e-14
1e-14
1e-14
1e-14
1e-14
1.00939e-14
1.21132e-14
1.00001e-14
1e-14
1e-14
1e-14
1e-14
1e-14
1e-14
1e-14
1e-14
1e-14
1e-14
1.22159e-14
1.95193e-14
1.00001e-14
1e-14
1e-14
1e-14
1e-14
1e-14
1e-14
1e-14
1e-14
1e-14
1e-14
1.00226e-14
1e-14
1.50513e-13
1.00001e-14
1e-14
1e-14
1e-14
1e-14
1e-14
1e-14
1e-14
1e-14
1e-14
1e-14
1e-14
1.13049e-14
1.82163e-14
1e-14
1e-14
1e-14
1e-14
1e-14
1.00001e-14
1e-14
1e-14
1e-14
1e-14
1.00001e-14
1e-14
1.00284e-14
1.01773e-14
1.00758e-12
1e-14
1e-14
1e-14
1e-14
1.00001e-14
1e-14
1e-14
1e-14
1e-14
1.00001e-14
1.00001e-14
1e-14
1.00133e-14
1e-14
1e-14
1.00001e-14
1e-14
1e-14
1e-14
1e-14
1e-14
1e-14
1e-14
1.00001e-14
1.00001e-14
1e-14
1e-14
1e-14
1e-14
1e-14
1e-14
1e-14
1e-14
1e-14
1e-14
1e-14
1e-14
1.00001e-14
1.00001e-14
1e-14
1e-14
1e-14
1e-14
1.08887e-14
1.20941e-14
1.00002e-14
1e-14
1e-14
1e-14
1e-14
1e-14
1.00001e-14
1.00001e-14
1e-14
1e-14
1e-14
1e-14
1e-14
1.03043e-14
1.5121e-14
3.57462e-13
4.00612e-13
1.02097e-14
1.08228e-14
1e-14
1.16108e-14
2.77229e-14
2.48165e-13
1e-14
1e-14
1e-14
1.00124e-14
1.00206e-14
1.12448e-14
1.08512e-14
1e-14
1e-14
1e-14
1e-14
1e-14
1e-14
1e-14
1.00194e-14
1.2395e-14
1.58688e-14
7.90245e-13
1e-14
1e-14
1e-14
1e-14
1e-14
1e-14
1e-14
1e-14
1.01106e-14
1e-14
4.7199e-13
1e-14
1e-14
1e-14
1e-14
1e-14
1e-14
1e-14
1e-14
1e-14
1.01123e-14
1e-14
4.27218e-13
1.00001e-14
1e-14
1e-14
1e-14
1e-14
1e-14
1e-14
1e-14
1e-14
1e-14
1.01108e-14
1.20794e-14
1.00001e-14
1e-14
1e-14
1e-14
1e-14
1e-14
1e-14
1e-14
1e-14
1e-14
1e-14
1.23955e-14
1.89775e-14
1e-14
1e-14
1e-14
1e-14
1e-14
1e-14
1e-14
1e-14
1e-14
1e-14
1e-14
1.00194e-14
1e-14
1.47948e-13
1e-14
1e-14
1e-14
1e-14
1e-14
1.00001e-14
1e-14
1e-14
1e-14
1.00001e-14
1.00001e-14
1e-14
1.1245e-14
1.78886e-14
1e-14
1e-14
1e-14
1e-14
1.00001e-14
1e-14
1e-14
1e-14
1e-14
1.00001e-14
1.00001e-14
1e-14
1.00206e-14
1.01667e-14
1.00479e-12
1e-14
1e-14
1e-14
1e-14
1e-14
1e-14
1e-14
1e-14
1.00001e-14
1.00001e-14
1e-14
1e-14
1.00124e-14
1e-14
1e-14
1e-14
1e-14
1e-14
1e-14
1e-14
1e-14
1e-14
1.00001e-14
1.00001e-14
1e-14
1e-14
1e-14
1e-14
1e-14
1e-14
1e-14
1e-14
1e-14
1e-14
1e-14
1e-14
1.00001e-14
1e-14
1e-14
1e-14
1e-14
1e-14
1e-14
1.0823e-14
1.1924e-14
1.00003e-14
1e-14
1e-14
1e-14
1.00001e-14
1.00001e-14
1.00001e-14
1e-14
1e-14
1e-14
1e-14
1e-14
1e-14
1.02092e-14
1.49811e-14
3.45928e-13
3.88626e-13
1.06844e-14
1.15245e-14
1e-14
1.10748e-14
2.708e-14
2.45271e-13
1e-14
1e-14
1e-14
1.00162e-14
1.00631e-14
1.17231e-14
1.10436e-14
1e-14
1e-14
1e-14
1e-14
1e-14
1e-14
1e-14
1.00188e-14
1.21948e-14
1.62612e-14
7.87546e-13
1e-14
1e-14
1e-14
1e-14
1e-14
1e-14
1e-14
1e-14
1.00338e-14
1e-14
4.70934e-13
1e-14
1e-14
1e-14
1e-14
1e-14
1e-14
1e-14
1e-14
1e-14
1.007e-14
1e-14
4.23628e-13
1.00001e-14
1e-14
1e-14
1e-14
1e-14
1e-14
1e-14
1e-14
1e-14
1e-14
1.00342e-14
1.23837e-14
1e-14
1e-14
1e-14
1e-14
1e-14
1e-14
1e-14
1e-14
1e-14
1e-14
1e-14
1.21949e-14
2.58413e-14
1e-14
1e-14
1e-14
1e-14
1e-14
1e-14
1e-14
1e-14
1e-14
1e-14
1e-14
1.00189e-14
1e-14
1.32201e-13
1e-14
1e-14
1e-14
1e-14
1e-14
1e-14
1e-14
1e-14
1e-14
1.00001e-14
1e-14
1e-14
1.17237e-14
1.70818e-14
1e-14
1e-14
1e-14
1e-14
1e-14
1e-14
1e-14
1e-14
1.00001e-14
1e-14
1e-14
1e-14
1.00632e-14
1.01147e-14
1.00653e-12
1e-14
1e-14
1e-14
1e-14
1e-14
1e-14
1e-14
1e-14
1e-14
1e-14
1e-14
1e-14
1.00163e-14
1e-14
1e-14
1e-14
1e-14
1e-14
1e-14
1e-14
1e-14
1.00001e-14
1.00001e-14
1e-14
1e-14
1e-14
1e-14
1e-14
1e-14
1e-14
1e-14
1e-14
1e-14
1e-14
1e-14
1.00001e-14
1.00001e-14
1e-14
1e-14
1e-14
1.00001e-14
1.00001e-14
1e-14
1.15226e-14
1.14908e-14
1.00001e-14
1e-14
1e-14
1e-14
1.00001e-14
1e-14
1e-14
1e-14
1e-14
1.00001e-14
1.00001e-14
1e-14
1e-14
1.06846e-14
1.23656e-14
4.58973e-14
3.87426e-14
1.01922e-14
1.03097e-14
1e-14
1.07896e-14
1.6562e-14
4.16936e-14
1e-14
1e-14
1e-14
1.0003e-14
1.00151e-14
1.02435e-14
1.04898e-14
2.71853e-14
1e-14
1e-14
1e-14
1e-14
1e-14
1e-14
1.00027e-14
1.02992e-14
1.24248e-14
1e-14
1e-14
1e-14
1e-14
1e-14
1e-14
1e-14
1e-14
1e-14
1.00033e-14
1e-14
1e-14
1.00001e-14
1e-14
1e-14
1e-14
1e-14
1e-14
1e-14
1.00001e-14
1e-14
1.00085e-14
1e-14
1e-14
1.00001e-14
1e-14
1e-14
1e-14
1e-14
1e-14
1e-14
1e-14
1e-14
1e-14
1.00033e-14
1e-14
1e-14
1e-14
1e-14
1e-14
1e-14
1e-14
1e-14
1e-14
1e-14
1e-14
1e-14
1.02992e-14
1.64543e-14
1e-14
1e-14
1e-14
1e-14
1e-14
1e-14
1e-14
1e-14
1e-14
1e-14
1e-14
1.00027e-14
1.00279e-14
1e-14
1e-14
1e-14
1e-14
1e-14
1e-14
1e-14
1e-14
1e-14
1.00001e-14
1e-14
1e-14
1e-14
1.02437e-14
1.64266e-14
1e-14
1e-14
1e-14
1e-14
1e-14
1e-14
1e-14
1.00001e-14
1.00001e-14
1e-14
1e-14
1e-14
1.00152e-14
1e-14
1e-14
1e-14
1e-14
1e-14
1e-14
1e-14
1e-14
1.00001e-14
1e-14
1e-14
1e-14
1e-14
1e-14
1.00031e-14
1.00196e-14
5.09898e-14
1e-14
1e-14
1e-14
1e-14
1e-14
1e-14
1e-14
1e-14
1e-14
1e-14
1e-14
1.00001e-14
1.00001e-14
1e-14
1.34539e-14
1e-14
1e-14
1e-14
1e-14
1.00001e-14
1.00001e-14
1e-14
1e-14
1e-14
1e-14
1.00001e-14
1.00001e-14
1e-14
1.03092e-14
1.44521e-14
1e-14
1e-14
1.00001e-14
1.00001e-14
1.00001e-14
1.00001e-14
1.00001e-14
1e-14
1e-14
1.00001e-14
1.00001e-14
1e-14
1e-14
1.01924e-14
1e-14
1.05416e-14
1.02441e-14
1.00133e-14
1.00418e-14
1.00646e-14
1e-14
1.00012e-14
1.00908e-14
1.02865e-14
1e-14
1e-14
1e-14
1.00006e-14
1.00032e-14
1.00424e-14
1.00125e-14
1.00781e-14
1e-14
1e-14
1e-14
1e-14
1e-14
1e-14
1.00004e-14
1.00471e-14
1.00638e-14
1.00021e-14
1e-14
1e-14
1e-14
1e-14
1e-14
1e-14
1e-14
1e-14
1.00003e-14
1e-14
1.00003e-14
1e-14
1e-14
1e-14
1e-14
1e-14
1e-14
1e-14
1e-14
1e-14
1.00009e-14
1e-14
1.00012e-14
1e-14
1e-14
1e-14
1e-14
1e-14
1e-14
1e-14
1e-14
1e-14
1e-14
1.00003e-14
1e-14
1e-14
1e-14
1e-14
1e-14
1e-14
1e-14
1e-14
1e-14
1e-14
1e-14
1e-14
1.00471e-14
1.01097e-14
1e-14
1e-14
1e-14
1e-14
1e-14
1e-14
1e-14
1e-14
1e-14
1e-14
1e-14
1.00004e-14
1e-14
1.00004e-14
1e-14
1e-14
1e-14
1e-14
1e-14
1e-14
1e-14
1e-14
1e-14
1e-14
1e-14
1e-14
1.00424e-14
1.01296e-14
1e-14
1e-14
1e-14
1e-14
1e-14
1e-14
1e-14
1.00001e-14
1e-14
1e-14
1e-14
1e-14
1.00032e-14
1e-14
1e-14
1e-14
1e-14
1e-14
1e-14
1e-14
1e-14
1e-14
1e-14
1e-14
1.00001e-14
1.00001e-14
1.00007e-14
1.00013e-14
1.0352e-14
1e-14
1e-14
1e-14
1e-14
1e-14
1e-14
1e-14
1e-14
1e-14
1e-14
1.00001e-14
1.00001e-14
1.00001e-14
1e-14
1.00381e-14
1e-14
1e-14
1e-14
1e-14
1e-14
1e-14
1e-14
1e-14
1e-14
1e-14
1.00001e-14
1.00001e-14
1e-14
1.00645e-14
1.01228e-14
1.00001e-14
1e-14
1e-14
1.00001e-14
1.00001e-14
1e-14
1e-14
1e-14
1e-14
1.00001e-14
1e-14
1e-14
1e-14
1.00419e-14
1e-14
1.00063e-14
1.0002e-14
1e-14
1.00077e-14
1.0012e-14
1.00001e-14
1.00001e-14
1.00009e-14
1.00018e-14
1e-14
1e-14
1e-14
1.00001e-14
1.00005e-14
1.00064e-14
1.00004e-14
1.00004e-14
1e-14
1e-14
1e-14
1e-14
1e-14
1e-14
1.00001e-14
1.00065e-14
1.00011e-14
1.00001e-14
1e-14
1e-14
1e-14
1e-14
1e-14
1e-14
1e-14
1e-14
1e-14
1.00001e-14
1e-14
1e-14
1e-14
1e-14
1e-14
1e-14
1e-14
1e-14
1e-14
1e-14
1.00001e-14
1.00001e-14
1e-14
1e-14
1e-14
1e-14
1e-14
1e-14
1e-14
1e-14
1e-14
1e-14
1e-14
1.00001e-14
1.00001e-14
1e-14
1e-14
1e-14
1e-14
1e-14
1e-14
1e-14
1e-14
1e-14
1e-14
1e-14
1.00066e-14
1.00012e-14
1e-14
1e-14
1e-14
1e-14
1e-14
1e-14
1e-14
1e-14
1e-14
1e-14
1e-14
1.00001e-14
1e-14
1e-14
1e-14
1e-14
1e-14
1e-14
1e-14
1e-14
1e-14
1e-14
1e-14
1e-14
1e-14
1e-14
1.00064e-14
1.00019e-14
1e-14
1e-14
1e-14
1e-14
1e-14
1e-14
1e-14
1e-14
1e-14
1e-14
1e-14
1e-14
1.00006e-14
1e-14
1e-14
1e-14
1e-14
1e-14
1e-14
1e-14
1e-14
1e-14
1e-14
1e-14
1e-14
1e-14
1.00001e-14
1.00001e-14
1.00034e-14
1e-14
1e-14
1e-14
1e-14
1e-14
1e-14
1e-14
1e-14
1e-14
1e-14
1e-14
1e-14
1e-14
1.00001e-14
1.00004e-14
1e-14
1e-14
1e-14
1e-14
1e-14
1e-14
1e-14
1e-14
1e-14
1e-14
1e-14
1e-14
1e-14
1.00119e-14
1.00022e-14
1.00002e-14
1e-14
1e-14
1e-14
1e-14
1e-14
1e-14
1e-14
1e-14
1.00001e-14
1e-14
1e-14
1e-14
1.00078e-14
1.00003e-14
1.00005e-14
1.00002e-14
1e-14
1.00013e-14
1.00019e-14
1e-14
1e-14
1e-14
1e-14
1e-14
1e-14
1e-14
1e-14
1.00001e-14
1.00009e-14
1e-14
1e-14
1e-14
1e-14
1e-14
1e-14
1e-14
1e-14
1e-14
1.00008e-14
1e-14
1e-14
1e-14
1e-14
1e-14
1e-14
1e-14
1e-14
1e-14
1e-14
1e-14
1e-14
1e-14
1e-14
1e-14
1e-14
1e-14
1e-14
1e-14
1e-14
1e-14
1e-14
1e-14
1.00001e-14
1e-14
1e-14
1e-14
1e-14
1e-14
1e-14
1e-14
1e-14
1e-14
1e-14
1e-14
1.00001e-14
1.00001e-14
1e-14
1e-14
1e-14
1e-14
1e-14
1e-14
1e-14
1e-14
1e-14
1e-14
1e-14
1.00009e-14
1e-14
1e-14
1e-14
1e-14
1e-14
1e-14
1e-14
1e-14
1e-14
1e-14
1e-14
1e-14
1e-14
1e-14
1e-14
1e-14
1e-14
1e-14
1e-14
1e-14
1e-14
1e-14
1e-14
1e-14
1e-14
1e-14
1e-14
1.00008e-14
1e-14
1e-14
1e-14
1e-14
1e-14
1e-14
1e-14
1e-14
1e-14
1e-14
1e-14
1e-14
1e-14
1.00001e-14
1e-14
1e-14
1e-14
1e-14
1e-14
1e-14
1e-14
1e-14
1e-14
1e-14
1e-14
1e-14
1e-14
1e-14
1e-14
1e-14
1e-14
1e-14
1e-14
1e-14
1e-14
1e-14
1e-14
1e-14
1e-14
1e-14
1e-14
1e-14
1e-14
1e-14
1e-14
1e-14
1e-14
1e-14
1e-14
1e-14
1e-14
1e-14
1e-14
1e-14
1e-14
1e-14
1e-14
1e-14
1.0002e-14
1.00001e-14
1.00002e-14
1e-14
1.00001e-14
1.00001e-14
1e-14
1e-14
1e-14
1e-14
1e-14
1e-14
1e-14
1e-14
1e-14
1.00013e-14
1e-14
1e-14
1e-14
1e-14
1.00002e-14
1.00003e-14
1e-14
1e-14
1e-14
1e-14
1e-14
1e-14
1e-14
1e-14
1e-14
1.00001e-14
1.00001e-14
1.00002e-14
1e-14
1e-14
1e-14
1e-14
1e-14
1e-14
1e-14
1.00001e-14
1e-14
1e-14
1e-14
1e-14
1e-14
1e-14
1e-14
1e-14
1.00001e-14
1.00001e-14
1e-14
1e-14
1e-14
1e-14
1e-14
1e-14
1e-14
1e-14
1e-14
1.00001e-14
1e-14
1e-14
1e-14
1e-14
1e-14
1e-14
1e-14
1e-14
1e-14
1e-14
1e-14
1e-14
1e-14
1e-14
1e-14
1e-14
1e-14
1e-14
1e-14
1e-14
1e-14
1e-14
1e-14
1e-14
1e-14
1e-14
1e-14
1e-14
1.00001e-14
1e-14
1e-14
1e-14
1e-14
1e-14
1e-14
1e-14
1e-14
1e-14
1e-14
1e-14
1e-14
1e-14
1e-14
1e-14
1e-14
1e-14
1e-14
1e-14
1e-14
1e-14
1e-14
1e-14
1e-14
1e-14
1e-14
1e-14
1.00001e-14
1e-14
1e-14
1e-14
1e-14
1e-14
1e-14
1e-14
1e-14
1e-14
1e-14
1e-14
1e-14
1e-14
1e-14
1e-14
1e-14
1.00001e-14
1e-14
1e-14
1e-14
1e-14
1e-14
1e-14
1e-14
1e-14
1e-14
1e-14
1e-14
1.00001e-14
1e-14
1.00001e-14
1.00001e-14
1e-14
1e-14
1e-14
1e-14
1e-14
1e-14
1e-14
1e-14
1e-14
1e-14
1e-14
1e-14
1.00001e-14
1.00001e-14
1e-14
1e-14
1e-14
1e-14
1e-14
1e-14
1e-14
1e-14
1e-14
1e-14
1e-14
1e-14
1.00003e-14
1e-14
1.00002e-14
1.00001e-14
1.00001e-14
1e-14
1e-14
1e-14
1e-14
1e-14
1e-14
1e-14
1e-14
1e-14
1e-14
1.00002e-14
1e-14
1e-14
1e-14
1e-14
1e-14
1e-14
1e-14
1e-14
1e-14
1e-14
1e-14
1e-14
1e-14
1e-14
1e-14
1e-14
1e-14
1e-14
1e-14
1e-14
1e-14
1e-14
1e-14
1e-14
1.00001e-14
1e-14
1e-14
1e-14
1e-14
1e-14
1e-14
1e-14
1e-14
1.00001e-14
1e-14
1e-14
1e-14
1e-14
1e-14
1.00001e-14
1e-14
1e-14
1e-14
1.00001e-14
1.00001e-14
1e-14
1e-14
1e-14
1e-14
1.00001e-14
1e-14
1.00001e-14
1e-14
1e-14
1e-14
1.00001e-14
1e-14
1e-14
1e-14
1e-14
1e-14
1e-14
1e-14
1.00001e-14
1e-14
1e-14
1e-14
1e-14
1e-14
1e-14
1e-14
1e-14
1.00001e-14
1e-14
1e-14
1.00001e-14
1e-14
1e-14
1e-14
1e-14
1e-14
1e-14
1e-14
1e-14
1e-14
1e-14
1e-14
1e-14
1.00001e-14
1.00001e-14
1.00001e-14
1e-14
1e-14
1e-14
1e-14
1e-14
1e-14
1e-14
1e-14
1e-14
1e-14
1e-14
1e-14
1e-14
1.00001e-14
1.00001e-14
1.00001e-14
1e-14
1e-14
1e-14
1e-14
1e-14
1e-14
1e-14
1e-14
1e-14
1e-14
1e-14
1.00001e-14
1.00001e-14
1e-14
1e-14
1e-14
1e-14
1e-14
1e-14
1e-14
1e-14
1e-14
1e-14
1e-14
1e-14
1e-14
1.00002e-14
1e-14
1e-14
1e-14
1e-14
1e-14
1e-14
1e-14
1e-14
1e-14
1e-14
1e-14
1e-14
1e-14
1.00002e-14
1.00001e-14
1e-14
1e-14
1e-14
1e-14
1.00001e-14
1e-14
1e-14
1e-14
1e-14
1e-14
1e-14
1.00001e-14
1e-14
1e-14
1.00003e-14
1.00001e-14
1.00001e-14
1e-14
1e-14
1e-14
1e-14
1e-14
1e-14
1.00001e-14
1.00001e-14
1.00001e-14
1e-14
1e-14
1e-14
1e-14
1e-14
1e-14
1e-14
1e-14
1e-14
1e-14
1e-14
1e-14
1.00001e-14
1e-14
1e-14
1e-14
1e-14
1e-14
1.00001e-14
1e-14
1.00001e-14
1e-14
1e-14
1e-14
1e-14
1.00001e-14
1e-14
1e-14
1e-14
1.00001e-14
1.00001e-14
1e-14
1e-14
1e-14
1e-14
1.00001e-14
1e-14
1e-14
1e-14
1e-14
1e-14
1.00001e-14
1e-14
1e-14
1e-14
1.00001e-14
1e-14
1e-14
1e-14
1e-14
1e-14
1.00001e-14
1e-14
1.00001e-14
1e-14
1e-14
1e-14
1.00001e-14
1e-14
1e-14
1.00001e-14
1.00001e-14
1e-14
1.00001e-14
1e-14
1.00001e-14
1e-14
1e-14
1e-14
1e-14
1e-14
1.00001e-14
1.00001e-14
1.00001e-14
1.00001e-14
1.00001e-14
1e-14
1e-14
1e-14
1e-14
1e-14
1e-14
1e-14
1e-14
1.00001e-14
1.00001e-14
1.00001e-14
1e-14
1e-14
1e-14
1e-14
1.00001e-14
1.00001e-14
1e-14
1e-14
1e-14
1e-14
1e-14
1e-14
1e-14
1e-14
1e-14
1e-14
1e-14
1e-14
1e-14
1.00001e-14
1.00001e-14
1e-14
1e-14
1e-14
1e-14
1e-14
1e-14
1e-14
1e-14
1e-14
1e-14
1e-14
1e-14
1e-14
1e-14
1e-14
1e-14
1e-14
1e-14
1e-14
1e-14
1e-14
1e-14
1e-14
1e-14
1e-14
1e-14
1e-14
1e-14
1e-14
1e-14
1e-14
1e-14
1e-14
1e-14
1e-14
1e-14
1e-14
1e-14
1e-14
1e-14
1e-14
1e-14
1.00001e-14
1e-14
1e-14
1e-14
1e-14
1e-14
1e-14
1e-14
1e-14
1e-14
1.00001e-14
1.00001e-14
1e-14
1.00001e-14
1e-14
1.00005e-14
1.00001e-14
1.00001e-14
1.00001e-14
1e-14
1e-14
1e-14
1e-14
1e-14
1.00001e-14
1.00001e-14
1e-14
1e-14
1.00001e-14
1e-14
1.00002e-14
1e-14
1e-14
1e-14
1e-14
1e-14
1e-14
1.00001e-14
1e-14
1.00001e-14
1e-14
1e-14
1e-14
1e-14
1e-14
1e-14
1e-14
1e-14
1e-14
1e-14
1e-14
1.00001e-14
1.00001e-14
1e-14
1e-14
1e-14
1.00001e-14
1e-14
1e-14
1e-14
1e-14
1.00001e-14
1e-14
1e-14
1e-14
1e-14
1e-14
1e-14
1e-14
1e-14
1e-14
1e-14
1.00001e-14
1e-14
1e-14
1.00001e-14
1.00001e-14
1.00001e-14
1.00001e-14
1.00001e-14
1e-14
1e-14
1e-14
1e-14
1e-14
1e-14
1.00001e-14
1.00001e-14
1.00001e-14
1.00001e-14
1.00001e-14
1e-14
1e-14
1e-14
1e-14
1e-14
1e-14
1.00001e-14
1.00001e-14
1e-14
1e-14
1e-14
1e-14
1e-14
1e-14
1.00001e-14
1e-14
1e-14
1e-14
1e-14
1e-14
1e-14
1e-14
1e-14
1e-14
1e-14
1e-14
1e-14
1e-14
1.00001e-14
1e-14
1e-14
1e-14
1e-14
1e-14
1e-14
1e-14
1e-14
1e-14
1e-14
1e-14
1e-14
1e-14
1e-14
1e-14
1e-14
1e-14
1e-14
1e-14
1e-14
1e-14
1e-14
1e-14
1e-14
1e-14
1e-14
1e-14
1e-14
1e-14
1e-14
1e-14
1e-14
1e-14
1e-14
1e-14
1e-14
1e-14
1e-14
1e-14
1e-14
1e-14
1e-14
1e-14
1e-14
1.00001e-14
1e-14
1e-14
1e-14
1e-14
1e-14
1e-14
1e-14
1e-14
1e-14
1e-14
1e-14
1e-14
1e-14
1e-14
1.00001e-14
1e-14
1e-14
1e-14
1e-14
1e-14
1e-14
1e-14
1e-14
1e-14
1e-14
1e-14
1e-14
1.00004e-14
1.00001e-14
1.00001e-14
1.00001e-14
1e-14
1e-14
1e-14
1e-14
1e-14
1e-14
1e-14
1e-14
1e-14
1e-14
1.00001e-14
4.7322e-13
5.04992e-13
1.97767e-14
2.11941e-14
5.34961e-13
2.42574e-14
3.33604e-14
5.89275e-14
1.26079e-14
1.07037e-14
7.86751e-14
1.05425e-13
1.12624e-12
3.79234e-14
4.35494e-14
1.16516e-14
1.01317e-14
3.20821e-13
1.76621e-14
5.25529e-14
1.17259e-14
4.30637e-13
9.64599e-13
1.47376e-14
4.04434e-14
1.01111e-14
1.13389e-14
1.12979e-13
1.39883e-14
8.68691e-14
1e-14
2.72897e-14
4.10802e-13
1.02959e-14
1.51187e-14
9.94464e-13
6.87975e-14
1.01849e-12
1.02825e-12
6.19704e-14
1.03184e-12
1.02025e-12
6.88697e-14
9.94572e-13
1.51256e-14
4.10782e-13
1.02981e-14
2.72926e-14
1e-14
8.68782e-14
1.39984e-14
1.13386e-13
9.63486e-13
1.13471e-14
4.06541e-14
1.01219e-14
1.50094e-14
4.30559e-13
1.21312e-14
5.12301e-14
1.77489e-14
3.21612e-13
1.01583e-14
4.34556e-14
1.15908e-14
3.70854e-14
1.12613e-12
9.6398e-14
7.71714e-14
1.04688e-14
1.275e-14
5.90808e-14
3.28696e-14
2.41853e-14
5.36993e-13
2.11652e-14
5.06619e-13
1.96697e-14
4.7438e-13
3.7337e-13
1.43066e-14
1.50467e-14
4.67529e-13
4.99874e-13
1.83545e-14
1.97291e-14
1.82151e-14
1.20076e-14
5.30235e-13
2.22986e-14
2.95146e-14
2.15501e-14
1e-14
5.16711e-14
1.21046e-14
1.01454e-14
1e-14
1.05155e-14
7.14901e-14
1e-14
1.009e-12
9.09811e-14
1.11948e-12
1e-14
1e-14
1.01687e-14
3.30548e-14
4.0808e-14
1.10816e-14
1.01522e-14
1.46363e-14
1.80126e-14
3.1887e-13
1.66605e-14
4.65227e-14
1e-14
1.44612e-13
1.2435e-14
4.29076e-13
7.42583e-13
9.58573e-13
2.63322e-14
1.00658e-14
1e-14
1.41651e-14
3.68588e-14
1.00701e-14
1.10744e-14
1.28331e-14
1.84782e-14
1.07635e-13
1.34921e-14
7.81309e-14
1e-14
1e-14
3.08428e-13
1.00178e-14
1.22715e-14
2.58479e-14
4.04824e-13
1.01935e-14
1.41608e-14
1.36574e-14
4.13938e-13
9.85209e-13
6.08694e-14
1.02274e-12
1.17499e-14
4.58928e-13
1.03017e-12
5.44646e-14
1.0339e-12
1.36598e-14
7.89966e-13
1.02438e-12
6.0933e-14
9.85203e-13
3.08384e-13
1.00179e-14
1.60553e-14
1.41667e-14
4.04825e-13
1.01944e-14
2.5847e-14
1e-14
1e-14
1.2829e-14
1e-14
7.81427e-14
1.34893e-14
1.07451e-13
7.42872e-13
9.58665e-13
2.64867e-14
1.00674e-14
1.09085e-14
1.10848e-14
3.69714e-14
1.0072e-14
1.42039e-14
1e-14
4.29235e-13
1.24348e-14
1.47029e-14
2.47179e-13
4.68437e-14
1.67524e-14
3.1911e-13
1e-14
1e-14
2.71637e-14
1.01497e-14
4.08415e-14
1.11111e-14
3.34431e-14
1e-14
1.11977e-12
9.17302e-14
1.01666e-14
7.20507e-14
1.05053e-14
2.26255e-14
1.21382e-14
5.21829e-14
1.82391e-14
4.02268e-13
2.97077e-14
2.23891e-14
5.30506e-13
3.76327e-13
1.43524e-14
3.59626e-13
1.98074e-14
5.00147e-13
1.84469e-14
4.68173e-13
3.76746e-13
1.43071e-14
1.50443e-14
4.67533e-13
4.99732e-13
1.83043e-14
1.9678e-14
1.79975e-14
1.21619e-14
5.30469e-13
2.22579e-14
2.91781e-14
2.39691e-14
1e-14
5.10789e-14
1.20717e-14
1.01374e-14
1e-14
1.04701e-14
7.17859e-14
1e-14
1.01076e-12
9.17897e-14
1.11962e-12
1e-14
1e-14
1.0177e-14
3.29788e-14
4.00645e-14
1.10253e-14
1.01422e-14
1.45486e-14
1.82548e-14
3.19225e-13
1.66477e-14
4.65328e-14
1e-14
1.52014e-13
1.27282e-14
4.27886e-13
7.47448e-13
9.59281e-13
2.68183e-14
1.00603e-14
1e-14
1.4212e-14
3.69117e-14
1.0068e-14
1.10055e-14
1.27102e-14
1.95342e-14
1.09169e-13
1.34271e-14
7.68518e-14
1.04623e-14
1e-14
3.09522e-13
1.00277e-14
1.21378e-14
2.60019e-14
4.05199e-13
1.01941e-14
1.40073e-14
1.49512e-14
4.28591e-13
9.86359e-13
5.91335e-14
1.01982e-12
1.26088e-14
4.74074e-13
1.02741e-12
5.30333e-14
1.03109e-12
1.49517e-14
7.91346e-13
1.02144e-12
5.91891e-14
9.86334e-13
3.09514e-13
1.00276e-14
1.59501e-14
1.4013e-14
4.05203e-13
1.01947e-14
2.59994e-14
1.04625e-14
1e-14
1.27109e-14
1e-14
7.68713e-14
1.3429e-14
1.09132e-13
7.4749e-13
9.59477e-13
2.68609e-14
1.00604e-14
1.08076e-14
1.10066e-14
3.69255e-14
1.00688e-14
1.42174e-14
1e-14
4.27924e-13
1.27274e-14
1.45772e-14
2.48167e-13
4.65737e-14
1.66602e-14
3.19223e-13
1e-14
1e-14
2.68602e-14
1.01419e-14
4.00493e-14
1.10279e-14
3.30327e-14
1e-14
1.11998e-12
9.1858e-14
1.01412e-14
7.1846e-14
1.04716e-14
2.41041e-14
1.20801e-14
5.11364e-14
1.80231e-14
4.0357e-13
2.92007e-14
2.22665e-14
5.30378e-13
3.76846e-13
1.4334e-14
3.59931e-13
1.96789e-14
4.99741e-13
1.83202e-14
4.67832e-13
3.77109e-13
1.43754e-14
1.5115e-14
4.67626e-13
4.99754e-13
1.83275e-14
1.97084e-14
1.80557e-14
1.21959e-14
5.305e-13
2.23032e-14
2.91623e-14
2.45182e-14
1e-14
5.11405e-14
1.20681e-14
1.01385e-14
1e-14
1.04668e-14
7.17622e-14
1e-14
1.00901e-12
9.19879e-14
1.1197e-12
1e-14
1e-14
1.01805e-14
3.30315e-14
3.99073e-14
1.10173e-14
1.01409e-14
1.45977e-14
1.84418e-14
3.19433e-13
1.66769e-14
4.65661e-14
1e-14
1.51735e-13
1.27982e-14
4.27328e-13
7.48138e-13
9.59661e-13
2.70781e-14
1.00582e-14
1e-14
1.42399e-14
3.69732e-14
1.00652e-14
1.09886e-14
1.27037e-14
1.97588e-14
1.10112e-13
1.34178e-14
7.66746e-14
1.07892e-14
1e-14
3.09773e-13
1.00285e-14
1.21229e-14
2.60469e-14
4.05344e-13
1.01884e-14
1.39945e-14
1.5249e-14
4.28649e-13
9.86527e-13
5.88634e-14
1.01923e-12
1.27973e-14
4.74246e-13
1.0268e-12
5.28022e-14
1.0305e-12
1.52478e-14
7.91045e-13
1.02089e-12
5.89151e-14
9.86581e-13
3.09749e-13
1.00284e-14
1.59908e-14
1.40003e-14
4.05337e-13
1.0189e-14
2.60481e-14
1.07892e-14
1e-14
1.27043e-14
1e-14
7.66878e-14
1.34196e-14
1.10099e-13
7.4827e-13
9.59699e-13
2.70881e-14
1.00584e-14
1.08133e-14
1.09893e-14
3.6979e-14
1.00658e-14
1.4242e-14
1e-14
4.27332e-13
1.27961e-14
1.46007e-14
2.4834e-13
4.65802e-14
1.66796e-14
3.1943e-13
1e-14
1e-14
2.69607e-14
1.01407e-14
3.9902e-14
1.10181e-14
3.3043e-14
1e-14
1.11979e-12
9.19987e-14
1.01417e-14
7.17799e-14
1.04648e-14
2.45411e-14
1.2069e-14
5.11561e-14
1.80603e-14
4.03992e-13
2.9176e-14
2.23023e-14
5.30486e-13
3.77122e-13
1.43802e-14
3.6022e-13
1.97e-14
4.99731e-13
1.83353e-14
4.6781e-13
3.76953e-13
1.43821e-14
1.51253e-14
4.67586e-13
4.99887e-13
1.8364e-14
1.97597e-14
1.80723e-14
1.2159e-14
5.30681e-13
2.23919e-14
2.93178e-14
2.46828e-14
1e-14
5.14228e-14
1.20657e-14
1.01382e-14
1e-14
1.04732e-14
7.16752e-14
1e-14
1.00842e-12
9.20677e-14
1.11959e-12
1e-14
1e-14
1.01802e-14
3.31075e-14
3.96772e-14
1.10136e-14
1.01399e-14
1.46046e-14
1.83691e-14
3.19738e-13
1.66967e-14
4.66093e-14
1e-14
1.51349e-13
1.28518e-14
4.26825e-13
7.4843e-13
9.59816e-13
2.70859e-14
1.00567e-14
1e-14
1.42543e-14
3.69702e-14
1.00616e-14
1.09729e-14
1.26911e-14
1.9698e-14
1.10959e-13
1.34049e-14
7.65287e-14
1.08119e-14
1e-14
3.09871e-13
1.00273e-14
1.21185e-14
2.60435e-14
4.05334e-13
1.01841e-14
1.39869e-14
1.52617e-14
4.2834e-13
9.86509e-13
5.88474e-14
1.01919e-12
1.28075e-14
4.74047e-13
1.02666e-12
5.28009e-14
1.03035e-12
1.52656e-14
7.91045e-13
1.02082e-12
5.89065e-14
9.86557e-13
3.09848e-13
1.00273e-14
1.60046e-14
1.39934e-14
4.05345e-13
1.01845e-14
2.60444e-14
1.0814e-14
1e-14
1.26917e-14
1e-14
7.65379e-14
1.34063e-14
1.10957e-13
7.48313e-13
9.59816e-13
2.70899e-14
1.00567e-14
1.08235e-14
1.09733e-14
3.69776e-14
1.00617e-14
1.42555e-14
1e-14
4.26817e-13
1.28511e-14
1.46056e-14
2.48408e-13
4.66169e-14
1.66979e-14
3.19751e-13
1e-14
1e-14
2.70203e-14
1.01399e-14
3.96816e-14
1.10135e-14
3.31084e-14
1e-14
1.11954e-12
9.2045e-14
1.01381e-14
7.16721e-14
1.04727e-14
2.46803e-14
1.20675e-14
5.14284e-14
1.80709e-14
4.03895e-13
2.93225e-14
2.23872e-14
5.30599e-13
3.77015e-13
1.43847e-14
3.60122e-13
1.97477e-14
4.99842e-13
1.83692e-14
4.67887e-13
3.76517e-13
1.43733e-14
1.51254e-14
4.67691e-13
5.00219e-13
1.84397e-14
1.98842e-14
1.80932e-14
1.20933e-14
5.30699e-13
2.26499e-14
2.98669e-14
2.49594e-14
1e-14
5.20103e-14
1.21132e-14
1.0132e-14
1e-14
1.0536e-14
7.17023e-14
1e-14
1.00754e-12
9.25747e-14
1.11932e-12
1e-14
1e-14
1.01771e-14
3.34031e-14
3.91223e-14
1.10068e-14
1.01391e-14
1.45987e-14
1.82136e-14
3.20585e-13
1.67372e-14
4.6783e-14
1e-14
1.50531e-13
1.2933e-14
4.26201e-13
7.48481e-13
9.59955e-13
2.70547e-14
1.00551e-14
1e-14
1.42775e-14
3.70532e-14
1.00572e-14
1.09571e-14
1.26577e-14
1.95132e-14
1.12143e-13
1.34088e-14
7.65463e-14
1.08319e-14
1e-14
3.09992e-13
1.00224e-14
1.21114e-14
2.60611e-14
4.05288e-13
1.01838e-14
1.39979e-14
1.52404e-14
4.28196e-13
9.86538e-13
5.91362e-14
1.01897e-12
1.27994e-14
4.73888e-13
1.02644e-12
5.29817e-14
1.03012e-12
1.52431e-14
7.90962e-13
1.02061e-12
5.91953e-14
9.86501e-13
3.09972e-13
1.00223e-14
1.59885e-14
1.40047e-14
4.05315e-13
1.01838e-14
2.60607e-14
1.08312e-14
1e-14
1.2658e-14
1e-14
7.65538e-14
1.34098e-14
1.12134e-13
7.48419e-13
9.59987e-13
2.70595e-14
1.0055e-14
1.08385e-14
1.09575e-14
3.70605e-14
1.00571e-14
1.42786e-14
1e-14
4.26225e-13
1.29322e-14
1.46001e-14
2.48418e-13
4.67865e-14
1.67375e-14
3.20594e-13
1e-14
1e-14
2.71794e-14
1.0139e-14
3.91238e-14
1.10072e-14
3.34088e-14
1e-14
1.11937e-12
9.25902e-14
1.01334e-14
7.17143e-14
1.05345e-14
2.49572e-14
1.2114e-14
5.2013e-14
1.80906e-14
4.0318e-13
2.98705e-14
2.26421e-14
5.3066e-13
3.76522e-13
1.43743e-14
3.5964e-13
1.98695e-14
5.00161e-13
1.8445e-14
4.68012e-13
3.74764e-13
1.42343e-14
1.49858e-14
4.68652e-13
5.01879e-13
1.88762e-14
2.05323e-14
1.80975e-14
1.1923e-14
5.31755e-13
2.34738e-14
3.15605e-14
2.61452e-14
1e-14
5.3317e-14
1.24688e-14
1.01122e-14
1e-14
1.07683e-14
7.39571e-14
1e-14
1.0048e-12
9.44259e-14
1.12003e-12
1e-14
1e-14
1.01665e-14
3.50307e-14
3.97813e-14
1.10112e-14
1.01586e-14
1.45208e-14
1.78871e-14
3.23162e-13
1.69347e-14
4.74682e-14
1e-14
1.47988e-13
1.29895e-14
4.24426e-13
7.48117e-13
9.61901e-13
2.70746e-14
1.00488e-14