/*--------------------------------*- C++ -*----------------------------------*\
| =========                 |                                                 |
| \\      /  F ield         | OpenFOAM: The Open Source CFD Toolbox           |
|  \\    /   O peration     | Version:  2.1.1                                 |
|   \\  /    A nd           | Web:      www.OpenFOAM.org                      |
|    \\/     M anipulation  |                                                 |
\*---------------------------------------------------------------------------*/
FoamFile
{
    version     2.0;
    format      ascii;
    class       volScalarField;
    location    "0.125";
    object      p;
}
// * * * * * * * * * * * * * * * * * * * * * * * * * * * * * * * * * * * * * //

dimensions      [0 2 -2 0 0 0 0];

internalField   nonuniform List<scalar> 
163952
(
0.0416811
0.0411048
0.0363688
0.0311741
0.0299773
0.0273659
0.0267758
0.0264522
0.0366889
0.0323468
0.0273053
0.0248156
0.023572
0.022793
0.0224787
0.0223375
0.0337201
0.0279832
0.0244795
0.0228399
0.0219273
0.0213894
0.0210508
0.0208705
0.020785
0.0335899
0.026091
0.0232567
0.0219101
0.0211548
0.0206761
0.0203565
0.0201448
0.0200187
0.0199552
0.0335911
0.0255491
0.0227325
0.0214542
0.0207394
0.0202756
0.0199517
0.0197209
0.0195614
0.0194608
0.0194084
0.0337204
0.0260912
0.0227325
0.0213107
0.0205482
0.0200595
0.019714
0.01946
0.0192734
0.0191414
0.0190558
0.0190104
0.0366887
0.0279833
0.0232567
0.0214543
0.0205482
0.0199899
0.0196016
0.0193149
0.0190993
0.0189387
0.0188237
0.0187483
0.0187078
0.032347
0.0244796
0.0219102
0.0207395
0.0200595
0.0196016
0.019268
0.0190163
0.018825
0.0186817
0.0185786
0.0185103
0.0184735
0.0363691
0.0273055
0.02284
0.021155
0.0202758
0.0197141
0.019315
0.0190163
0.0187883
0.018614
0.0184829
0.0183882
0.0183253
0.0182913
0.0311744
0.0248158
0.0219275
0.0206762
0.0199518
0.0194602
0.0190993
0.0188251
0.018614
0.018452
0.0183298
0.0182412
0.0181822
0.0181502
0.0299776
0.0235723
0.0213897
0.0203567
0.019721
0.0192736
0.0189388
0.0186818
0.018483
0.0183298
0.0182139
0.0181298
0.0180736
0.0180431
0.0273662
0.0227933
0.021051
0.0201451
0.0195616
0.0191416
0.0188239
0.0185787
0.0183883
0.0182412
0.0181298
0.0180487
0.0179945
0.017965
0.0416814
0.0267761
0.022479
0.0208708
0.0200189
0.019461
0.019056
0.0187484
0.0185105
0.0183254
0.0181823
0.0180736
0.0179945
0.0179416
0.0179128
0.0411052
0.0264525
0.0223378
0.0207853
0.0199554
0.0194087
0.0190106
0.018708
0.0184737
0.0182914
0.0181503
0.0180432
0.0179651
0.0179129
0.0178845
0.0235072
0.023564
0.0225019
0.0237111
0.0224422
0.0221281
0.0220832
0.0220624
0.0226066
0.0244206
0.0221078
0.0217956
0.021535
0.0213442
0.0212695
0.0212177
0.0233848
0.0221596
0.0217417
0.0213298
0.0209891
0.0207104
0.0205257
0.0204296
0.0203801
0.0221292
0.0218389
0.0214017
0.0209604
0.0205677
0.0202565
0.0200203
0.0198606
0.0197685
0.0197242
0.0221299
0.0217097
0.0212176
0.0207137
0.0202867
0.0199443
0.0196848
0.0194935
0.0193617
0.0192814
0.0192429
0.0233851
0.0218392
0.0212176
0.0206337
0.0201448
0.0197669
0.0194777
0.0192598
0.0190991
0.0189868
0.0189164
0.0188824
0.0226069
0.0221598
0.0214018
0.0207138
0.0201449
0.0197083
0.0193789
0.0191285
0.0189392
0.0187988
0.0186998
0.0186369
0.0186064
0.0244207
0.0217419
0.0209606
0.0202868
0.0197669
0.0193789
0.0190861
0.0188629
0.0186933
0.018567
0.0184774
0.0184201
0.0183921
0.0225021
0.022108
0.02133
0.0205679
0.0199444
0.0194778
0.0191286
0.0188629
0.0186592
0.0185037
0.0183874
0.0183045
0.0182512
0.0182251
0.0237114
0.0217958
0.0209893
0.0202567
0.0196849
0.0192599
0.0189392
0.0186934
0.0185037
0.0183582
0.018249
0.018171
0.0181207
0.018096
0.0224424
0.0215352
0.0207107
0.0200205
0.0194937
0.0190992
0.0187989
0.0185671
0.0183874
0.0182491
0.018145
0.0180704
0.0180222
0.0179986
0.0221284
0.0213445
0.0205259
0.0198609
0.0193619
0.0189869
0.0187
0.0184776
0.0183046
0.018171
0.0180704
0.0179982
0.0179515
0.0179286
0.0235075
0.0220835
0.0212698
0.0204299
0.0197687
0.0192817
0.0189166
0.0186371
0.0184202
0.0182513
0.0181207
0.0180223
0.0179515
0.0179058
0.0178833
0.0235643
0.0220627
0.021218
0.0203804
0.0197244
0.0192431
0.0188827
0.0186066
0.0183922
0.0182252
0.0180961
0.0179986
0.0179286
0.0178833
0.0178611
0.0198635
0.0198778
0.0199426
0.0203245
0.0205481
0.0204324
0.0203249
0.0202843
0.0199494
0.0207934
0.0203432
0.0202652
0.0201703
0.0201316
0.0201022
0.0200768
0.0201598
0.020357
0.0202566
0.0201361
0.0199994
0.0198549
0.0197636
0.0197086
0.0196782
0.020507
0.02029
0.020165
0.0199851
0.0197931
0.0196273
0.0194875
0.0193875
0.0193252
0.0192939
0.0205078
0.0202449
0.020092
0.0198704
0.0196455
0.0194429
0.0192768
0.0191455
0.0190509
0.0189909
0.0189613
0.0201599
0.0202903
0.020092
0.0198325
0.0195667
0.0193331
0.0191367
0.0189784
0.0188558
0.0187673
0.0187107
0.0186829
0.0199496
0.0203572
0.0201652
0.0198705
0.0195667
0.0192957
0.0190674
0.0188801
0.0187311
0.0186167
0.0185341
0.0184809
0.0184548
0.0207935
0.0202568
0.0199853
0.0196456
0.0193332
0.0190674
0.0188478
0.01867
0.0185297
0.0184224
0.018345
0.0182949
0.0182703
0.0199428
0.0203434
0.0201363
0.0197933
0.019443
0.0191368
0.0188802
0.01867
0.0185011
0.0183682
0.0182667
0.0181934
0.0181459
0.0181225
0.0203248
0.0202654
0.0199996
0.0196275
0.0192769
0.0189786
0.0187312
0.0185297
0.0183682
0.0182412
0.0181443
0.0180742
0.0180287
0.0180063
0.0205483
0.0201706
0.0198552
0.0194877
0.0191457
0.0188559
0.0186168
0.0184225
0.0182668
0.0181443
0.0180508
0.0179831
0.0179392
0.0179175
0.0204327
0.0201319
0.0197639
0.0193877
0.0190511
0.0187675
0.0185343
0.0183451
0.0181935
0.0180742
0.0179831
0.0179172
0.0178743
0.0178532
0.0198638
0.0203252
0.0201025
0.0197089
0.0193255
0.0189911
0.0187109
0.0184811
0.018295
0.018146
0.0180288
0.0179392
0.0178744
0.0178322
0.0178114
0.0198781
0.0202846
0.0200771
0.0196785
0.0192942
0.0189616
0.0186831
0.018455
0.0182704
0.0181227
0.0180064
0.0179176
0.0178533
0.0178115
0.0177909
0.0185162
0.0185266
0.0186335
0.0188605
0.0191914
0.019191
0.0191386
0.0191165
0.0186484
0.0190743
0.0191143
0.0191018
0.0190726
0.019074
0.0190728
0.0190692
0.0187893
0.0191182
0.0191057
0.0190987
0.01907
0.0190183
0.0189825
0.0189572
0.0189429
0.0192216
0.0191216
0.0191156
0.0190654
0.0189992
0.018935
0.0188722
0.0188224
0.0187877
0.0187694
0.0192222
0.019102
0.019097
0.0190339
0.0189445
0.0188512
0.0187654
0.0186909
0.0186338
0.0185957
0.0185763
0.0187894
0.0191218
0.0190969
0.0190226
0.0189139
0.0187978
0.0186876
0.0185905
0.0185102
0.0184497
0.0184097
0.0183897
0.0186486
0.0191184
0.0191157
0.019034
0.018914
0.0187792
0.0186473
0.0185278
0.018426
0.018344
0.0182829
0.0182426
0.0182225
0.0190745
0.0191059
0.0190655
0.0189446
0.0187979
0.0186473
0.0185066
0.0183833
0.0182804
0.0181988
0.0181383
0.0180985
0.0180787
0.0186337
0.0191146
0.0190989
0.0189994
0.0188513
0.0186877
0.0185278
0.0183833
0.0182592
0.018157
0.0180765
0.0180171
0.0179781
0.0179587
0.0188607
0.0191021
0.0190702
0.0189352
0.0187656
0.0185907
0.0184261
0.0182805
0.0181571
0.0180561
0.017977
0.0179188
0.0178806
0.0178616
0.0191917
0.0190729
0.0190185
0.0188724
0.0186911
0.0185104
0.0183441
0.0181989
0.0180766
0.0179771
0.0178993
0.0178421
0.0178045
0.017786
0.0191913
0.0190743
0.0189828
0.0188227
0.0186341
0.0184499
0.018283
0.0181384
0.0180172
0.0179189
0.0178421
0.0177858
0.0177488
0.0177304
0.0185166
0.0191389
0.0190731
0.0189575
0.018788
0.0185959
0.0184099
0.0182427
0.0180986
0.0179782
0.0178807
0.0178046
0.0177488
0.0177122
0.017694
0.018527
0.0191169
0.0190696
0.0189432
0.0187697
0.0185766
0.01839
0.0182227
0.0180789
0.0179589
0.0178617
0.017786
0.0177305
0.017694
0.017676
0.0177983
0.0178064
0.0178593
0.0180079
0.0182243
0.0182678
0.0182582
0.0182566
0.0178843
0.0181167
0.0182246
0.0182436
0.0182491
0.0182615
0.0182697
0.0182742
0.0179742
0.018226
0.0182523
0.0182854
0.0183038
0.0183033
0.0183002
0.0182942
0.0182899
0.0182586
0.018248
0.018292
0.0183053
0.0183056
0.018298
0.0182827
0.0182666
0.0182529
0.0182449
0.018259
0.0182428
0.0182989
0.0183143
0.0183019
0.0182768
0.0182453
0.0182125
0.0181847
0.0181647
0.0181541
0.0179743
0.0182482
0.0182988
0.018317
0.018299
0.0182599
0.0182122
0.0181635
0.0181189
0.0180833
0.0180586
0.018046
0.0178845
0.0182262
0.0182921
0.0183144
0.0182991
0.0182539
0.0181937
0.0181298
0.0180698
0.0180182
0.0179779
0.0179506
0.0179368
0.0181169
0.0182525
0.0183055
0.018302
0.01826
0.0181937
0.0181181
0.0180438
0.0179769
0.0179211
0.0178784
0.0178496
0.0178351
0.0178596
0.0182248
0.0182856
0.0183058
0.0182769
0.0182124
0.0181299
0.0180438
0.0179629
0.0178921
0.017834
0.0177899
0.0177604
0.0177456
0.0180082
0.0182439
0.018304
0.0182982
0.0182455
0.0181637
0.01807
0.017977
0.0178921
0.0178191
0.0177598
0.0177151
0.0176853
0.0176703
0.0182247
0.0182494
0.0183036
0.0182829
0.0182127
0.0181191
0.0180183
0.0179212
0.017834
0.0177598
0.0177
0.017655
0.0176251
0.0176102
0.0182682
0.0182618
0.0183006
0.0182669
0.0181849
0.0180835
0.0179781
0.0178785
0.01779
0.0177152
0.0176551
0.0176101
0.0175802
0.0175652
0.0177986
0.0182586
0.0182701
0.0182945
0.0182532
0.018165
0.0180589
0.0179508
0.0178497
0.0177605
0.0176854
0.0176252
0.0175802
0.0175503
0.0175354
0.0178068
0.018257
0.0182746
0.0182903
0.0182452
0.0181544
0.0180463
0.017937
0.0178353
0.0177457
0.0176705
0.0176103
0.0175653
0.0175354
0.0175205
0.0172881
0.0172948
0.0173073
0.0174002
0.0175254
0.0175757
0.0175808
0.0175869
0.0173295
0.0174735
0.0175554
0.0175864
0.0176078
0.0176271
0.0176377
0.0176437
0.0173845
0.0175559
0.0175974
0.0176415
0.0176754
0.0176961
0.01771
0.0177157
0.0177175
0.0175565
0.0175833
0.0176415
0.01768
0.0177092
0.017729
0.0177392
0.0177435
0.0177438
0.0177431
0.0175568
0.0175876
0.0176583
0.0177042
0.0177298
0.0177427
0.017745
0.0177404
0.0177336
0.0177274
0.0177237
0.0173846
0.0175835
0.0176582
0.0177128
0.0177405
0.0177477
0.017742
0.0177283
0.0177113
0.0176957
0.0176839
0.0176776
0.0173298
0.0175561
0.0176417
0.0177043
0.0177405
0.0177493
0.0177385
0.0177166
0.0176902
0.0176641
0.017642
0.0176263
0.0176181
0.0174737
0.0175977
0.0176802
0.0177299
0.0177478
0.0177386
0.0177122
0.0176778
0.017642
0.0176093
0.0175829
0.0175645
0.0175551
0.0173076
0.0175557
0.0176418
0.0177094
0.0177429
0.0177421
0.0177167
0.0176778
0.0176341
0.0175918
0.0175547
0.0175254
0.0175052
0.017495
0.0174005
0.0175867
0.0176757
0.0177293
0.0177452
0.0177284
0.0176903
0.017642
0.0175918
0.017545
0.017505
0.0174738
0.0174525
0.0174417
0.0175258
0.0176081
0.0176964
0.0177395
0.0177407
0.0177116
0.0176642
0.0176094
0.0175548
0.017505
0.0174631
0.0174307
0.0174087
0.0173976
0.0175761
0.0176275
0.0177103
0.0177439
0.0177339
0.0176959
0.0176422
0.0175831
0.0175255
0.0174739
0.0174307
0.0173975
0.0173751
0.0173638
0.0172885
0.0175812
0.0176381
0.0177161
0.0177441
0.0177277
0.0176842
0.0176265
0.0175647
0.0175054
0.0174526
0.0174087
0.0173751
0.0173524
0.017341
0.0172952
0.0175873
0.0176442
0.0177179
0.0177434
0.017724
0.0176779
0.0176184
0.0175553
0.0174951
0.0174418
0.0173977
0.0173638
0.017341
0.0173295
0.0168546
0.0168622
0.016855
0.0169147
0.0169816
0.0170276
0.0170367
0.0170445
0.016873
0.0169742
0.0170214
0.0170527
0.0170779
0.0171007
0.0171129
0.0171196
0.0169074
0.0170215
0.0170651
0.0171091
0.0171456
0.0171723
0.0171931
0.0172048
0.0172101
0.0170087
0.0170472
0.0171057
0.0171515
0.0171907
0.0172221
0.0172446
0.01726
0.0172685
0.0172722
0.0170089
0.0170548
0.0171242
0.0171794
0.0172214
0.0172535
0.0172753
0.0172883
0.0172955
0.0172988
0.0173
0.0169076
0.0170474
0.0171242
0.0171894
0.0172378
0.0172708
0.0172911
0.017301
0.0173038
0.0173032
0.0173013
0.0173
0.0168733
0.0170218
0.0171059
0.0171795
0.0172379
0.0172766
0.0172975
0.017305
0.0173036
0.0172975
0.0172902
0.0172841
0.0172807
0.0169744
0.0170653
0.0171517
0.0172216
0.0172709
0.0172976
0.0173059
0.0173018
0.0172908
0.0172775
0.0172651
0.0172558
0.0172508
0.0168553
0.0170217
0.0171094
0.017191
0.0172537
0.0172912
0.0173051
0.0173018
0.0172881
0.0172697
0.017251
0.0172348
0.0172232
0.0172171
0.0169151
0.0170531
0.0171459
0.0172224
0.0172755
0.0173012
0.0173038
0.0172909
0.0172697
0.0172459
0.0172232
0.0172044
0.0171911
0.0171842
0.0169821
0.0170783
0.0171727
0.017245
0.0172885
0.0173041
0.0172977
0.0172776
0.0172511
0.0172233
0.0171979
0.0171772
0.0171628
0.0171553
0.0170281
0.0171012
0.0171935
0.0172604
0.0172958
0.0173035
0.0172905
0.0172653
0.0172349
0.0172045
0.0171773
0.0171554
0.0171402
0.0171324
0.0168551
0.0170372
0.0171133
0.0172052
0.0172689
0.0172991
0.0173016
0.0172844
0.017256
0.0172233
0.0171912
0.0171628
0.0171402
0.0171245
0.0171165
0.0168626
0.017045
0.0171201
0.0172106
0.0172726
0.0173003
0.0173003
0.017281
0.017251
0.0172173
0.0171844
0.0171554
0.0171324
0.0171165
0.0171084
0.0164645
0.0164725
0.0164616
0.0165007
0.0165327
0.016571
0.0165808
0.0165885
0.016475
0.0165522
0.0165735
0.016601
0.0166246
0.0166472
0.0166598
0.0166668
0.016498
0.0165736
0.0166136
0.0166538
0.016688
0.0167147
0.0167368
0.0167506
0.0167574
0.0165555
0.0165952
0.016649
0.0166943
0.016735
0.0167698
0.016797
0.0168174
0.0168301
0.0168362
0.0165557
0.016603
0.0166661
0.0167212
0.0167685
0.0168087
0.0168401
0.0168629
0.0168786
0.0168879
0.0168922
0.0164982
0.0165953
0.0166661
0.016731
0.0167865
0.0168318
0.0168665
0.016891
0.0169068
0.0169165
0.0169217
0.016924
0.0164752
0.0165738
0.0166492
0.0167213
0.0167865
0.0168397
0.0168789
0.0169053
0.0169212
0.0169296
0.0169334
0.0169348
0.0169351
0.0165525
0.0166139
0.0166945
0.0167686
0.0168319
0.016879
0.0169097
0.0169269
0.0169345
0.0169362
0.0169351
0.0169332
0.016932
0.016462
0.0165739
0.0166541
0.0167353
0.0168089
0.0168667
0.0169054
0.0169269
0.0169357
0.0169362
0.0169325
0.0169274
0.016923
0.0169205
0.0165012
0.0166015
0.0166884
0.0167701
0.0168404
0.0168912
0.0169213
0.0169346
0.0169363
0.0169312
0.0169233
0.0169152
0.0169089
0.0169055
0.0165332
0.0166251
0.0167152
0.0167974
0.0168633
0.0169071
0.0169298
0.0169364
0.0169326
0.0169233
0.0169123
0.016902
0.0168944
0.0168903
0.0165716
0.0166478
0.0167373
0.0168178
0.0168789
0.0169168
0.0169337
0.0169353
0.0169276
0.0169153
0.0169021
0.0168904
0.0168818
0.0168772
0.016465
0.0165814
0.0166603
0.0167511
0.0168305
0.0168883
0.0169221
0.0169351
0.0169335
0.0169232
0.016909
0.0168945
0.0168818
0.0168726
0.0168678
0.016473
0.0165891
0.0166674
0.016758
0.0168366
0.0168927
0.0169244
0.0169355
0.0169322
0.0169207
0.0169057
0.0168904
0.0168773
0.0168678
0.0168628
0.0161091
0.0161166
0.0161082
0.0161343
0.0161458
0.0161765
0.0161855
0.0161922
0.0161181
0.0161796
0.0161838
0.0162069
0.0162273
0.0162478
0.0162594
0.0162661
0.0161348
0.0161841
0.0162191
0.0162542
0.0162846
0.016309
0.0163299
0.0163436
0.0163506
0.0161653
0.0162019
0.0162493
0.0162909
0.0163292
0.0163631
0.0163909
0.0164126
0.0164269
0.0164339
0.0161655
0.0162089
0.0162643
0.0163153
0.0163618
0.0164036
0.0164386
0.0164659
0.0164858
0.0164985
0.0165046
0.016135
0.0162021
0.0162643
0.0163242
0.0163795
0.0164287
0.01647
0.0165022
0.0165257
0.0165418
0.0165517
0.0165564
0.0161184
0.0161843
0.0162496
0.0163154
0.0163795
0.0164373
0.0164854
0.0165226
0.0165493
0.0165675
0.0165791
0.0165858
0.0165889
0.01618
0.0162194
0.0162912
0.016362
0.0164288
0.0164855
0.0165291
0.0165601
0.0165806
0.0165932
0.0166006
0.0166044
0.0166061
0.0161087
0.0161843
0.0162547
0.0163296
0.0164039
0.0164702
0.0165227
0.0165602
0.0165846
0.0165991
0.0166069
0.0166106
0.016612
0.0166124
0.0161349
0.0162075
0.0162851
0.0163636
0.016439
0.0165025
0.0165495
0.0165807
0.0165992
0.0166086
0.0166124
0.0166132
0.0166127
0.0166122
0.0161465
0.0162279
0.0163096
0.0163914
0.0164663
0.016526
0.0165677
0.0165934
0.016607
0.0166125
0.0166132
0.0166117
0.0166098
0.0166086
0.0161772
0.0162484
0.0163305
0.0164132
0.0164863
0.0165422
0.0165794
0.0166008
0.0166107
0.0166133
0.0166118
0.0166087
0.0166058
0.0166041
0.0161096
0.0161862
0.0162601
0.0163442
0.0164274
0.016499
0.0165521
0.0165862
0.0166047
0.0166122
0.0166128
0.0166099
0.0166058
0.0166023
0.0166003
0.0161172
0.0161929
0.0162668
0.0163512
0.0164345
0.0165051
0.0165568
0.0165893
0.0166063
0.0166126
0.0166123
0.0166087
0.0166042
0.0166003
0.0165981
0.0157829
0.0157894
0.0157844
0.0158024
0.0158012
0.0158256
0.0158333
0.0158388
0.0157921
0.0158424
0.0158352
0.0158543
0.0158715
0.015889
0.0158992
0.0159052
0.0158051
0.0158358
0.0158657
0.0158959
0.0159221
0.0159435
0.015962
0.0159745
0.0159811
0.0158184
0.0158507
0.0158916
0.0159283
0.0159626
0.0159937
0.0160197
0.0160407
0.0160548
0.0160619
0.0158186
0.0158569
0.0159046
0.0159498
0.0159927
0.0160325
0.0160673
0.0160956
0.0161169
0.0161309
0.0161379
0.0158054
0.0158509
0.0159046
0.0159576
0.016009
0.0160573
0.0161
0.0161352
0.0161624
0.016182
0.0161945
0.0162006
0.0157925
0.0158361
0.0158919
0.01595
0.0160091
0.0160659
0.0161165
0.0161586
0.0161913
0.0162153
0.0162319
0.0162421
0.0162471
0.0158429
0.0158662
0.0159287
0.0159929
0.0160574
0.0161166
0.0161663
0.0162051
0.0162336
0.0162537
0.0162669
0.0162749
0.0162786
0.015785
0.0158358
0.0158964
0.0159631
0.0160329
0.0161003
0.0161587
0.0162051
0.0162395
0.0162636
0.0162797
0.0162898
0.0162957
0.0162983
0.015803
0.015855
0.0159227
0.0159942
0.0160677
0.0161356
0.0161915
0.0162338
0.0162637
0.0162836
0.0162962
0.0163038
0.0163079
0.0163097
0.015802
0.0158722
0.0159441
0.0160203
0.016096
0.0161628
0.0162156
0.0162539
0.0162798
0.0162963
0.0163062
0.0163117
0.0163144
0.0163155
0.0158264
0.0158898
0.0159627
0.0160413
0.0161174
0.0161825
0.0162322
0.0162672
0.01629
0.0163039
0.0163117
0.0163157
0.0163175
0.0163181
0.0157835
0.0158341
0.0159
0.0159752
0.0160554
0.0161315
0.016195
0.0162425
0.0162751
0.0162959
0.0163081
0.0163145
0.0163175
0.0163187
0.016319
0.01579
0.0158396
0.0159059
0.0159818
0.0160626
0.0161385
0.0162011
0.0162475
0.0162789
0.0162986
0.0163099
0.0163157
0.0163182
0.016319
0.0163192
0.0154802
0.0154856
0.0154837
0.0154966
0.0154867
0.0155061
0.0155124
0.0155169
0.0154899
0.0155318
0.0155166
0.0155323
0.0155467
0.0155613
0.0155697
0.0155749
0.0155007
0.0155178
0.0155431
0.0155686
0.0155908
0.015609
0.0156248
0.0156357
0.0156415
0.0155025
0.0155304
0.0155653
0.0155969
0.0156267
0.015654
0.0156772
0.0156962
0.0157093
0.015716
0.0155026
0.0155359
0.0155765
0.0156157
0.0156536
0.0156897
0.0157221
0.0157491
0.01577
0.015784
0.0157911
0.0155011
0.0155307
0.0155766
0.0156225
0.0156682
0.0157128
0.0157537
0.0157889
0.0158169
0.0158378
0.0158514
0.0158582
0.0154904
0.0155182
0.0155656
0.0156159
0.0156683
0.0157209
0.0157701
0.015813
0.015848
0.0158749
0.0158941
0.0159064
0.0159125
0.0155324
0.0155436
0.0155973
0.0156539
0.015713
0.0157702
0.0158211
0.0158632
0.0158962
0.0159206
0.0159376
0.0159482
0.0159533
0.0154844
0.0155173
0.0155693
0.0156272
0.0156901
0.0157541
0.0158132
0.0158633
0.0159031
0.0159331
0.0159546
0.0159693
0.0159782
0.0159825
0.0154974
0.0155332
0.0155916
0.0156546
0.0157226
0.0157893
0.0158483
0.0158964
0.0159332
0.0159601
0.0159789
0.0159914
0.0159989
0.0160025
0.0154876
0.0155475
0.0156098
0.0156779
0.0157496
0.0158174
0.0158752
0.0159208
0.0159548
0.015979
0.0159955
0.0160062
0.0160126
0.0160155
0.0155071
0.0155622
0.0156257
0.015697
0.0157706
0.0158383
0.0158945
0.0159378
0.0159695
0.0159915
0.0160063
0.0160157
0.0160212
0.0160237
0.015481
0.0155133
0.0155707
0.0156365
0.01571
0.0157847
0.015852
0.0159069
0.0159485
0.0159785
0.0159991
0.0160127
0.0160212
0.0160261
0.0160283
0.0154864
0.0155179
0.0155758
0.0156424
0.0157168
0.0157917
0.0158587
0.0159129
0.0159537
0.0159828
0.0160027
0.0160157
0.0160237
0.0160283
0.0160304
0.0151959
0.0152004
0.0152008
0.0152112
0.0151943
0.0152099
0.0152148
0.0152186
0.0152062
0.0152417
0.0152208
0.0152337
0.0152454
0.0152574
0.0152642
0.0152685
0.0152156
0.0152227
0.0152439
0.0152653
0.0152838
0.0152988
0.0153119
0.0153209
0.0153259
0.0152095
0.0152336
0.0152631
0.0152899
0.0153151
0.0153383
0.0153582
0.0153747
0.0153861
0.0153921
0.0152096
0.0152384
0.0152729
0.0153061
0.0153386
0.0153701
0.0153988
0.0154233
0.0154426
0.0154557
0.0154624
0.015216
0.0152339
0.015273
0.0153121
0.0153515
0.0153909
0.0154282
0.0154611
0.0154881
0.0155086
0.0155223
0.0155291
0.0152068
0.0152232
0.0152636
0.0153064
0.0153517
0.0153983
0.0154436
0.0154845
0.0155192
0.0155466
0.0155668
0.01558
0.0155865
0.0152424
0.0152446
0.0152904
0.015339
0.0153912
0.0154437
0.0154925
0.0155348
0.0155691
0.0155956
0.0156145
0.0156267
0.0156327
0.0152017
0.0152217
0.0152661
0.0153157
0.0153706
0.0154286
0.0154848
0.0155349
0.0155766
0.0156095
0.0156342
0.0156516
0.0156626
0.0156679
0.0152122
0.0152347
0.0152847
0.015339
0.0153994
0.0154615
0.0155195
0.0155693
0.0156096
0.0156406
0.0156634
0.0156791
0.015689
0.0156937
0.0151955
0.0152465
0.0152997
0.0153591
0.015424
0.0154886
0.015547
0.0155958
0.0156344
0.0156634
0.0156845
0.0156989
0.0157078
0.015712
0.0152112
0.0152585
0.0153129
0.0153756
0.0154433
0.0155092
0.0155673
0.0156149
0.0156518
0.0156793
0.0156989
0.0157122
0.0157204
0.0157243
0.0151969
0.015216
0.0152653
0.0153219
0.015387
0.0154565
0.0155229
0.0155805
0.0156271
0.0156628
0.0156892
0.0157079
0.0157205
0.0157282
0.0157318
0.0152014
0.0152198
0.0152696
0.0153269
0.015393
0.0154632
0.0155297
0.015587
0.0156331
0.0156682
0.015694
0.0157122
0.0157244
0.0157319
0.0157354
0.0149257
0.0149295
0.0149319
0.0149408
0.0149189
0.0149315
0.014935
0.0149382
0.0149371
0.0149677
0.0149427
0.0149532
0.0149626
0.0149721
0.0149773
0.0149808
0.0149456
0.0149456
0.0149633
0.0149809
0.0149958
0.0150078
0.0150182
0.0150253
0.0150293
0.0149343
0.0149553
0.0149801
0.0150022
0.0150229
0.0150418
0.0150582
0.0150718
0.0150813
0.0150864
0.0149345
0.0149595
0.0149886
0.0150162
0.0150432
0.0150695
0.0150939
0.015115
0.0151319
0.0151436
0.0151496
0.0149461
0.0149556
0.0149887
0.0150214
0.0150543
0.0150878
0.0151202
0.0151495
0.0151741
0.0151932
0.0152061
0.0152126
0.0149378
0.0149463
0.0149806
0.0150165
0.0150545
0.0150943
0.0151342
0.0151713
0.0152037
0.0152301
0.01525
0.0152631
0.0152697
0.0149686
0.0149641
0.0150029
0.0150437
0.0150881
0.0151343
0.0151789
0.0152189
0.0152525
0.0152792
0.0152987
0.0153115
0.0153179
0.014933
0.0149439
0.0149819
0.0150237
0.0150701
0.0151206
0.0151716
0.015219
0.0152601
0.0152937
0.0153196
0.0153384
0.0153505
0.0153564
0.0149421
0.0149545
0.014997
0.0150428
0.0150946
0.01515
0.0152041
0.0152528
0.0152938
0.0153265
0.0153514
0.0153691
0.0153804
0.015386
0.0149204
0.014964
0.015009
0.0150592
0.0151158
0.0151748
0.0152306
0.0152795
0.0153198
0.0153515
0.0153752
0.0153919
0.0154026
0.0154077
0.0149331
0.0149736
0.0150194
0.0150729
0.0151328
0.0151939
0.0152505
0.0152991
0.0153386
0.0153692
0.015392
0.0154079
0.015418
0.0154229
0.0149271
0.0149365
0.0149787
0.0150265
0.0150824
0.0151445
0.0152068
0.0152637
0.015312
0.0153508
0.0153806
0.0154027
0.0154181
0.0154278
0.0154325
0.0149308
0.0149397
0.0149822
0.0150305
0.0150875
0.0151505
0.0152133
0.0152703
0.0153183
0.0153567
0.0153862
0.0154079
0.015423
0.0154325
0.0154371
0.0146662
0.0146697
0.014674
0.0146818
0.014657
0.0146672
0.014669
0.0146719
0.0146795
0.0147067
0.0146791
0.0146873
0.0146944
0.0147016
0.014705
0.0147079
0.0146878
0.0146832
0.0146976
0.0147116
0.0147232
0.014732
0.0147396
0.0147447
0.0147479
0.0146737
0.0146919
0.0147124
0.01473
0.0147461
0.0147608
0.0147734
0.0147839
0.0147913
0.0147954
0.0146739
0.0146954
0.0147198
0.014742
0.0147633
0.0147842
0.0148038
0.0148211
0.0148351
0.0148449
0.0148501
0.0146884
0.0146923
0.01472
0.0147464
0.0147727
0.0147998
0.0148266
0.0148515
0.0148729
0.0148897
0.0149013
0.0149073
0.0146804
0.014684
0.0147131
0.0147424
0.0147729
0.0148054
0.0148388
0.0148711
0.0149
0.0149242
0.0149428
0.0149553
0.0149616
0.0147078
0.0146986
0.0147308
0.0147639
0.0148001
0.014839
0.0148779
0.0149141
0.0149456
0.0149711
0.0149903
0.015003
0.0150094
0.0146755
0.0146805
0.0147129
0.0147471
0.0147849
0.0148271
0.0148714
0.0149143
0.0149529
0.0149854
0.0150113
0.0150304
0.0150429
0.0150491
0.0146835
0.014689
0.0147246
0.0147619
0.0148047
0.0148521
0.0149005
0.0149458
0.0149856
0.0150183
0.0150439
0.0150626
0.0150747
0.0150806
0.014659
0.0146962
0.0147335
0.0147746
0.014822
0.0148736
0.0149247
0.0149715
0.0150115
0.015044
0.015069
0.0150871
0.0150988
0.0151045
0.0146693
0.0147034
0.0147412
0.0147852
0.0148361
0.0148905
0.0149433
0.0149907
0.0150307
0.0150627
0.0150872
0.0151047
0.015116
0.0151215
0.0146681
0.014671
0.0147068
0.0147462
0.0147926
0.014846
0.0149021
0.0149559
0.0150035
0.0150432
0.0150749
0.0150989
0.0151161
0.0151271
0.0151325
0.0146715
0.0146737
0.0147096
0.0147493
0.0147966
0.0148511
0.0149081
0.0149622
0.0150099
0.0150495
0.0150809
0.0151047
0.0151216
0.0151325
0.0151378
0.0144151
0.0144184
0.0144251
0.0144322
0.0144066
0.0144144
0.0144142
0.014417
0.0144313
0.0144563
0.0144274
0.0144334
0.0144379
0.0144426
0.0144442
0.0144467
0.0144399
0.0144333
0.0144443
0.0144547
0.0144627
0.0144681
0.0144727
0.0144757
0.014478
0.014426
0.0144412
0.0144574
0.0144703
0.0144816
0.0144917
0.0145002
0.0145074
0.0145126
0.0145157
0.0144262
0.0144437
0.0144636
0.0144802
0.0144955
0.0145107
0.0145252
0.0145382
0.0145491
0.0145569
0.014561
0.0144406
0.0144416
0.0144638
0.0144839
0.0145032
0.0145234
0.0145442
0.0145641
0.0145817
0.014596
0.014606
0.0146111
0.0144324
0.0144343
0.0144582
0.0144807
0.0145034
0.0145281
0.0145545
0.0145811
0.0146059
0.0146271
0.0146438
0.0146553
0.0146611
0.0144577
0.0144456
0.0144713
0.0144962
0.0145238
0.0145547
0.0145871
0.0146186
0.0146469
0.0146705
0.0146887
0.0147009
0.014707
0.014427
0.0144292
0.0144563
0.0144828
0.0145115
0.0145448
0.0145815
0.0146187
0.0146537
0.0146842
0.0147091
0.0147278
0.0147403
0.0147465
0.0144343
0.0144355
0.0144644
0.0144931
0.0145262
0.0145648
0.0146063
0.0146472
0.0146843
0.014716
0.0147413
0.0147601
0.0147725
0.0147787
0.0144092
0.0144403
0.01447
0.0145017
0.0145394
0.0145826
0.0146277
0.0146709
0.0147093
0.0147414
0.0147668
0.0147854
0.0147976
0.0148036
0.0144171
0.014445
0.0144747
0.014509
0.0145503
0.0145969
0.0146445
0.0146891
0.0147281
0.0147603
0.0147855
0.0148039
0.0148159
0.0148218
0.0144176
0.0144168
0.0144465
0.0144776
0.0145141
0.014558
0.0146069
0.014656
0.0147013
0.0147406
0.0147727
0.0147977
0.0148159
0.0148277
0.0148335
0.0144208
0.0144193
0.0144487
0.0144797
0.0145171
0.0145622
0.014612
0.0146618
0.0147075
0.0147468
0.0147789
0.0148038
0.0148219
0.0148336
0.0148393
0.0141694
0.014173
0.0141831
0.0141901
0.0141667
0.0141713
0.0141685
0.0141716
0.0141904
0.0142148
0.0141862
0.0141896
0.014191
0.0141925
0.0141921
0.0141942
0.0142002
0.0141947
0.0142019
0.0142078
0.0142116
0.0142131
0.0142141
0.0142148
0.0142162
0.0141914
0.0142014
0.0142128
0.0142202
0.014226
0.014231
0.0142351
0.0142388
0.0142416
0.0142436
0.0141915
0.0142022
0.0142173
0.0142276
0.0142363
0.0142452
0.0142544
0.014263
0.0142706
0.0142762
0.0142794
0.0142011
0.014202
0.0142175
0.0142305
0.0142421
0.014255
0.0142693
0.0142841
0.0142978
0.0143093
0.0143176
0.014322
0.0141918
0.014196
0.0142136
0.0142281
0.0142423
0.0142586
0.0142777
0.0142984
0.0143187
0.0143368
0.0143515
0.0143617
0.014367
0.0142167
0.0142035
0.0142214
0.0142371
0.0142554
0.0142779
0.0143035
0.0143299
0.0143547
0.0143761
0.0143928
0.0144043
0.0144101
0.0141856
0.0141886
0.0142097
0.0142274
0.0142462
0.01427
0.0142988
0.0143301
0.014361
0.0143889
0.0144123
0.0144303
0.0144424
0.0144484
0.014193
0.0141923
0.0142138
0.0142327
0.0142555
0.0142849
0.0143192
0.014355
0.014389
0.014419
0.0144435
0.014462
0.0144744
0.0144805
0.0141704
0.0141941
0.0142155
0.0142369
0.0142643
0.0142987
0.0143375
0.0143765
0.0144125
0.0144436
0.0144687
0.0144874
0.0144998
0.0145059
0.0141752
0.0141957
0.0142166
0.0142406
0.0142719
0.0143103
0.0143522
0.0143933
0.0144306
0.0144622
0.0144875
0.0145062
0.0145185
0.0145246
0.0141729
0.014172
0.014195
0.0142171
0.0142434
0.0142775
0.0143186
0.0143624
0.0144048
0.0144427
0.0144746
0.0144999
0.0145186
0.0145309
0.0145369
0.0141762
0.0141746
0.0141968
0.0142183
0.0142452
0.0142807
0.0143229
0.0143677
0.0144106
0.0144488
0.0144808
0.0145061
0.0145247
0.014537
0.014543
0.013925
0.0139297
0.0139449
0.0139537
0.0139388
0.0139371
0.0139301
0.0139345
0.0139534
0.0139809
0.0139554
0.0139547
0.0139514
0.0139484
0.0139453
0.0139474
0.0139673
0.0139681
0.0139688
0.0139682
0.0139666
0.013963
0.0139598
0.0139578
0.0139585
0.0139796
0.0139714
0.0139752
0.0139757
0.013975
0.0139742
0.0139736
0.0139735
0.013974
0.0139751
0.0139794
0.0139675
0.0139769
0.0139796
0.0139808
0.0139831
0.0139868
0.0139911
0.0139956
0.0139993
0.0140016
0.0139682
0.0139719
0.0139771
0.0139816
0.0139844
0.0139896
0.0139978
0.0140077
0.0140178
0.0140268
0.0140335
0.0140372
0.0139553
0.0139696
0.0139762
0.0139802
0.0139847
0.0139922
0.0140042
0.0140193
0.0140356
0.0140508
0.0140636
0.0140727
0.0140775
0.0139833
0.0139708
0.0139771
0.0139817
0.0139902
0.0140044
0.0140236
0.0140453
0.0140669
0.0140861
0.0141016
0.0141123
0.0141178
0.0139481
0.0139585
0.0139706
0.0139766
0.0139843
0.0139985
0.0140197
0.0140455
0.0140726
0.0140981
0.01412
0.0141372
0.0141489
0.0141548
0.0139574
0.0139582
0.0139692
0.0139761
0.0139881
0.0140085
0.0140361
0.0140672
0.0140982
0.0141264
0.01415
0.0141681
0.0141803
0.0141864
0.013944
0.0139555
0.013966
0.0139756
0.0139925
0.0140187
0.0140515
0.0140865
0.0141203
0.0141501
0.0141747
0.0141933
0.0142057
0.0142119
0.0139428
0.0139527
0.0139629
0.0139756
0.013997
0.0140278
0.0140643
0.014102
0.0141375
0.0141683
0.0141934
0.0142122
0.0142247
0.0142309
0.0139302
0.0139349
0.0139491
0.0139606
0.013976
0.0140007
0.0140345
0.0140734
0.0141128
0.0141492
0.0141805
0.0142058
0.0142248
0.0142373
0.0142435
0.0139339
0.0139384
0.0139506
0.0139609
0.0139769
0.014003
0.0140382
0.0140782
0.0141183
0.0141551
0.0141867
0.0142121
0.014231
0.0142435
0.0142497
0.0136723
0.0136799
0.0137029
0.0137203
0.0137285
0.0137102
0.013696
0.0137038
0.013713
0.0137554
0.0137351
0.0137273
0.0137162
0.0137059
0.013699
0.0137017
0.0137401
0.0137535
0.0137425
0.0137309
0.0137214
0.0137114
0.0137035
0.0136987
0.013699
0.0138166
0.0137544
0.013738
0.01373
0.0137217
0.0137147
0.0137092
0.0137059
0.0137044
0.0137049
0.0138146
0.0137448
0.0137378
0.0137289
0.0137221
0.0137181
0.0137168
0.0137177
0.0137198
0.0137221
0.0137239
0.013741
0.0137546
0.0137379
0.0137303
0.0137234
0.0137215
0.0137244
0.0137305
0.013738
0.0137453
0.013751