/*--------------------------------*- C++ -*----------------------------------*\
| =========                 |                                                 |
| \\      /  F ield         | OpenFOAM: The Open Source CFD Toolbox           |
|  \\    /   O peration     | Version:  2.1.1                                 |
|   \\  /    A nd           | Web:      www.OpenFOAM.org                      |
|    \\/     M anipulation  |                                                 |
\*---------------------------------------------------------------------------*/
FoamFile
{
    version     2.0;
    format      ascii;
    class       volScalarField;
    location    "0.0015";
    object      p;
}
// * * * * * * * * * * * * * * * * * * * * * * * * * * * * * * * * * * * * * //

dimensions      [0 2 -2 0 0 0 0];

internalField   nonuniform List<scalar> 
10191
(
0.0240912
0.0229072
0.0235382
0.0231626
0.0202905
0.0201009
0.0202158
0.0201859
0.0240202
0.0223646
0.0202056
0.0200695
0.0199522
0.0199951
0.0199573
0.0199542
0.0241742
0.0202192
0.0201191
0.0200325
0.0200429
0.0201085
0.0200779
0.020103
0.0201009
0.0203059
0.0200706
0.0200267
0.019995
0.0200546
0.0200194
0.0199948
0.0199868
0.0199713
0.0199684
0.0203096
0.0199147
0.0200881
0.0200521
0.0200685
0.0200375
0.0200311
0.020037
0.020024
0.0200296
0.0200256
0.0241783
0.0200713
0.0200883
0.0200479
0.0200377
0.0200045
0.020011
0.019983
0.0199714
0.0199546
0.0199462
0.0199407
0.0240214
0.0202197
0.0200272
0.0200524
0.020038
0.0200302
0.0200148
0.0200008
0.0199829
0.0199755
0.0199607
0.0199576
0.0199525
0.0223652
0.0201195
0.0199954
0.0200689
0.0200049
0.020015
0.0199725
0.0199685
0.0199372
0.0199263
0.0199062
0.0198986
0.0198917
0.0235387
0.0202061
0.020033
0.0200551
0.020038
0.0200116
0.0200013
0.0199688
0.0199558
0.0199276
0.0199163
0.0198971
0.0198905
0.0198838
0.0231631
0.02007
0.0200433
0.0200199
0.0200317
0.0199836
0.0199835
0.0199377
0.0199277
0.0198921
0.0198795
0.0198563
0.0198482
0.0198402
0.0202908
0.0199525
0.0201089
0.0199953
0.0200375
0.0199719
0.019976
0.0199266
0.0199164
0.0198795
0.0198668
0.019843
0.0198349
0.0198267
0.0201011
0.0199954
0.0200782
0.019987
0.0200243
0.0199549
0.0199609
0.0199064
0.0198971
0.0198564
0.019843
0.0198168
0.0198079
0.0197989
0.0240914
0.0202159
0.0199574
0.0201031
0.0199713
0.0200296
0.0199462
0.0199577
0.0198986
0.0198905
0.0198481
0.0198349
0.0198078
0.0197988
0.0197896
0.0229072
0.0201859
0.0199542
0.0201009
0.0199682
0.0200254
0.0199405
0.0199523
0.0198916
0.0198837
0.0198402
0.0198266
0.0197988
0.0197896
0.0197799
0.0230374
0.0218532
0.0224843
0.0221087
0.0192355
0.0190458
0.0191597
0.0191307
0.0229662
0.02131
0.0191508
0.0190137
0.0188943
0.0189377
0.0188937
0.0188955
0.0231206
0.0191658
0.0190629
0.018975
0.018983
0.0190511
0.0190186
0.0190498
0.0190416
0.0192546
0.0190151
0.0189698
0.0189361
0.0189947
0.0189598
0.0189314
0.0189234
0.0189074
0.0189035
0.0192512
0.0188578
0.0190334
0.0189925
0.0190094
0.0189758
0.0189672
0.0189704
0.0189552
0.01896
0.0189554
0.0231243
0.0190147
0.0190332
0.0189878
0.0189775
0.0189413
0.0189496
0.0189153
0.018897
0.0188774
0.0188668
0.0188614
0.0229675
0.0191663
0.0189701
0.0189926
0.0189775
0.018966
0.0189482
0.0189312
0.0189089
0.0188976
0.0188797
0.018875
0.0188692
0.0213108
0.0190634
0.0189365
0.0190097
0.0189414
0.0189483
0.0189007
0.0188922
0.0188563
0.0188419
0.0188187
0.0188091
0.0188013
0.022485
0.0191514
0.0189756
0.0189953
0.0189762
0.0189501
0.0189315
0.0188924
0.0188746
0.0188414
0.0188262
0.0188033
0.0187946
0.0187865
0.0221093
0.0190142
0.0189835
0.0189603
0.0189678
0.0189161
0.0189095
0.0188567
0.0188416
0.0187999
0.0187829
0.0187556
0.0187447
0.0187352
0.0192359
0.0188947
0.0190516
0.0189319
0.0189711
0.018898
0.0188982
0.0188422
0.0188263
0.0187829
0.0187653
0.0187368
0.0187259
0.0187158
0.0190462
0.018938
0.0190189
0.0189237
0.0189555
0.0188775
0.01888
0.0188189
0.0188034
0.0187556
0.0187368
0.0187056
0.0186935
0.0186825
0.0230376
0.0191599
0.0188939
0.0190498
0.0189074
0.0189598
0.0188664
0.0188748
0.018809
0.0187946
0.0187447
0.0187258
0.0186934
0.0186811
0.0186697
0.0218533
0.0191307
0.0188955
0.0190415
0.0189032
0.0189549
0.0188608
0.0188687
0.0188009
0.0187864
0.0187351
0.0187158
0.0186825
0.0186697
0.0186575
0.0219879
0.0208038
0.0214349
0.0210591
0.0181853
0.0179949
0.0181086
0.0180804
0.0219165
0.0202596
0.0180997
0.0179621
0.017839
0.0178846
0.0178395
0.0178405
0.0220711
0.0181161
0.0180104
0.0179219
0.0179279
0.0179977
0.0179615
0.0179941
0.0179848
0.0182008
0.0179625
0.017916
0.0178807
0.0179369
0.0179011
0.0178699
0.0178621
0.0178444
0.0178401
0.0182041
0.017805
0.0179814
0.0179365
0.0179528
0.0179125
0.0179024
0.0179058
0.017889
0.0178934
0.0178874
0.022075
0.017963
0.0179814
0.0179306
0.0179188
0.0178774
0.0178768
0.0178406
0.017825
0.0178049
0.017794
0.0177869
0.0219181
0.0181168
0.0179163
0.0179363
0.0179185
0.0179028
0.0178807
0.0178585
0.0178322
0.017819
0.0177989
0.0177925
0.0177851
0.0202606
0.018011
0.017881
0.0179527
0.0178769
0.0178804
0.0178274
0.0178143
0.0177732
0.0177548
0.017728
0.0177162
0.0177069
0.0214358
0.0181005
0.0179226
0.0179376
0.0179128
0.017877
0.0178586
0.0178144
0.0177915
0.0177523
0.0177325
0.0177053
0.017694
0.0176842
0.0210599
0.0179628
0.0179285
0.0179016
0.0179034
0.0178422
0.017833
0.0177734
0.0177524
0.0177037
0.0176815
0.0176492
0.0176353
0.0176239
0.0181858
0.0178395
0.0179982
0.0178706
0.0179073
0.0178289
0.0178204
0.0177552
0.0177326
0.0176816
0.0176583
0.0176241
0.01761
0.0175978
0.0179953
0.017885
0.0179618
0.0178625
0.0178896
0.0178062
0.0177995
0.0177282
0.0177054
0.0176492
0.0176242
0.017587
0.0175711
0.0175578
0.0219882
0.0181089
0.0178397
0.0179943
0.0178443
0.0178928
0.0177921
0.0177918
0.0177159
0.0176939
0.0176352
0.0176099
0.017571
0.0175548
0.0175408
0.020804
0.0180805
0.0178406
0.0179848
0.0178397
0.0178861
0.0177833
0.0177837
0.0177064
0.017684
0.0176238
0.0175977
0.0175577
0.0175408
0.0175264
0.0209439
0.0197597
0.0203904
0.0200146
0.0171401
0.0169489
0.0170635
0.0170349
0.0208717
0.0192139
0.0170533
0.0169144
0.0167878
0.0168359
0.0167881
0.0167896
0.0210265
0.0170703
0.016962
0.0168732
0.0168769
0.0169481
0.0169083
0.0169417
0.0169314
0.0171569
0.0169146
0.0168662
0.0168284
0.0168829
0.0168458
0.0168107
0.0168028
0.0167829
0.0167782
0.0171554
0.0167563
0.0169333
0.0168836
0.0168965
0.0168562
0.0168419
0.0168431
0.0168234
0.016827
0.0168198
0.0210307
0.0169146
0.0169328
0.0168761
0.0168623
0.016817
0.0168117
0.0167727
0.0167525
0.0167298
0.0167161
0.0167078
0.0208737
0.0170713
0.0168664
0.0168826
0.0168612
0.0168415
0.0168145
0.0167874
0.0167564
0.0167396
0.0167154
0.0167071
0.0166982
0.0192154
0.0169628
0.0168286
0.0168954
0.0168137
0.0168133
0.0167538
0.0167354
0.0166879
0.0166648
0.0166337
0.016619
0.0166081
0.0203916
0.0170544
0.016874
0.0168835
0.016856
0.0168108
0.0167869
0.0167352
0.0167063
0.0166598
0.0166349
0.0166025
0.0165882
0.0165764
0.0200156
0.0169154
0.0168777
0.0168464
0.0168424
0.0167731
0.0167566
0.016688
0.0166599
0.0166031
0.0165747
0.0165365
0.0165191
0.0165055
0.0171409
0.0167885
0.0169487
0.0168113
0.0168439
0.0167535
0.0167402
0.016665
0.016635
0.0165747
0.016545
0.0165042
0.0164863
0.0164715
0.0169495
0.0168364
0.0169088
0.0168032
0.0168239
0.0167302
0.0167157
0.0166338
0.0166026
0.0165365
0.0165042
0.01646
0.0164397
0.0164237
0.0209443
0.0170639
0.0167884
0.0169419
0.016783
0.0168268
0.0167156
0.0167068
0.0166188
0.016588
0.0165189
0.0164862
0.0164396
0.0164188
0.0164018
0.01976
0.0170351
0.0167898
0.0169315
0.016778
0.0168192
0.0167068
0.0166975
0.0166076
0.0165761
0.0165054
0.0164715
0.0164237
0.0164019
0.0163843
0.0199059
0.0187216
0.0193518
0.018976
0.016101
0.0159082
0.0160239
0.0159946
0.0198326
0.0181737
0.0160112
0.0158718
0.015741
0.015792
0.0157413
0.0157435
0.0199875
0.0160292
0.0159179
0.015829
0.0158302
0.0159032
0.0158592
0.0158934
0.015882
0.016114
0.0158706
0.0158209
0.0157803
0.0158325
0.0157934
0.0157539
0.0157455
0.015723
0.0157176
0.0161188
0.0157126
0.0158898
0.0158361
0.0158452
0.0158011
0.0157827
0.0157823
0.0157588
0.0157615
0.0157529
0.0199922
0.0158715
0.0158889
0.0158252
0.0158154
0.0157591
0.0157481
0.0157041
0.0156792
0.0156533
0.0156368
0.0156272
0.0198352
0.016031
0.0158213
0.0158328
0.0158013
0.0157827
0.0157495
0.0157168
0.0156797
0.0156583
0.0156296
0.0156194
0.0156086
0.0181758
0.0159194
0.0157808
0.0158434
0.0157523
0.0157474
0.0156799
0.015655
0.0156
0.0155713
0.0155352
0.0155171
0.0155043
0.0193534
0.0160129
0.0158304
0.0158334
0.0158009
0.0157468
0.0157159
0.0156548
0.0156189
0.0155637
0.0155327
0.0154942
0.0154765
0.0154625
0.0189774
0.0158731
0.0158313
0.0157943
0.0157832
0.0157043
0.0156797
0.0156
0.0155637
0.0154973
0.0154618
0.0154169
0.0153953
0.0153792
0.0161019
0.0157419
0.015904
0.0157545
0.0157829
0.0156797
0.0156586
0.0155714
0.0155328
0.0154618
0.0154243
0.0153762
0.0153535
0.0153361
0.015909
0.0157926
0.0158598
0.0157459
0.0157592
0.0156535
0.0156299
0.0155353
0.0154943
0.0154169
0.0153762
0.0153239
0.0152986
0.0152796
0.0199064
0.0160244
0.0157417
0.0158937
0.0157233
0.0157615
0.0156367
0.0156192
0.0155169
0.0154764
0.0153952
0.0153534
0.0152984
0.0152718
0.0152514
0.0187219
0.0159949
0.0157437
0.0158822
0.0157177
0.0157528
0.0156268
0.0156083
0.015504
0.0154624
0.0153791
0.015336
0.0152795
0.0152514
0.0152299
0.0188746
0.01769
0.0183199
0.0179443
0.0150693
0.0148737
0.0149904
0.0149602
0.0188
0.0171398
0.0149743
0.0148351
0.0147013
0.0147541
0.0146995
0.0147027
0.0189548
0.0149942
0.0148782
0.0147895
0.0147874
0.014861
0.0148141
0.0148498
0.0148368
0.0150851
0.0148319
0.0147795
0.0147358
0.0147855
0.0147445
0.0147008
0.0146898
0.0146637
0.0146581
0.0150773
0.0146731
0.0148505
0.0147897
0.0147953
0.0147478
0.0147249
0.0147238
0.0146949
0.0146972
0.0146866
0.0189601
0.0148326
0.0148514
0.014778
0.014755
0.0146969
0.0146849
0.0146352
0.0146049
0.0145755
0.0145558
0.0145448
0.0188037
0.0149972
0.0147818
0.0147923
0.0147619
0.0147266
0.0146838
0.0146454
0.0146006
0.0145749
0.0145407
0.0145278
0.014515
0.0171428
0.0148811
0.0147383
0.0147972
0.0146985
0.0146844
0.0146051
0.0145729
0.014509
0.014474
0.0144318
0.0144103
0.0143953
0.0183222
0.0149768
0.014792
0.0147877
0.0147493
0.0146857
0.0146458
0.0145729
0.0145275
0.0144628
0.0144242
0.0143792
0.0143575
0.0143411
0.0179462
0.014837
0.0147891
0.0147457
0.0147259
0.0146359
0.014601
0.0145092
0.0144629
0.0143855
0.0143421
0.0142899
0.0142637
0.014245
0.0150704
0.0147022
0.0148621
0.014701
0.0147242
0.0146054
0.0145753
0.0144741
0.0144243
0.0143421
0.0142955
0.0142397
0.0142119
0.0141915
0.0148745
0.0147548
0.0148148
0.0146904
0.0146953
0.0145758
0.0145409
0.0144319
0.0143793
0.0142899
0.0142397
0.0141789
0.0141479
0.0141254
0.0188752
0.014991
0.0147
0.0148503
0.0146643
0.0146974
0.0145558
0.0145277
0.0144102
0.0143574
0.0142636
0.0142117
0.0141477
0.0141144
0.0140901
0.0176904
0.0149606
0.0147029
0.0148372
0.0146586
0.0146868
0.0145446
0.0145148
0.014395
0.014341
0.0142449
0.0141914
0.0141253
0.0140901
0.0140637
0.0178512
0.0166664
0.0172954
0.0169201
0.0140445
0.0138451
0.0139638
0.0139326
0.0177745
0.0161127
0.0139434
0.0138038
0.0136619
0.0137217
0.0136632
0.0136678
0.0179282
0.0139658
0.0138424
0.0137534
0.0137488
0.0138276
0.013774
0.013812
0.0137968
0.0140483
0.0137965
0.0137475
0.0136901
0.0137426
0.0136963
0.0136459
0.0136378
0.0136114
0.0136056
0.0140633
0.0136389
0.0138217
0.0137529
0.0137489
0.0136966
0.0136675
0.0136649
0.0136309
0.0136339
0.0136204
0.0179359
0.0138014
0.0138157
0.0137354
0.013711
0.0136401
0.0136235
0.0135658
0.0135301
0.0134964
0.0134733
0.0134608
0.0177796
0.0139713
0.0137525
0.013756
0.013713
0.0136716
0.0136199
0.0135723
0.013519
0.0134876
0.0134471
0.013431
0.013416
0.0161169
0.0138473
0.013695
0.0137528
0.0136424
0.0136209
0.0135289
0.013488
0.0134138
0.0133717
0.0133231
0.0132976
0.0132802
0.0172985
0.013947
0.0137577
0.013747
0.0137
0.0136256
0.0135732
0.0134882
0.0134314
0.0133561
0.0133096
0.0132574
0.0132314
0.0132125
0.0169226
0.0138065
0.0137517
0.0136984
0.0136696
0.0135672
0.0135198
0.0134142
0.0133563
0.0132674
0.0132152
0.0131554
0.0131246
0.0131031
0.0140461
0.0136633
0.0138286
0.0136468
0.0136653
0.0135307
0.0134881
0.0133719
0.0133097
0.0132152
0.013159
0.0130951
0.0130618
0.0130383
0.0138462
0.0137225
0.0137744
0.0136377
0.0136308
0.0134965
0.0134473
0.0133233
0.0132576
0.0131554
0.0130951
0.0130255
0.0129883
0.0129623
0.0178519
0.0139645
0.0136636
0.0138123
0.0136114
0.0136338
0.0134732
0.013431
0.0132976
0.0132313
0.0131244
0.0130616
0.012988
0.0129479
0.0129194
0.0166668
0.013933
0.0136681
0.0137971
0.0136059
0.0136205
0.0134607
0.0134159
0.0132801
0.0132124
0.013103
0.0130382
0.0129622
0.0129193
0.0128888
0.0168369
0.015652
0.0162797
0.0159041
0.0130271
0.0128237
0.0129449
0.0129122
0.016757
0.0150936
0.0129209
0.0127794
0.0126328
0.0126965
0.0126331
0.0126395
0.0169091
0.0129419
0.0128142
0.0127268
0.0127158
0.012799
0.0127388
0.0127773
0.0127596
0.01304
0.01276
0.0127083
0.0126597
0.0127045
0.0126478
0.0126074
0.0125918
0.0125583
0.0125514
0.0130356
0.0126077
0.0127716
0.0127149
0.0127069
0.0126488
0.0126109
0.0126073
0.0125667
0.0125666
0.0125509
0.0169179
0.0127731
0.0128102
0.0126947
0.0126653
0.012585
0.0125611
0.0124943
0.0124541
0.0124143
0.0123882
0.0123736
0.0167636
0.0129515
0.0127252
0.0127215
0.0126685
0.0126175
0.0125546
0.0124973
0.0124341
0.0123957
0.0123484
0.0123291
0.0123115
0.0150991
0.0128221
0.0126691
0.0127124
0.0125882
0.0125557
0.0124499
0.0123989
0.0123136
0.0122639
0.0122084
0.0121788
0.0121591
0.0162834
0.0129257
0.0127343
0.0127143
0.0126549
0.0125639
0.0124984
0.0123992
0.0123303
0.0122435
0.0121884
0.0121286
0.0120983
0.0120766
0.0159072
0.0127829
0.0127224
0.012664
0.0126164
0.0124962
0.0124351
0.0123141
0.0122437
0.0121427
0.0120813
0.0120138
0.0119782
0.011954
0.013029
0.0126345
0.012798
0.0125957
0.0126056
0.0124549
0.0123964
0.0122643
0.0121886
0.0120813
0.0120152
0.0119431
0.0119045
0.0118785
0.012825
0.0126972
0.012738
0.0125878
0.0125652
0.0124144
0.0123489
0.0122087
0.0121288
0.0120138
0.011943
0.0118647
0.0118218
0.011793
0.0168378
0.0129456
0.0126336
0.0127771
0.0125575
0.012566
0.012388
0.0123291
0.0121788
0.0120983
0.011978
0.0119043
0.0118213
0.0117751
0.0117446
0.0156526
0.0129127
0.0126397
0.0127597
0.0125514
0.0125508
0.0123735
0.0123115
0.0121591
0.0120767
0.011954
0.0118784
0.0117929
0.0117448
0.0117138
0.0158333
0.0146483
0.0152739
0.0148976
0.0120177
0.0118097
0.0119338
0.0118992
0.0157491
0.0140835
0.0119063
0.0117611
0.0116115
0.0116777
0.0116107
0.0116184
0.0158984
0.011928
0.0117919
0.0117073
0.0116906
0.0117724
0.0117053
0.0117454
0.011725
0.0120371
0.0117372
0.0116885
0.0116318
0.0116736
0.0116119
0.0115582
0.0115417
0.011507
0.011499
0.0120192
0.0115816
0.0117654
0.0116845
0.0116651
0.0116029
0.0115561
0.0115457
0.0114989
0.0114965
0.0114787
0.0159076
0.011743
0.0117726
0.0116555
0.0116223
0.0115303
0.0114976
0.0114202
0.0113745
0.0113276
0.0112986
0.0112817
0.0157566
0.0119365
0.0116983
0.0116919
0.0116253
0.0115631
0.0114859
0.0114188
0.0113443
0.0112985
0.0112442
0.0112211
0.011201
0.0140899
0.0117995
0.0116408
0.011672
0.0115342
0.0114872
0.0113669
0.0113045
0.0112074
0.0111501
0.0110871
0.0110537
0.0110315
0.0152782
0.0119118
0.0117149
0.0116814
0.0116088
0.0115009
0.0114204
0.0113048
0.0112234
0.0111243
0.0110604
0.0109933
0.0109586
0.0109344
0.0149012
0.011765
0.0116957
0.0116178
0.0115602
0.0114226
0.0113457
0.011208
0.0111246
0.0110111
0.010941
0.0108658
0.0108259
0.0107992
0.0120199
0.0116136
0.0117739
0.0115584
0.0115465
0.0113755
0.0112994
0.0111505
0.0110607
0.0109409
0.0108653
0.0107856
0.0107425
0.010714
0.0118113
0.0116791
0.0117058
0.0115412
0.0114989
0.011328
0.0112448
0.0110875
0.0109936
0.0108659
0.0107853
0.0106988
0.0106528
0.010623
0.0158343
0.0119347
0.0116114
0.0117457
0.0115068
0.0114963
0.0112986
0.0112212
0.0110538
0.0109586
0.0108257
0.0107423
0.0106523
0.0106057
0.0105753
0.0146489
0.0118997
0.0116187
0.0117252
0.011499
0.0114787
0.0112817
0.0112011
0.0110316
0.0109345
0.0107992
0.0107139
0.0106229
0.0105755
0.010545
0.0148419
0.0136567
0.0142791
0.0139015
0.0110173
0.0108028
0.0109306
0.0108934
0.0147512
0.0130829
0.0108997
0.010748
0.0105975
0.0106661
0.0105968
0.0106059
0.0148957
0.0109193
0.0107737
0.0106915
0.0106695
0.0107499
0.0106734
0.0107147
0.0106905
0.0109861
0.0107106
0.0106726
0.0106042
0.0106449
0.0105697
0.0105144
0.0104914
0.0104555
0.0104458
0.0110601
0.0105691
0.0107469
0.010657
0.0106232
0.0105552
0.0104983
0.0104816
0.0104272
0.0104222
0.0104017
0.0149067
0.0107248
0.0107531
0.0106172
0.0105805
0.0104709
0.010431
0.0103407
0.0102895
0.0102349
0.0102032
0.0101835
0.014759
0.0109284
0.0106816
0.0106651
0.0105835
0.0105063
0.0104128
0.0103351
0.010248
0.0101949
0.010133
0.0101061
0.0100833
0.0130898
0.0107829
0.010615
0.0106316
0.0104753
0.0104143
0.0102774
0.0102034
0.0100939
0.0100293
0.00995879
0.00992224
0.00989739
0.0142838
0.0109055
0.010699
0.0106531
0.0105615
0.0104348
0.0103368
0.0102038
0.0101095
0.00999799
0.00992609
0.00985194
0.00981368
0.0097873
0.0139055
0.0107521
0.0106742
0.0105743
0.0105022
0.0103434
0.0102496
0.0100946
0.00999838
0.00987307
0.00979516
0.00971359
0.00967051
0.00964157
0.0110197
0.0105999
0.0107524
0.0105164
0.0104834
0.0102909
0.0101959
0.0100298
0.00992642
0.00979502
0.00971093
0.00962562
0.00958079
0.00955174
0.0108046
0.0106679
0.0106748
0.0104923
0.010428
0.0102356
0.0101337
0.00995928
0.00985232
0.00971365
0.0096253
0.00953751
0.00949242
0.00946354
0.014843
0.0109317
0.0105977
0.0107153
0.0104558
0.0104225
0.0102034
0.0101063
0.00992234
0.00981377
0.00967036
0.00958055
0.00949214
0.00944772
0.00941868
0.0136573
0.0108939
0.0106064
0.0106908
0.0104459
0.0104019
0.0101836
0.0100836
0.00989755
0.00978747
0.00964161
0.00955171
0.00946347
0.00941877
0.00939058
0.0138642
0.0126787
0.0132965
0.0129164
0.010026
0.00980243
0.00993552
0.00989447
0.0137641
0.0120925
0.00990049
0.0097377
0.00959091
0.00965915
0.00958994
0.0095987
0.0139075
0.00991198
0.00975792
0.0096774
0.00965077
0.00972874
0.00964244
0.00968342
0.0096559
0.0100617
0.00971917
0.00964062
0.00956913
0.00961713
0.00952254
0.00947024
0.00943707
0.00940073
0.00938826
0.0099655
0.00956193
0.00973625
0.0096274
0.00957705
0.00950313
0.00943505
0.00941175
0.00934905
0.00934153
0.00931814
0.0139085
0.0096724
0.00972784
0.00957872
0.00953384
0.00940491
0.00935815
0.00925278
0.00919709
0.0091339
0.00909989
0.0090775
0.0137713
0.00992807
0.00969016
0.00964215
0.00953649
0.0094444
0.00933255
0.00924354
0.00914329
0.00908342
0.0090137
0.00898391
0.0089585
0.0120994
0.0097711
0.0095927
0.00959007
0.00940976
0.00933395
0.00917854
0.00909392
0.00897184
0.00890112
0.00882402
0.00878494
0.00875785
0.0133014
0.00990647
0.0096858
0.0096269
0.00951043
0.0093621
0.00924524
0.00909424
0.00898787
0.00886469
0.00878687
0.00870668
0.00866642
0.00863805
0.0129205
0.00974191
0.00965551
0.00952696
0.00943897
0.00925559
0.00914498
0.00897262
0.00886516
0.00872979
0.00864642
0.00856094
0.00851782
0.00848936
0.0100285
0.0095937
0.00973151
0.00947268
0.00941381
0.00919865
0.00908452
0.00890159
0.0087872
0.00864596
0.00855944
0.00847503
0.00843329
0.0084058
0.00980441
0.00966112
0.00964417
0.00943851
0.00935031
0.00913494
0.00901458
0.00882458
0.00870715
0.00856094
0.00847509
0.00839123
0.00835019
0.00832368
0.0138653
0.00993651
0.00959092
0.00968423
0.00940131
0.00934202
0.00910026
0.00898423
0.00878508
0.00866654
0.00851767
0.00843316
0.00834998
0.00831049
0.00828395
0.0126793
0.00989495
0.00959914
0.00965629
0.00938856
0.00931845
0.00907779
0.00895882
0.00875808
0.0086383
0.00848943
0.00840588
0.00832366
0.00828405
0.00825879
0.0129012
0.0117157
0.0123264
0.0119422
0.00904123
0.00880826
0.00894687
0.00890102
0.0127866
0.0111113
0.00890628
0.00872582
0.00859259
0.00865309
0.0085859
0.00859329
0.0129208
0.00891328
0.00874575
0.00866481
0.00863096
0.00870339
0.008609
0.00864903
0.00861796
0.00896215
0.00866883
0.00864499
0.00854285
0.00858521
0.00846897
0.00841847
0.00837393
0.00833832
0.0083224
0.00907272
0.00856148
0.0087136
0.0086006
0.00852842
0.00844411
0.00836192
0.00833202
0.00826116
0.00825126
0.00822482
0.0129255
0.00867808
0.00871815
0.00852868
0.00847838
0.00832839
0.00827466
0.00815311
0.00809406
0.00802196
0.00798685
0.00796161
0.0127935
0.00892165
0.00865583
0.00860777
0.00848075
0.00837295
0.00824077
0.0081413
0.0080281
0.00796257
0.00788633
0.00785475
0.00782721
0.0111177
0.00875427
0.0085533
0.00853589
0.0083321
0.00824202
0.00806759
0.00797428
0.00784079
0.00776666
0.00768446
0.00764473
0.00761592
0.0123311
0.00891155
0.00867133
0.00859225
0.00844958
0.00827781
0.00814274
0.00797446
0.0078583
0.00772622
0.00764507
0.00756261
0.00752378
0.00749615
0.0119462
0.00872974
0.00863531
0.00847332
0.00836554
0.00815568
0.0080297
0.00784156
0.00772671
0.00758484
0.0075039
0.00742264
0.00738432
0.00735801
0.0090438
0.00859544
0.00870616
0.00842089
0.0083341
0.00809562
0.00796366
0.00776714
0.00764541
0.00750368
0.00742453
0.00734667
0.00731072
0.00728588
0.00881028
0.00865521
0.00861089
0.00837556
0.0082626
0.00802314
0.00788729
0.00768507
0.00756308
0.0074227
0.00734677
0.00727128
0.00723692
0.00721338
0.0129023
0.00894789
0.00858694
0.00864995
0.00833904
0.00825189
0.00798731
0.00785514
0.0076449
0.00752391
0.00738421
0.00731065
0.00723676
0.00720388
0.00718054
0.0117163
0.00890146
0.00859368
0.00861836
0.00832279
0.00822524
0.007962
0.00782762
0.00761622
0.00749644
0.00735812
0.00728602
0.00721341
0.00718065
0.00715887
0.0119544
0.0107696
0.0113686
0.0109777
0.00805788
0.00781771
0.00796067
0.00790977
0.0118172
0.0101364
0.00791012
0.00770019
0.00759972
0.00764024
0.00757887
0.00758264
0.0119392
0.00790387
0.00772502
0.00764532
0.00760169
0.00766711
0.00756627
0.00760506
0.00757032
0.00808105
0.00764376
0.00762495
0.00749986
0.00753579
0.00739981
0.00735121
0.00729446
0.00726102
0.00724114
0.0079344
0.00755274
0.00769239
0.00755714
0.00746247
0.00736911
0.0072717
0.00723659
0.00715792
0.00714666
0.00711737
0.0119458
0.00763575
0.00768444
0.00746079
0.0074079
0.00723304
0.00717387
0.00703624
0.00697586
0.00689562
0.00686134
0.00683331
0.0118236
0.00790961
0.00763068
0.00755864
0.00740838
0.00728435
0.00713198
0.00702433
0.00689963
0.00683143
0.00675086
0.00671923
0.00669001
0.0101419
0.00773057
0.00750571
0.00746657
0.0072353
0.00713287
0.00694063
0.00684268
0.00670088
0.00662728
0.00654375
0.00650834
0.00648092
0.0113728
0.00791433
0.00764991
0.00754044
0.00737283
0.00717606
0.00702539
0.00684268
0.00672148
0.00658711
0.00651206
0.00643638
0.00640404
0.00637943
0.0109813
0.0077034
0.00760533
0.00740343
0.00727472
0.00703844
0.00690107
0.00670164
0.00658765
0.00645213
0.0063838
0.00631162
0.00628139
0.00625862
0.00806039
0.00760276
0.00766976
0.00735349
0.00723852
0.0069773
0.00683246
0.00662774
0.00651237
0.00638369
0.00631858
0.00625178
0.00622406
0.00620306
0.00781973
0.0076424
0.00756819
0.00729615
0.00715944
0.00689685
0.00675187
0.00654439
0.00643688
0.00631176
0.00625194
0.00618827
0.00616219
0.00614271
0.0119556
0.00796169
0.00757991
0.00760601
0.00726181
0.00714735
0.00686186
0.00671965
0.00650853
0.00640418
0.00628133
0.00622403
0.00616206
0.00613762
0.00611813
0.0107702
0.00791024
0.00758309
0.00757079
0.00724161
0.00711788
0.00683378
0.00669048
0.00648127
0.00637976
0.00625878
0.00620323
0.00614277
0.00611825
0.00610067
0.0110278
0.00984309
0.010423
0.0100229
0.00706945
0.00682475
0.00697472
0.00691607
0.0108531
0.00916185
0.00690641
0.00666726
0.00658871
0.00661188
0.00656456
0.00656437
0.0109494
0.00687208
0.00668551
0.00660796
0.00656097
0.00661846
0.00651219
0.00655273
0.0065139
0.00687448
0.00656784
0.00659141
0.00643834
0.00647091
0.00631059
0.00626867
0.00619812
0.00616972
0.00614579
0.00711424
0.0065437
0.00663506
0.00649257
0.00637673
0.00627745
0.00616527
0.00612891
0.00604379
0.00603432
0.00600288
0.0109695
0.00660317
0.00665182
0.00637139
0.00631934
0.00611909
0.00605987
0.00590723
0.00585049
0.0057643
0.00573349
0.00570362
0.0108588
0.00687516
0.00658829
0.00649606
0.00632049
0.00618143
0.00601077
0.00590055
0.00576742
0.00570189
0.00562167
0.00559658
0.00556988
0.00916647
0.00668855
0.00643932
0.0063787
0.00612081
0.00601152
0.00580601
0.00571104
0.0055699
0.00550955
0.00543472
0.00540874
0.00538502
0.0104267
0.00690996
0.00661129
0.00647378
0.00627981
0.00606133
0.00590136
0.00571108
0.00559886
0.00547632
0.00541819
0.00535376
0.00533123
0.00531087
0.0100263
0.00667051
0.00656419
0.00631364
0.00616777
0.0059091
0.00576872
0.00557064
0.0054768
0.00535963
0.00531077
0.00525188
0.00523183
0.00521349
0.00707173
0.0065912
0.00662081
0.00627074
0.00613066
0.00585178
0.00570284
0.00551001
0.00541849
0.0053107
0.00526536
0.00521207
0.005194
0.00517746
0.00682671
0.00661389
0.00651406
0.00619979
0.00604532
0.00576554
0.00562268
0.00543539
0.00535426
0.00525207
0.00521226
0.00516242
0.00514593
0.00513086
0.011029
0.00697575
0.00656559
0.00655368
0.00617054
0.00603504
0.00573403
0.00559701
0.00540895
0.00533137
0.00523178
0.00519399
0.00514581
0.00513067
0.00511578
0.00984369
0.0069166
0.00656489
0.00651446
0.00614634
0.00600347
0.00570415
0.0055704
0.0053854
0.00531123
0.00521369
0.00517766
0.00513094
0.0051159
0.00510274
0.0101161
0.00892903
0.00947569
0.00906336
0.00604281
0.00580075
0.00596363
0.00588945
0.00987906
0.00815998
0.00584702
0.00557165
0.0055415
0.00554595
0.00551336
0.00550764
0.00994322
0.00576747
0.00557508
0.00552266
0.00547926
0.00554353
0.00543112
0.00547854
0.00543343
0.00600808
0.00546732
0.00549886
0.00532375
0.00536898
0.00518016
0.0051555
0.00507042
0.00505123
0.00502318
0.00587812
0.00548191
0.00555896
0.00539176
0.00524791
0.00515366
0.00503025
0.00500187
0.00491247
0.00490889
0.00487535
0.00994699
0.00545353
0.00555243
0.00522892
0.00519575
0.00497129
0.00492365
0.00475726
0.00471129
0.00462407
0.00460538
0.00457881
0.00988316
0.00576963
0.00550183
0.00539126
0.0051946
0.00505222
0.00486821
0.00476545
0.0046346
0.00458771
0.00451762
0.00450524
0.00448308
0.00816389
0.00557862
0.00532721
0.00524988
0.00497235
0.00486875
0.00466071
0.00458801
0.00446248
0.00442467
0.00436233
0.00434902
0.00433025
0.00947918
0.00585028
0.00552591
0.00537187
0.00515586
0.00492469
0.00476613
0.00458807
0.00450363
0.00440166
0.00436595
0.00431551
0.00430448
0.00428896
0.00906655
0.00557482
0.00548239
0.00518303
0.00503263
0.004759
0.00463584
0.00446317
0.00440213
0.00430997
0.00428355
0.00423913
0.00422983
0.00421627
0.00604495
0.00554383
0.0055457
0.00515743
0.00500356
0.00471249
0.00458864
0.00442512
0.00436626
0.0042835
0.00425916
0.00422005
0.00421191
0.00419995
0.00580271
0.00554791
0.00543297
0.00507209
0.00491404
0.00462533
0.00451865
0.00436301
0.00431603
0.00423935
0.00422026
0.00418455
0.0041779
0.0041674
0.0101173
0.00596469
0.00551442
0.00547951
0.00505207
0.00490964
0.00460592
0.00450568
0.00434923
0.00430463
0.0042298
0.00421191
0.00417779
0.00417196
0.00416156
0.00892972
0.00589013
0.00550827
0.0054341
0.00502382
0.00487602
0.00457939
0.00448363
0.00433066
0.00428933
0.00421649
0.00420017
0.00416749
0.00416168
0.00415296
0.00921568
0.00802834
0.00855381
0.00806501
0.00489311
0.00460918
0.00480582
0.00470403
0.00891761
0.00706851
0.00462722
0.00425539
0.004265
0.00425869
0.00425524
0.00424985
0.00884323
0.00448643
0.00423774
0.00420207
0.00416399
0.0042542
0.00413754
0.00420788
0.00416003
0.00487827
0.00413346
0.00419963
0.00398669
0.00405506
0.00382478
0.00382864
0.00373233
0.00373064
0.00370242
0.00477274
0.00422696
0.00428905
0.00409418
0.00390994
0.00382466
0.00368656
0.00367408
0.00358983
0.00360849
0.00358311
0.00882952
0.0041181
0.00428212
0.00387731
0.00387856
0.0036273
0.00360245
0.00343517
0.00342223
0.00334762
0.00334942
0.00332973
0.00892102
0.00448846
0.00420172
0.00409303
0.00387659
0.00373855
0.00355267
0.00348078
0.00337015
0.00335272
0.00329986
0.00330485
0.00328994
0.00707235
0.00424187
0.00399066
0.00391205
0.00362828
0.00355285
0.00337267
0.00334308
0.00324457
0.00323779
0.00319291
0.00319501
0.00318227
0.00855725
0.00463045
0.00420549
0.00405811
0.00382687
0.00360322
0.00348132
0.00334307
0.00330083
0.00322932
0.00322063
0.00318741
0.00318918
0.00317939
0.00806814
0.00425859
0.0041672
0.00382762
0.00368894
0.00343683
0.00337131
0.0032452
0.00322978
0.00316893
0.0031686
0.00314089
0.00314346
0.00313515
0.00489517
0.00426725
0.00425628
0.00383048
0.00367581
0.00342336
0.0033536
0.0032382
0.00322093
0.00316856
0.00316775
0.00314477
0.00314717
0.00314041
0.00461119
0.00426066
0.0041394
0.00373399
0.00359141
0.00334886
0.00330087
0.00319357
0.00318792
0.00314111
0.00314497
0.00312511
0.00312854
0.00312298
0.00921694
0.00480694
0.00425634
0.00420886
0.00373149
0.00360925
0.00334995
0.00330527
0.00319521
0.00318933
0.00314345
0.00314718
0.00312844
0.00313222
0.00312659
0.00802918
0.00470491
0.00425064
0.0041608
0.00370313
0.00358381
0.00333032
0.0032905
0.00318268
0.00317976
0.00313538
0.00314063
0.00312307
0.00312671
0.00312249
0.00876602
0.00746382
0.0079877
0.00736939
0.00454845
0.00438595
0.00459967
0.00443328
0.00828829
0.00615302
0.00417097
0.00376133
0.00400688
0.00388289
0.00386289
0.0038186
0.00788137
0.00390464
0.00364766
0.0038504
0.00379998
0.00400294
0.00387177
0.00396972
0.00390583
0.00424629
0.00340337
0.00379183
0.00353383
0.00373791
0.00344513
0.00351425
0.00339296
0.00342294
0.0033997
0.00433892
0.00379001
0.00386809
0.00375357
0.00353053
0.00351608
0.0033858
0.00344228
0.00338109
0.00343797
0.0034235
0.00788847
0.00342061
0.00387331
0.00341237
0.00354085
0.00329494
0.00336392
0.00322488
0.00327339
0.0032209
0.00325419
0.00324479
0.00829371
0.00390974
0.00379623
0.003755
0.00353702
0.00347098
0.00332879
0.00333446
0.0032658
0.00330179
0.00327692
0.00330802
0.00330289
0.00615774
0.00365315
0.00353872
0.00353371
0.00329609
0.00333022
0.00321946
0.00326986
0.00321868
0.00325841
0.00323918
0.00326239
0.00325814
0.00799127
0.00417438
0.00385414
0.00374129
0.00351854
0.00336469
0.00333531
0.00326978
0.0032968
0.00327033
0.00330082
0.00329163
0.00331102
0.00330881
0.00737253
0.00376473
0.00380341
0.00344859
0.00338849
0.00322671
0.00326721
0.00321934
0.00327082
0.00325482
0.00329015
0.00328506