/*--------------------------------*- C++ -*----------------------------------*\
| =========                 |                                                 |
| \\      /  F ield         | OpenFOAM: The Open Source CFD Toolbox           |
|  \\    /   O peration     | Version:  2.1.1                                 |
|   \\  /    A nd           | Web:      www.OpenFOAM.org                      |
|    \\/     M anipulation  |                                                 |
\*---------------------------------------------------------------------------*/
FoamFile
{
    version     2.0;
    format      ascii;
    class       volScalarField;
    location    "0.135";
    object      p;
}
// * * * * * * * * * * * * * * * * * * * * * * * * * * * * * * * * * * * * * //

dimensions      [0 2 -2 0 0 0 0];

internalField   nonuniform List<scalar> 
163952
(
0.0416818
0.0411055
0.0363695
0.0311748
0.029978
0.0273666
0.0267765
0.0264528
0.0366897
0.0323476
0.027306
0.0248163
0.0235727
0.0227937
0.0224794
0.0223382
0.0337209
0.027984
0.0244803
0.0228406
0.021928
0.0213901
0.0210514
0.0208711
0.0207856
0.0335907
0.0260918
0.0232575
0.0219109
0.0211555
0.0206768
0.0203571
0.0201455
0.0200193
0.0199558
0.0335919
0.0255498
0.0227332
0.021455
0.0207401
0.0202764
0.0199524
0.0197215
0.019562
0.0194614
0.019409
0.0337212
0.0260919
0.0227332
0.0213115
0.0205489
0.0200602
0.0197147
0.0194607
0.0192741
0.019142
0.0190565
0.019011
0.0366895
0.027984
0.0232575
0.021455
0.020549
0.0199906
0.0196023
0.0193156
0.0190999
0.0189393
0.0188244
0.0187489
0.0187084
0.0323478
0.0244804
0.021911
0.0207402
0.0200603
0.0196023
0.0192687
0.019017
0.0188257
0.0186823
0.0185792
0.0185109
0.0184741
0.0363698
0.0273063
0.0228408
0.0211557
0.0202765
0.0197148
0.0193157
0.019017
0.0187889
0.0186146
0.0184835
0.0183888
0.0183259
0.0182919
0.0311751
0.0248166
0.0219282
0.020677
0.0199525
0.0194609
0.0191
0.0188257
0.0186147
0.0184526
0.0183304
0.0182418
0.0181828
0.0181508
0.0299783
0.023573
0.0213904
0.0203574
0.0197218
0.0192743
0.0189395
0.0186825
0.0184836
0.0183304
0.0182145
0.0181304
0.0180742
0.0180437
0.0273669
0.022794
0.0210517
0.0201458
0.0195623
0.0191423
0.0188246
0.0185793
0.0183889
0.0182419
0.0181304
0.0180493
0.0179951
0.0179657
0.0416821
0.0267769
0.0224797
0.0208715
0.0200196
0.0194617
0.0190567
0.0187491
0.0185111
0.0183261
0.0181829
0.0180743
0.0179952
0.0179422
0.0179135
0.0411059
0.0264532
0.0223385
0.020786
0.0199561
0.0194094
0.0190113
0.0187086
0.0184744
0.0182921
0.018151
0.0180438
0.0179657
0.0179135
0.0178851
0.0235078
0.0235646
0.0225026
0.0237119
0.0224429
0.0221288
0.0220839
0.022063
0.0226074
0.0244213
0.0221085
0.0217963
0.0215357
0.0213449
0.0212701
0.0212183
0.0233856
0.0221604
0.0217425
0.0213305
0.0209898
0.0207111
0.0205263
0.0204302
0.0203808
0.02213
0.0218397
0.0214025
0.0209612
0.0205684
0.0202572
0.020021
0.0198613
0.0197691
0.0197248
0.0221307
0.0217105
0.0212184
0.0207145
0.0202875
0.019945
0.0196854
0.0194941
0.0193623
0.0192821
0.0192435
0.0233859
0.02184
0.0212184
0.0206345
0.0201456
0.0197676
0.0194784
0.0192605
0.0190997
0.0189874
0.018917
0.018883
0.0226077
0.0221606
0.0214026
0.0207145
0.0201456
0.019709
0.0193796
0.0191292
0.0189398
0.0187994
0.0187004
0.0186375
0.018607
0.0244215
0.0217427
0.0209613
0.0202876
0.0197677
0.0193796
0.0190868
0.0188635
0.018694
0.0185677
0.018478
0.0184207
0.0183927
0.0225028
0.0221087
0.0213308
0.0205686
0.0199451
0.0194785
0.0191292
0.0188636
0.0186599
0.0185043
0.018388
0.0183051
0.0182518
0.0182257
0.0237121
0.0217965
0.02099
0.0202574
0.0196856
0.0192606
0.0189399
0.018694
0.0185044
0.0183589
0.0182497
0.0181716
0.0181213
0.0180966
0.0224432
0.021536
0.0207114
0.0200212
0.0194944
0.0190999
0.0187996
0.0185678
0.0183881
0.0182497
0.0181456
0.018071
0.0180228
0.0179992
0.0221291
0.0213452
0.0205267
0.0198616
0.0193626
0.0189876
0.0187006
0.0184782
0.0183052
0.0181717
0.018071
0.0179988
0.0179521
0.0179292
0.0235082
0.0220843
0.0212705
0.0204306
0.0197694
0.0192824
0.0189173
0.0186378
0.0184209
0.0182519
0.0181214
0.0180229
0.0179522
0.0179064
0.017884
0.023565
0.0220635
0.0212187
0.0203811
0.0197251
0.0192438
0.0188833
0.0186072
0.0183929
0.0182259
0.0180967
0.0179993
0.0179293
0.017884
0.0178618
0.0198641
0.0198784
0.0199434
0.0203253
0.0205488
0.0204331
0.0203255
0.0202849
0.0199502
0.0207941
0.0203439
0.0202659
0.020171
0.0201323
0.0201028
0.0200774
0.0201606
0.0203578
0.0202574
0.0201368
0.0200001
0.0198556
0.0197643
0.0197092
0.0196788
0.0205078
0.0202909
0.0201658
0.0199859
0.0197939
0.019628
0.0194882
0.0193881
0.0193258
0.0192945
0.0205086
0.0202457
0.0200928
0.0198711
0.0196462
0.0194436
0.0192775
0.0191462
0.0190515
0.0189915
0.0189619
0.0201607
0.0202911
0.0200928
0.0198333
0.0195674
0.0193339
0.0191374
0.0189791
0.0188564
0.0187679
0.0187113
0.0186835
0.0199504
0.020358
0.020166
0.0198712
0.0195675
0.0192964
0.0190681
0.0188808
0.0187317
0.0186173
0.0185347
0.0184815
0.0184554
0.0207943
0.0202576
0.019986
0.0196463
0.0193339
0.0190682
0.0188485
0.0186707
0.0185303
0.018423
0.0183456
0.0182955
0.0182708
0.0199436
0.0203442
0.0201371
0.0197941
0.0194438
0.0191375
0.0188809
0.0186707
0.0185018
0.0183688
0.0182673
0.018194
0.0181465
0.0181231
0.0203255
0.0202662
0.0200004
0.0196283
0.0192777
0.0189793
0.0187319
0.0185304
0.0183689
0.0182418
0.0181449
0.0180748
0.0180293
0.0180069
0.0205491
0.0201714
0.0198559
0.0194885
0.0191464
0.0188566
0.0186175
0.0184231
0.0182674
0.0181449
0.0180514
0.0179837
0.0179397
0.0179181
0.0204334
0.0201326
0.0197646
0.0193884
0.0190518
0.0187682
0.018535
0.0183457
0.0181941
0.0180748
0.0179837
0.0179178
0.0178749
0.0178538
0.0198645
0.0203259
0.0201032
0.0197096
0.0193262
0.0189918
0.0187116
0.0184818
0.0182957
0.0181467
0.0180294
0.0179398
0.017875
0.0178328
0.0178121
0.0198789
0.0202854
0.0200779
0.0196792
0.0192949
0.0189623
0.0186838
0.0184557
0.0182711
0.0181233
0.018007
0.0179182
0.0178539
0.0178121
0.0177915
0.0185169
0.0185272
0.0186342
0.0188612
0.0191921
0.0191917
0.0191392
0.0191172
0.0186492
0.0190751
0.0191151
0.0191026
0.0190733
0.0190747
0.0190734
0.0190699
0.0187901
0.0191191
0.0191066
0.0190995
0.0190707
0.019019
0.0189832
0.0189578
0.0189435
0.0192225
0.0191225
0.0191164
0.0190661
0.0189999
0.0189357
0.0188729
0.018823
0.0187884
0.01877
0.0192231
0.0191028
0.0190978
0.0190347
0.0189453
0.0188519
0.0187661
0.0186916
0.0186345
0.0185963
0.0185769
0.0187902
0.0191227
0.0190978
0.0190234
0.0189147
0.0187986
0.0186883
0.0185912
0.0185108
0.0184503
0.0184103
0.0183903
0.0186494
0.0191193
0.0191166
0.0190348
0.0189148
0.01878
0.018648
0.0185284
0.0184266
0.0183446
0.0182835
0.0182431
0.0182231
0.0190753
0.0191067
0.0190663
0.0189454
0.0187987
0.018648
0.0185073
0.018384
0.0182811
0.0181994
0.0181389
0.018099
0.0180793
0.0186345
0.0191154
0.0190997
0.0190002
0.0188521
0.0186884
0.0185285
0.018384
0.0182599
0.0181576
0.0180771
0.0180177
0.0179787
0.0179593
0.0188615
0.0191029
0.019071
0.0189359
0.0187663
0.0185914
0.0184268
0.0182812
0.0181577
0.0180567
0.0179776
0.0179194
0.0178811
0.0178622
0.0191924
0.0190736
0.0190193
0.0188732
0.0186918
0.018511
0.0183448
0.0181995
0.0180772
0.0179777
0.0178999
0.0178427
0.0178051
0.0177865
0.0191921
0.0190751
0.0189835
0.0188234
0.0186347
0.0184506
0.0182837
0.018139
0.0180178
0.0179195
0.0178427
0.0177863
0.0177493
0.017731
0.0185173
0.0191396
0.0190738
0.0189582
0.0187887
0.0185966
0.0184106
0.0182434
0.0180993
0.0179788
0.0178813
0.0178052
0.0177494
0.0177127
0.0176946
0.0185277
0.0191176
0.0190703
0.0189439
0.0187704
0.0185772
0.0183906
0.0182234
0.0180795
0.0179595
0.0178623
0.0177866
0.0177311
0.0176947
0.0176766
0.0177989
0.017807
0.0178601
0.0180087
0.0182251
0.0182685
0.0182589
0.0182572
0.0178851
0.0181175
0.0182254
0.0182444
0.0182498
0.0182622
0.0182703
0.0182748
0.0179751
0.0182269
0.0182531
0.0182862
0.0183045
0.018304
0.0183009
0.0182948
0.0182905
0.0182595
0.0182489
0.0182928
0.0183061
0.0183063
0.0182987
0.0182833
0.0182673
0.0182535
0.0182455
0.0182599
0.0182437
0.0182997
0.0183152
0.0183027
0.0182775
0.018246
0.0182132
0.0181853
0.0181653
0.0181547
0.0179752
0.0182491
0.0182997
0.0183178
0.0182998
0.0182607
0.018213
0.0181642
0.0181196
0.0180839
0.0180592
0.0180466
0.0178854
0.0182271
0.018293
0.0183152
0.0182999
0.0182546
0.0181944
0.0181305
0.0180705
0.0180188
0.0179785
0.0179511
0.0179373
0.0181178
0.0182533
0.0183063
0.0183028
0.0182608
0.0181944
0.0181188
0.0180444
0.0179776
0.0179217
0.0178789
0.0178501
0.0178356
0.0178604
0.0182256
0.0182864
0.0183066
0.0182777
0.0182131
0.0181306
0.0180445
0.0179635
0.0178927
0.0178345
0.0177904
0.0177609
0.0177461
0.018009
0.0182447
0.0183048
0.018299
0.0182462
0.0181644
0.0180706
0.0179776
0.0178927
0.0178197
0.0177604
0.0177156
0.0176858
0.0176709
0.0182254
0.0182502
0.0183043
0.0182836
0.0182134
0.0181198
0.018019
0.0179219
0.0178346
0.0177604
0.0177005
0.0176556
0.0176256
0.0176107
0.0182689
0.0182625
0.0183013
0.0182676
0.0181856
0.0180841
0.0179787
0.0178791
0.0177906
0.0177157
0.0176556
0.0176106
0.0175807
0.0175658
0.0177994
0.0182593
0.0182708
0.0182952
0.0182538
0.0181656
0.0180595
0.0179514
0.0178503
0.0177611
0.0176859
0.0176257
0.0175807
0.0175508
0.0175359
0.0178075
0.0182577
0.0182753
0.018291
0.0182459
0.0181551
0.0180469
0.0179376
0.0178359
0.0177463
0.017671
0.0176108
0.0175658
0.017536
0.0175211
0.0172887
0.0172954
0.0173082
0.017401
0.0175262
0.0175764
0.0175815
0.0175875
0.0173304
0.0174744
0.0175563
0.0175872
0.0176085
0.0176278
0.0176384
0.0176443
0.0173854
0.0175569
0.0175983
0.0176423
0.0176762
0.0176968
0.0177107
0.0177163
0.0177181
0.0175575
0.0175843
0.0176424
0.0176809
0.01771
0.0177298
0.0177399
0.0177442
0.0177444
0.0177436
0.0175577
0.0175885
0.0176592
0.0177051
0.0177306
0.0177435
0.0177457
0.0177411
0.0177343
0.0177279
0.0177242
0.0173855
0.0175844
0.0176592
0.0177136
0.0177413
0.0177485
0.0177427
0.0177289
0.017712
0.0176963
0.0176844
0.0176781
0.0173307
0.0175571
0.0176426
0.0177052
0.0177414
0.0177501
0.0177393
0.0177173
0.0176908
0.0176647
0.0176426
0.0176268
0.0176186
0.0174746
0.0175985
0.0176811
0.0177307
0.0177486
0.0177393
0.0177129
0.0176784
0.0176426
0.0176099
0.0175834
0.017565
0.0175556
0.0173084
0.0175566
0.0176426
0.0177102
0.0177436
0.0177429
0.0177174
0.0176785
0.0176347
0.0175923
0.0175552
0.0175259
0.0175057
0.0174954
0.0174013
0.0175875
0.0176765
0.01773
0.017746
0.0177291
0.017691
0.0176427
0.0175924
0.0175456
0.0175055
0.0174743
0.017453
0.0174422
0.0175265
0.0176089
0.0176972
0.0177402
0.0177414
0.0177122
0.0176649
0.01761
0.0175553
0.0175056
0.0174636
0.0174312
0.0174092
0.017398
0.0175768
0.0176282
0.0177111
0.0177445
0.0177346
0.0176966
0.0176428
0.0175836
0.017526
0.0174744
0.0174312
0.017398
0.0173756
0.0173642
0.0172892
0.017582
0.0176388
0.0177168
0.0177448
0.0177283
0.0176848
0.0176271
0.0175652
0.0175059
0.0174531
0.0174092
0.0173756
0.0173529
0.0173415
0.0172959
0.017588
0.0176448
0.0177186
0.0177441
0.0177246
0.0176785
0.017619
0.0175558
0.0174957
0.0174424
0.0173982
0.0173643
0.0173415
0.01733
0.0168553
0.0168628
0.0168559
0.0169155
0.0169824
0.0170283
0.0170374
0.0170451
0.016874
0.0169751
0.0170223
0.0170536
0.0170787
0.0171015
0.0171135
0.0171202
0.0169084
0.0170226
0.017066
0.01711
0.0171464
0.0171731
0.0171938
0.0172054
0.0172107
0.0170097
0.0170482
0.0171067
0.0171524
0.0171916
0.0172229
0.0172454
0.0172607
0.0172691
0.0172728
0.0170099
0.0170559
0.0171252
0.0171803
0.0172223
0.0172544
0.017276
0.0172889
0.0172961
0.0172993
0.0173005
0.0169085
0.0170483
0.0171252
0.0171904
0.0172387
0.0172716
0.0172918
0.0173017
0.0173045
0.0173038
0.0173019
0.0173005
0.0168742
0.0170227
0.0171069
0.0171804
0.0172387
0.0172774
0.0172983
0.0173058
0.0173043
0.0172981
0.0172908
0.0172846
0.0172812
0.0169753
0.0170662
0.0171526
0.0172224
0.0172717
0.0172984
0.0173066
0.0173024
0.0172914
0.017278
0.0172656
0.0172562
0.0172512
0.0168562
0.0170226
0.0171103
0.0171918
0.0172546
0.017292
0.0173059
0.0173025
0.0172887
0.0172702
0.0172515
0.0172353
0.0172236
0.0172175
0.0169159
0.0170539
0.0171467
0.0172232
0.0172763
0.0173019
0.0173044
0.0172915
0.0172703
0.0172464
0.0172237
0.0172049
0.0171915
0.0171846
0.0169828
0.0170791
0.0171735
0.0172457
0.0172892
0.0173047
0.0172983
0.0172782
0.0172516
0.0172237
0.0171983
0.0171776
0.0171632
0.0171557
0.0170288
0.0171019
0.0171942
0.0172611
0.0172965
0.0173041
0.017291
0.0172658
0.0172354
0.017205
0.0171777
0.0171558
0.0171406
0.0171328
0.0168558
0.0170379
0.017114
0.0172059
0.0172696
0.0172998
0.0173022
0.0172849
0.0172565
0.0172238
0.0171917
0.0171633
0.0171406
0.0171249
0.0171169
0.0168633
0.0170457
0.0171208
0.0172112
0.0172733
0.0173009
0.0173009
0.0172815
0.0172516
0.0172177
0.0171848
0.0171559
0.0171329
0.017117
0.0171089
0.0164652
0.0164731
0.0164626
0.0165016
0.0165336
0.0165718
0.0165815
0.0165891
0.016476
0.0165532
0.0165745
0.0166019
0.0166254
0.016648
0.0166604
0.0166674
0.0164991
0.0165747
0.0166147
0.0166548
0.0166889
0.0167155
0.0167375
0.0167512
0.016758
0.0165566
0.0165963
0.0166501
0.0166953
0.0167359
0.0167706
0.0167978
0.0168181
0.0168307
0.0168367
0.0165568
0.0166041
0.0166672
0.0167222
0.0167694
0.0168096
0.0168409
0.0168636
0.0168792
0.0168884
0.0168927
0.0164992
0.0165964
0.0166672
0.016732
0.0167875
0.0168327
0.0168673
0.0168917
0.0169074
0.016917
0.0169222
0.0169244
0.0164762
0.0165749
0.0166503
0.0167223
0.0167875
0.0168406
0.0168797
0.016906
0.0169218
0.0169301
0.0169339
0.0169352
0.0169355
0.0165534
0.0166149
0.0166955
0.0167696
0.0168328
0.0168798
0.0169104
0.0169275
0.0169351
0.0169367
0.0169355
0.0169336
0.0169323
0.0164629
0.0165748
0.016655
0.0167362
0.0168097
0.0168675
0.0169061
0.0169276
0.0169363
0.0169368
0.016933
0.0169278
0.0169234
0.0169208
0.016502
0.0166023
0.0166892
0.0167709
0.0168412
0.0168919
0.016922
0.0169352
0.0169368
0.0169317
0.0169237
0.0169156
0.0169092
0.0169058
0.016534
0.0166258
0.0167159
0.0167981
0.016864
0.0169077
0.0169304
0.0169369
0.0169331
0.0169237
0.0169126
0.0169024
0.0168947
0.0168906
0.0165723
0.0166485
0.016738
0.0168185
0.0168796
0.0169174
0.0169342
0.0169358
0.016928
0.0169157
0.0169024
0.0168907
0.0168821
0.0168775
0.0164657
0.016582
0.016661
0.0167518
0.0168312
0.0168889
0.0169226
0.0169356
0.0169339
0.0169236
0.0169094
0.0168948
0.0168821
0.0168729
0.0168681
0.0164737
0.0165897
0.016668
0.0167586
0.0168372
0.0168932
0.0169249
0.0169359
0.0169327
0.0169211
0.016906
0.0168908
0.0168776
0.0168681
0.0168632
0.0161098
0.0161172
0.0161093
0.0161353
0.0161468
0.0161773
0.0161862
0.0161928
0.0161192
0.0161807
0.0161849
0.0162079
0.0162282
0.0162485
0.0162601
0.0162667
0.016136
0.0161853
0.0162202
0.0162553
0.0162856
0.0163099
0.0163306
0.0163442
0.0163511
0.0161665
0.0162031
0.0162505
0.016292
0.0163303
0.0163641
0.0163917
0.0164133
0.0164274
0.0164344
0.0161667
0.0162102
0.0162655
0.0163164
0.0163629
0.0164046
0.0164395
0.0164666
0.0164864
0.016499
0.016505
0.0161361
0.0162032
0.0162655
0.0163253
0.0163805
0.0164297
0.0164709
0.016503
0.0165263
0.0165424
0.0165521
0.0165567
0.0161195
0.0161855
0.0162507
0.0163165
0.0163806
0.0164383
0.0164863
0.0165233
0.01655
0.016568
0.0165795
0.0165862
0.0165892
0.016181
0.0162205
0.0162922
0.016363
0.0164298
0.0164864
0.0165299
0.0165607
0.0165811
0.0165937
0.016601
0.0166047
0.0166063
0.0161096
0.0161852
0.0162556
0.0163305
0.0164048
0.016471
0.0165234
0.0165608
0.0165851
0.0165996
0.0166073
0.0166109
0.0166122
0.0166126
0.0161357
0.0162083
0.016286
0.0163644
0.0164398
0.0165032
0.0165502
0.0165812
0.0165996
0.016609
0.0166127
0.0166134
0.0166129
0.0166124
0.0161473
0.0162287
0.0163103
0.0163921
0.016467
0.0165266
0.0165683
0.0165939
0.0166074
0.0166128
0.0166135
0.0166119
0.01661
0.0166088
0.0161779
0.0162491
0.0163311
0.0164138
0.0164869
0.0165427
0.0165799
0.0166012
0.0166111
0.0166135
0.016612
0.0166089
0.016606
0.0166043
0.0161103
0.0161868
0.0162607
0.0163448
0.016428
0.0164995
0.0165526
0.0165866
0.0166051
0.0166125
0.0166131
0.0166101
0.016606
0.0166025
0.0166004
0.0161178
0.0161935
0.0162674
0.0163518
0.016435
0.0165056
0.0165572
0.0165897
0.0166067
0.0166129
0.0166126
0.0166089
0.0166044
0.0166005
0.0165983
0.0157836
0.01579
0.0157857
0.0158034
0.0158022
0.0158264
0.015834
0.0158394
0.0157934
0.0158437
0.0158364
0.0158554
0.0158725
0.0158898
0.0158998
0.0159057
0.0158065
0.0158372
0.0158671
0.0158971
0.0159232
0.0159444
0.0159628
0.0159751
0.0159816
0.0158198
0.0158521
0.0158929
0.0159296
0.0159638
0.0159947
0.0160206
0.0160413
0.0160553
0.0160623
0.0158199
0.0158583
0.0159059
0.0159511
0.0159938
0.0160336
0.0160682
0.0160963
0.0161175
0.0161314
0.0161382
0.0158066
0.0158522
0.0159059
0.0159589
0.0160102
0.0160583
0.0161009
0.016136
0.0161631
0.0161825
0.0161949
0.0162009
0.0157937
0.0158374
0.0158931
0.0159512
0.0160102
0.0160669
0.0161174
0.0161593
0.0161919
0.0162158
0.0162322
0.0162424
0.0162472
0.015844
0.0158673
0.0159297
0.015994
0.0160584
0.0161175
0.016167
0.0162057
0.0162342
0.016254
0.0162672
0.016275
0.0162787
0.015786
0.0158368
0.0158974
0.015964
0.0160338
0.0161011
0.0161595
0.0162058
0.01624
0.016264
0.01628
0.01629
0.0162958
0.0162984
0.0158039
0.0158558
0.0159236
0.015995
0.0160685
0.0161363
0.0161921
0.0162343
0.0162641
0.0162839
0.0162965
0.0163039
0.016308
0.0163097
0.0158028
0.015873
0.0159449
0.016021
0.0160967
0.0161634
0.0162161
0.0162543
0.0162801
0.0162965
0.0163063
0.0163117
0.0163145
0.0163156
0.0158271
0.0158905
0.0159634
0.0160419
0.016118
0.0161829
0.0162326
0.0162675
0.0162902
0.0163041
0.0163118
0.0163157
0.0163175
0.0163181
0.0157842
0.0158347
0.0159005
0.0159758
0.0160559
0.016132
0.0161954
0.0162429
0.0162754
0.0162961
0.0163082
0.0163146
0.0163176
0.0163187
0.016319
0.0157906
0.0158402
0.0159065
0.0159823
0.016063
0.0161389
0.0162015
0.0162478
0.0162791
0.0162988
0.01631
0.0163158
0.0163182
0.0163191
0.0163192
0.015481
0.0154862
0.0154851
0.0154978
0.0154878
0.015507
0.0155131
0.0155174
0.0154915
0.0155333
0.015518
0.0155336
0.0155477
0.0155621
0.0155704
0.0155754
0.0155023
0.0155194
0.0155446
0.01557
0.0155921
0.01561
0.0156256
0.0156363
0.0156419
0.015504
0.015532
0.0155668
0.0155984
0.015628
0.0156551
0.0156781
0.0156969
0.0157098
0.0157163
0.0155041
0.0155374
0.0155781
0.0156171
0.0156549
0.0156908
0.015723
0.0157498
0.0157705
0.0157844
0.0157913
0.0155023
0.0155321
0.015578
0.0156239
0.0156695
0.0157139
0.0157547
0.0157897
0.0158175
0.0158382
0.0158517
0.0158583
0.0154917
0.0155196
0.015567
0.0156172
0.0156696
0.015722
0.0157711
0.0158138
0.0158486
0.0158753
0.0158944
0.0159066
0.0159125
0.0155335
0.0155448
0.0155985
0.015655
0.0157141
0.0157711
0.0158219
0.0158639
0.0158966
0.0159209
0.0159377
0.0159482
0.0159533
0.0154855
0.0155184
0.0155703
0.0156283
0.0156911
0.0157549
0.0158139
0.0158639
0.0159036
0.0159334
0.0159548
0.0159693
0.0159782
0.0159824
0.0154983
0.015534
0.0155925
0.0156555
0.0157233
0.0157899
0.0158488
0.0158968
0.0159335
0.0159603
0.015979
0.0159914
0.0159988
0.0160023
0.0154884
0.0155483
0.0156105
0.0156786
0.0157503
0.0158179
0.0158756
0.0159211
0.015955
0.0159791
0.0159955
0.0160062
0.0160124
0.0160153
0.0155078
0.0155628
0.0156263
0.0156975
0.0157711
0.0158387
0.0158948
0.015938
0.0159696
0.0159915
0.0160062
0.0160156
0.016021
0.0160235
0.0154816
0.0155139
0.0155712
0.015637
0.0157105
0.015785
0.0158523
0.0159071
0.0159487
0.0159785
0.0159991
0.0160126
0.0160211
0.0160259
0.0160281
0.0154869
0.0155184
0.0155763
0.0156428
0.0157172
0.0157921
0.015859
0.0159131
0.0159538
0.0159828
0.0160026
0.0160156
0.0160236
0.0160282
0.0160302
0.0151967
0.0152009
0.0152024
0.0152127
0.0151956
0.0152109
0.0152155
0.015219
0.015208
0.0152434
0.0152224
0.0152351
0.0152467
0.0152583
0.0152648
0.0152689
0.0152174
0.0152246
0.0152457
0.0152669
0.0152852
0.0152999
0.0153127
0.0153215
0.0153262
0.0152113
0.0152355
0.015265
0.0152916
0.0153166
0.0153395
0.0153592
0.0153754
0.0153866
0.0153923
0.0152114
0.0152403
0.0152747
0.0153079
0.0153402
0.0153714
0.0153999
0.0154241
0.0154431
0.015456
0.0154625
0.0152175
0.0152356
0.0152747
0.0153137
0.015353
0.0153922
0.0154293
0.0154619
0.0154887
0.0155089
0.0155224
0.0155291
0.0152082
0.0152248
0.0152651
0.0153079
0.0153531
0.0153996
0.0154446
0.0154854
0.0155198
0.015547
0.015567
0.01558
0.0155864
0.0152437
0.0152459
0.0152918
0.0153403
0.0153923
0.0154447
0.0154933
0.0155353
0.0155695
0.0155957
0.0156145
0.0156266
0.0156324
0.0152028
0.0152228
0.0152673
0.0153169
0.0153716
0.0154295
0.0154855
0.0155354
0.015577
0.0156097
0.0156342
0.0156514
0.0156623
0.0156675
0.0152133
0.0152356
0.0152856
0.0153399
0.0154002
0.0154622
0.01552
0.0155697
0.0156098
0.0156406
0.0156632
0.0156789
0.0156887
0.0156933
0.0151962
0.0152473
0.0153005
0.0153597
0.0154245
0.0154891
0.0155473
0.015596
0.0156344
0.0156633
0.0156842
0.0156985
0.0157074
0.0157116
0.0152118
0.0152591
0.0153135
0.0153761
0.0154437
0.0155095
0.0155674
0.0156149
0.0156517
0.0156791
0.0156986
0.0157119
0.01572
0.0157239
0.0151975
0.0152165
0.0152657
0.0153224
0.0153874
0.0154567
0.015523
0.0155806
0.015627
0.0156627
0.0156889
0.0157076
0.0157201
0.0157277
0.0157314
0.0152018
0.0152201
0.01527
0.0153272
0.0153933
0.0154634
0.0155298
0.015587
0.015633
0.015668
0.0156937
0.0157118
0.015724
0.0157314
0.0157349
0.0149266
0.01493
0.0149337
0.0149425
0.0149204
0.0149327
0.0149358
0.0149386
0.0149392
0.0149698
0.0149447
0.0149549
0.014964
0.0149732
0.0149779
0.0149812
0.0149477
0.014948
0.0149654
0.0149828
0.0149975
0.015009
0.0150191
0.0150258
0.0150296
0.0149365
0.0149576
0.0149823
0.0150042
0.0150246
0.0150433
0.0150593
0.0150725
0.0150817
0.0150865
0.0149366
0.0149616
0.0149908
0.0150182
0.015045
0.0150709
0.015095
0.0151158
0.0151324
0.0151438
0.0151495
0.0149478
0.0149576
0.0149907
0.0150233
0.0150561
0.0150893
0.0151214
0.0151503
0.0151747
0.0151934
0.0152061
0.0152124
0.0149394
0.0149481
0.0149824
0.0150183
0.0150561
0.0150957
0.0151353
0.0151722
0.0152043
0.0152304
0.01525
0.0152629
0.0152693
0.01497
0.0149656
0.0150043
0.0150451
0.0150894
0.0151353
0.0151797
0.0152194
0.0152528
0.0152792
0.0152985
0.0153112
0.0153173
0.0149341
0.014945
0.0149831
0.0150249
0.0150712
0.0151216
0.0151723
0.0152195
0.0152603
0.0152937
0.0153194
0.015338
0.0153499
0.0153558
0.0149431
0.0149555
0.0149979
0.0150437
0.0150954
0.0151507
0.0152045
0.015253
0.0152938
0.0153263
0.015351
0.0153686
0.0153798
0.0153852
0.0149211
0.0149647
0.0150097
0.0150599
0.0151163
0.0151751
0.0152307
0.0152795
0.0153196
0.0153511
0.0153747
0.0153913
0.0154019
0.015407
0.0149336
0.0149741
0.0150199
0.0150733
0.015133
0.015194
0.0152505
0.0152989
0.0153383
0.0153688
0.0153914
0.0154073
0.0154173
0.0154221
0.0149275
0.0149369
0.014979
0.0150268
0.0150826
0.0151446
0.0152068
0.0152635
0.0153117
0.0153503
0.0153801
0.015402
0.0154174
0.015427
0.0154317
0.0149312
0.0149399
0.0149824
0.0150307
0.0150876
0.0151505
0.0152132
0.0152701
0.015318
0.0153563
0.0153856
0.0154072
0.0154223
0.0154318
0.0154363
0.0146673
0.0146703
0.0146763
0.0146839
0.0146588
0.0146686
0.0146699
0.0146723
0.014682
0.0147092
0.0146815
0.0146894
0.0146961
0.0147028
0.0147057
0.0147082
0.0146904
0.0146861
0.0147002
0.0147139
0.0147251
0.0147334
0.0147406
0.0147452
0.014748
0.0146765
0.0146948
0.0147151
0.0147324
0.0147482
0.0147624
0.0147745
0.0147846
0.0147916
0.0147953
0.0146765
0.014698
0.0147224
0.0147444
0.0147654
0.0147858
0.0148051
0.0148219
0.0148355
0.0148449
0.0148498
0.0146904
0.0146947
0.0147224
0.0147487
0.0147747
0.0148014
0.0148278
0.0148523
0.0148733
0.0148898
0.0149011
0.0149067
0.0146822
0.0146861
0.0147151
0.0147444
0.0147747
0.014807
0.01484
0.0148719
0.0149005
0.0149243
0.0149425
0.0149548
0.0149608
0.0147094
0.0147003
0.0147325
0.0147655
0.0148015
0.0148401
0.0148787
0.0149145
0.0149457
0.0149709
0.0149898
0.0150023
0.0150085
0.0146767
0.0146818
0.0147142
0.0147484
0.0147861
0.014828
0.0148721
0.0149146
0.0149529
0.0149852
0.0150108
0.0150297
0.015042
0.0150481
0.0146844
0.0146899
0.0147255
0.0147628
0.0148054
0.0148526
0.0149007
0.0149458
0.0149853
0.0150179
0.0150432
0.0150617
0.0150737
0.0150795
0.0146596
0.0146968
0.0147341
0.0147752
0.0148224
0.0148738
0.0149247
0.0149712
0.015011
0.0150433
0.0150682
0.0150861
0.0150977
0.0151033
0.0146697
0.0147038
0.0147415
0.0147854
0.0148362
0.0148905
0.0149431
0.0149903
0.01503
0.0150619
0.0150862
0.0151037
0.0151149
0.0151203
0.0146685
0.0146712
0.014707
0.0147464
0.0147927
0.0148459
0.0149019
0.0149555
0.0150029
0.0150425
0.015074
0.0150979
0.015115
0.0151259
0.0151313
0.0146717
0.0146738
0.0147097
0.0147493
0.0147966
0.0148509
0.0149077
0.0149617
0.0150092
0.0150487
0.0150799
0.0151036
0.0151205
0.0151314
0.0151366
0.0144164
0.0144191
0.0144279
0.0144347
0.0144089
0.0144161
0.0144153
0.0144174
0.0144345
0.0144595
0.0144303
0.0144359
0.01444
0.0144441
0.0144451
0.0144469
0.0144432
0.0144368
0.0144476
0.0144575
0.0144649
0.0144698
0.0144738
0.0144762
0.0144779
0.0144295
0.0144447
0.0144607
0.0144732
0.014484
0.0144935
0.0145015
0.0145081
0.0145127
0.0145153
0.0144295
0.0144469
0.0144668
0.0144831
0.014498
0.0145125
0.0145265
0.014539
0.0145493
0.0145566
0.0145604
0.014443
0.0144446
0.0144667
0.0144866
0.0145055
0.0145253
0.0145455
0.0145649
0.014582
0.0145958
0.0146054
0.0146102
0.0144345
0.0144367
0.0144606
0.014483
0.0145055
0.0145298
0.0145558
0.0145819
0.0146061
0.014627
0.0146433
0.0146544
0.01466
0.0144595
0.0144475
0.0144732
0.014498
0.0145253
0.0145558
0.0145878
0.0146188
0.0146467
0.01467
0.0146878
0.0146997
0.0147056
0.0144282
0.0144305
0.0144577
0.0144842
0.0145127
0.0145457
0.014582
0.0146189
0.0146535
0.0146837
0.0147082
0.0147267
0.0147389
0.014745
0.0144353
0.0144364
0.0144654
0.014494
0.0145269
0.0145652
0.0146064
0.0146469
0.0146838
0.0147151
0.0147402
0.0147588
0.014771
0.0147771
0.0144098
0.0144408
0.0144706
0.0145022
0.0145396
0.0145826
0.0146274
0.0146703
0.0147085
0.0147403
0.0147655
0.014784
0.014796
0.014802
0.0144174
0.0144452
0.0144748
0.0145091
0.0145502
0.0145965
0.0146439
0.0146883
0.0147271
0.0147591
0.0147841
0.0148023
0.0148142
0.0148201
0.0144178
0.0144168
0.0144465
0.0144775
0.014514
0.0145577
0.0146063
0.0146552
0.0147004
0.0147394
0.0147714
0.0147963
0.0148143
0.0148261
0.0148319
0.0144208
0.0144192
0.0144486
0.0144795
0.0145168
0.0145617
0.0146114
0.0146609
0.0147064
0.0147456
0.0147775
0.0148023
0.0148203
0.014832
0.0148377
0.0141712
0.0141739
0.0141865
0.0141932
0.01417
0.0141738
0.01417
0.0141721
0.0141944
0.0142188
0.0141898
0.0141927
0.0141937
0.0141944
0.0141931
0.0141943
0.0142045
0.0141993
0.0142058
0.0142111
0.0142143
0.0142151
0.0142154
0.0142153
0.014216
0.0141959
0.014206
0.0142169
0.0142237
0.0142288
0.0142331
0.0142365
0.0142394
0.0142415
0.0142429
0.0141958
0.0142062
0.0142213
0.014231
0.0142391
0.0142473
0.0142557
0.0142636
0.0142705
0.0142756
0.0142783
0.0142042
0.0142057
0.0142211
0.0142337
0.0142448
0.014257
0.0142707
0.0142847
0.0142978
0.0143088
0.0143166
0.0143206
0.0141942
0.014199
0.0142166
0.0142309
0.0142447
0.0142605
0.0142789
0.014299
0.0143187
0.0143363
0.0143505
0.0143603
0.0143653
0.0142186
0.0142056
0.0142236
0.0142391
0.014257
0.014279
0.014304
0.0143299
0.0143542
0.0143751
0.0143914
0.0144026
0.0144082
0.0141868
0.0141899
0.0142112
0.0142289
0.0142474
0.0142708
0.0142991
0.01433
0.0143604
0.0143879
0.0144109
0.0144286
0.0144404
0.0144463
0.0141938
0.0141932
0.0142147
0.0142335
0.0142561
0.0142851
0.014319
0.0143544
0.014388
0.0144176
0.0144419
0.0144601
0.0144723
0.0144783
0.0141709
0.0141945
0.0142159
0.0142372
0.0142643
0.0142984
0.0143368
0.0143755
0.0144112
0.014442
0.0144668
0.0144854
0.0144976
0.0145037
0.0141752
0.0141957
0.0142166
0.0142404
0.0142715
0.0143096
0.0143512
0.014392
0.014429
0.0144604
0.0144855
0.0145041
0.0145163
0.0145223
0.0141729
0.0141717
0.0141948
0.0142168
0.0142429
0.0142768
0.0143176
0.0143612
0.0144033
0.014441
0.0144727
0.0144979
0.0145164
0.0145286
0.0145346
0.0141759
0.0141742
0.0141963
0.0142178
0.0142446
0.0142798
0.0143219
0.0143664
0.0144091
0.0144471
0.0144789
0.014504
0.0145226
0.0145347
0.0145408
0.0139279
0.013931
0.013949
0.0139575
0.0139434
0.0139409
0.0139323
0.0139351
0.0139586
0.0139858
0.0139598
0.0139585
0.0139549
0.0139509
0.0139466
0.0139475
0.0139731
0.0139741
0.0139737
0.0139721
0.0139696
0.0139654
0.0139612
0.0139582
0.0139579
0.0139853
0.0139774
0.0139804
0.0139798
0.0139781
0.0139764
0.0139749
0.0139739
0.0139735
0.0139739
0.0139851
0.0139726
0.0139818
0.0139837
0.0139839
0.0139853
0.013988
0.0139915
0.0139952
0.0139982
0.0139999
0.0139724
0.013977
0.0139816
0.0139855
0.0139874
0.0139917
0.0139989
0.014008
0.0140173
0.0140257
0.0140319
0.0140351
0.013958
0.0139733
0.0139799
0.0139835
0.0139874
0.0139942
0.0140053
0.0140196
0.0140351
0.0140497
0.014062
0.0140706
0.0140751
0.0139853
0.0139732
0.0139795
0.0139838
0.0139917
0.0140053
0.0140238
0.0140448
0.0140658
0.0140845
0.0140995
0.0141099
0.0141151
0.0139491
0.0139597
0.013972
0.0139781
0.0139854
0.0139991
0.0140197
0.0140449
0.0140715
0.0140965
0.014118
0.0141348
0.0141462
0.014152
0.013958
0.013959
0.01397
0.0139768
0.0139884
0.0140084
0.0140354
0.014066
0.0140966
0.0141244
0.0141477
0.0141655
0.0141775
0.0141835
0.0139444
0.0139559
0.0139663
0.0139757
0.0139922
0.014018
0.0140503
0.0140849
0.0141183
0.0141478
0.0141721
0.0141906
0.0142028
0.0142089
0.0139425
0.0139524
0.0139625
0.0139751
0.0139962
0.0140266
0.0140627
0.0141001
0.0141353
0.0141658
0.0141907
0.0142094
0.0142218
0.0142279
0.0139298
0.0139344
0.0139486
0.0139599
0.0139751
0.0139996
0.0140331
0.0140716
0.0141107
0.0141469
0.014178
0.0142031
0.0142219
0.0142343
0.0142405
0.0139334
0.0139377
0.0139499
0.0139601
0.0139758
0.0140017
0.0140366
0.0140763
0.0141161
0.0141527
0.0141841
0.0142093
0.0142282
0.0142406
0.0142468
0.0136775
0.0136821
0.0137076
0.0137247
0.013736
0.0137164
0.0136994
0.0137047
0.0137197
0.0137614
0.0137402
0.0137318
0.0137209
0.0137093
0.0137007
0.0137015
0.0137481
0.0137617
0.0137484
0.0137353
0.0137247
0.013714
0.0137049
0.0136988
0.0136978
0.0138233
0.0137627
0.0137445
0.0137346
0.0137249
0.0137167
0.0137102
0.0137058
0.0137033
0.0137029
0.0138233
0.0137512
0.013744
0.0137337
0.0137254
0.01372
0.0137176
0.0137174
0.0137187
0.0137202
0.0137213
0.0137472
0.0137621
0.0137437
0.0137349
0.0137267
0.0137234
0.0137251
0.0137302
0.0137368
0.0137433
0.0137485