/*--------------------------------*- C++ -*----------------------------------*\
| =========                 |                                                 |
| \\      /  F ield         | OpenFOAM: The Open Source CFD Toolbox           |
|  \\    /   O peration     | Version:  2.1.1                                 |
|   \\  /    A nd           | Web:      www.OpenFOAM.org                      |
|    \\/     M anipulation  |                                                 |
\*---------------------------------------------------------------------------*/
FoamFile
{
    version     2.0;
    format      ascii;
    class       volScalarField;
    location    "0.175";
    object      p;
}
// * * * * * * * * * * * * * * * * * * * * * * * * * * * * * * * * * * * * * //

dimensions      [0 2 -2 0 0 0 0];

internalField   nonuniform List<scalar> 
163952
(
0.0416901
0.0411137
0.0363782
0.0311833
0.0299865
0.027375
0.0267848
0.026461
0.0366985
0.0323563
0.0273147
0.0248249
0.0235811
0.022802
0.0224876
0.0223463
0.0337298
0.0279928
0.024489
0.0228492
0.0219365
0.0213985
0.0210597
0.0208793
0.0207936
0.0335997
0.0261007
0.0232663
0.0219196
0.0211641
0.0206852
0.0203654
0.0201536
0.0200273
0.0199637
0.033601
0.0255589
0.0227421
0.0214638
0.0207488
0.0202848
0.0199607
0.0197297
0.01957
0.0194693
0.0194168
0.0337303
0.0261011
0.0227422
0.0213204
0.0205577
0.0200687
0.0197231
0.0194689
0.0192822
0.0191499
0.0190642
0.0190186
0.0366987
0.0279932
0.0232666
0.021464
0.0205578
0.0199992
0.0196108
0.0193239
0.019108
0.0189472
0.0188321
0.0187565
0.0187158
0.032357
0.0244896
0.02192
0.0207491
0.020069
0.0196109
0.0192771
0.0190251
0.0188336
0.0186901
0.0185868
0.0185184
0.0184814
0.0363791
0.0273155
0.0228499
0.0211647
0.0202853
0.0197235
0.0193241
0.0190253
0.018797
0.0186225
0.0184912
0.0183963
0.0183332
0.018299
0.0311844
0.0248258
0.0219373
0.0206859
0.0199613
0.0194695
0.0191084
0.0188339
0.0186226
0.0184603
0.0183379
0.0182491
0.0181899
0.0181578
0.0299876
0.0235822
0.0213995
0.0203663
0.0197305
0.0192828
0.0189478
0.0186905
0.0184915
0.018338
0.0182219
0.0181375
0.0180812
0.0180505
0.0273762
0.0228032
0.0210608
0.0201546
0.0195709
0.0191507
0.0188328
0.0185873
0.0183967
0.0182494
0.0181377
0.0180564
0.018002
0.0179724
0.0416914
0.0267861
0.0224889
0.0208805
0.0200285
0.0194704
0.0190651
0.0187573
0.0185191
0.0183337
0.0181903
0.0180815
0.0180021
0.017949
0.0179201
0.0411151
0.0264624
0.0223476
0.0207949
0.0199649
0.019418
0.0190197
0.0187168
0.0184822
0.0182997
0.0181583
0.0180509
0.0179726
0.0179202
0.0178916
0.0235161
0.0235728
0.0225113
0.0237204
0.0224514
0.0221371
0.0220922
0.0220712
0.0226162
0.0244301
0.0221172
0.0218048
0.0215441
0.0213532
0.0212783
0.0212265
0.0233945
0.0221693
0.0217512
0.0213391
0.0209982
0.0207194
0.0205345
0.0204383
0.0203887
0.0221391
0.0218486
0.0214113
0.0209698
0.0205769
0.0202656
0.0200292
0.0198694
0.019777
0.0197326
0.0221399
0.0217195
0.0212272
0.0207232
0.020296
0.0199534
0.0196937
0.0195022
0.0193703
0.0192899
0.0192512
0.023395
0.0218491
0.0212274
0.0206433
0.0201542
0.0197761
0.0194867
0.0192686
0.0191077
0.0189952
0.0189247
0.0188906
0.0226169
0.0221698
0.0214117
0.0207234
0.0201543
0.0197176
0.0193879
0.0191373
0.0189478
0.0188072
0.0187081
0.018645
0.0186143
0.0244308
0.0217518
0.0209703
0.0202964
0.0197763
0.0193881
0.019095
0.0188716
0.0187018
0.0185753
0.0184855
0.018428
0.0183998
0.0225121
0.022118
0.0213399
0.0205776
0.0199539
0.0194871
0.0191376
0.0188717
0.0186678
0.018512
0.0183955
0.0183124
0.0182589
0.0182327
0.0237214
0.0218058
0.0209991
0.0202663
0.0196943
0.0192692
0.0189482
0.0187021
0.0185122
0.0183665
0.018257
0.0181788
0.0181283
0.0181035
0.0224525
0.0215452
0.0207204
0.0200301
0.019503
0.0191083
0.0188078
0.0185758
0.0183958
0.0182572
0.0181528
0.018078
0.0180297
0.0180059
0.0221384
0.0213544
0.0205357
0.0198704
0.0193712
0.018996
0.0187088
0.0184861
0.0183128
0.0181791
0.0180782
0.0180058
0.0179589
0.0179358
0.0235174
0.0220935
0.0212796
0.0204395
0.0197782
0.0192909
0.0189256
0.0186458
0.0184287
0.0182595
0.0181287
0.01803
0.017959
0.0179131
0.0178905
0.0235743
0.0220727
0.0212278
0.0203901
0.0197339
0.0192524
0.0188916
0.0186153
0.0184007
0.0182334
0.018104
0.0180063
0.0179361
0.0178906
0.0178682
0.0198725
0.0198867
0.019952
0.0203339
0.0205573
0.0204415
0.0203339
0.0202932
0.0199591
0.020803
0.0203527
0.0202745
0.0201796
0.0201406
0.0201111
0.0200856
0.0201696
0.0203668
0.0202662
0.0201455
0.0200087
0.019864
0.0197725
0.0197174
0.0196868
0.0205169
0.0202999
0.0201747
0.0199946
0.0198025
0.0196364
0.0194965
0.0193963
0.0193338
0.0193024
0.0205178
0.0202548
0.0201017
0.0198799
0.0196548
0.0194521
0.0192857
0.0191543
0.0190595
0.0189993
0.0189696
0.02017
0.0203004
0.0201018
0.0198422
0.0195761
0.0193424
0.0191457
0.0189872
0.0188644
0.0187757
0.0187189
0.018691
0.0199597
0.0203673
0.0201751
0.0198802
0.0195763
0.019305
0.0190765
0.018889
0.0187397
0.0186251
0.0185424
0.018489
0.0184627
0.0208036
0.0202669
0.0199952
0.0196553
0.0193427
0.0190767
0.0188567
0.0186787
0.0185381
0.0184306
0.018353
0.0183027
0.018278
0.0199529
0.0203535
0.0201463
0.0198031
0.0194526
0.0191461
0.0188893
0.0186789
0.0185097
0.0183765
0.0182748
0.0182013
0.0181536
0.0181301
0.0203349
0.0202755
0.0200096
0.0196372
0.0192864
0.0189878
0.0187402
0.0185384
0.0183767
0.0182494
0.0181522
0.0180819
0.0180362
0.0180137
0.0205585
0.0201807
0.0198651
0.0194974
0.0191551
0.0188651
0.0186257
0.0184311
0.0182751
0.0181523
0.0180586
0.0179907
0.0179465
0.0179247
0.0204428
0.0201419
0.0197737
0.0193973
0.0190604
0.0187766
0.0185431
0.0183536
0.0182017
0.0180822
0.0179908
0.0179247
0.0178816
0.0178603
0.0198738
0.0203353
0.0201125
0.0197186
0.019335
0.0190004
0.0187199
0.0184898
0.0183035
0.0181542
0.0180367
0.0179468
0.0178818
0.0178394
0.0178185
0.0198882
0.0202947
0.0200871
0.0196882
0.0193037
0.0189708
0.0186921
0.0184637
0.0182788
0.0181308
0.0180142
0.0179252
0.0178606
0.0178186
0.0177978
0.0185253
0.0185356
0.018643
0.0188698
0.0192008
0.0192002
0.0191476
0.0191255
0.0186581
0.019084
0.019124
0.0191113
0.0190819
0.0190832
0.0190818
0.0190781
0.0187991
0.0191281
0.0191155
0.0191083
0.0190794
0.0190275
0.0189915
0.018966
0.0189516
0.0192317
0.0191316
0.0191254
0.019075
0.0190086
0.0189442
0.0188812
0.0188312
0.0187964
0.018778
0.0192324
0.0191121
0.0191069
0.0190436
0.018954
0.0188604
0.0187744
0.0186997
0.0186424
0.0186041
0.0185846
0.0187995
0.019132
0.019107
0.0190325
0.0189235
0.0188072
0.0186966
0.0185994
0.0185188
0.0184581
0.0184179
0.0183978
0.0186588
0.0191287
0.0191259
0.019044
0.0189237
0.0187886
0.0186564
0.0185366
0.0184346
0.0183524
0.018291
0.0182505
0.0182303
0.0190847
0.0191162
0.0190756
0.0189544
0.0188075
0.0186566
0.0185156
0.018392
0.0182889
0.018207
0.0181463
0.0181062
0.0180863
0.0186439
0.0191249
0.0191091
0.0190094
0.018861
0.0186971
0.018537
0.0183922
0.0182678
0.0181653
0.0180845
0.0180249
0.0179857
0.0179661
0.0188709
0.0191124
0.0190803
0.018945
0.0187752
0.0186
0.0184351
0.0182892
0.0181654
0.0180642
0.0179849
0.0179264
0.0178879
0.0178688
0.019202
0.0190831
0.0190286
0.0188822
0.0187006
0.0185195
0.018353
0.0182074
0.0180848
0.017985
0.0179069
0.0178495
0.0178118
0.017793
0.0192016
0.0190845
0.0189928
0.0188323
0.0186435
0.018459
0.0182918
0.0181469
0.0180254
0.0179267
0.0178497
0.0177931
0.0177558
0.0177373
0.0185268
0.0191491
0.0190832
0.0189674
0.0187976
0.0186052
0.0184189
0.0182514
0.018107
0.0179863
0.0178884
0.0178121
0.017756
0.0177192
0.0177008
0.0185371
0.0191271
0.0190797
0.0189531
0.0187793
0.0185858
0.0183989
0.0182314
0.0180872
0.0179669
0.0178694
0.0177934
0.0177376
0.017701
0.0176828
0.0178074
0.0178154
0.017869
0.0180174
0.0182339
0.0182772
0.0182674
0.0182657
0.0178942
0.0181266
0.0182344
0.0182533
0.0182586
0.0182708
0.0182788
0.0182832
0.0179842
0.0182361
0.0182622
0.0182951
0.0183133
0.0183126
0.0183094
0.0183031
0.0182987
0.0182689
0.0182583
0.018302
0.0183151
0.0183152
0.0183073
0.0182918
0.0182755
0.0182616
0.0182534
0.0182694
0.0182531
0.018309
0.0183242
0.0183115
0.0182861
0.0182544
0.0182213
0.0181933
0.0181731
0.0181624
0.0179846
0.0182587
0.0183091
0.018327
0.0183087
0.0182694
0.0182214
0.0181724
0.0181275
0.0180916
0.0180668
0.018054
0.0178949
0.0182367
0.0183025
0.0183246
0.0183089
0.0182634
0.0182029
0.0181387
0.0180785
0.0180265
0.017986
0.0179585
0.0179445
0.0181274
0.018263
0.0183158
0.018312
0.0182697
0.0182031
0.0181271
0.0180524
0.0179853
0.0179292
0.0178862
0.0178572
0.0178425
0.01787
0.0182354
0.018296
0.0183159
0.0182868
0.0182219
0.0181391
0.0180526
0.0179713
0.0179002
0.0178418
0.0177975
0.0177677
0.0177528
0.0180186
0.0182544
0.0183143
0.0183083
0.0182552
0.018173
0.018079
0.0179856
0.0179004
0.017827
0.0177675
0.0177225
0.0176924
0.0176773
0.0182352
0.0182599
0.0183138
0.0182928
0.0182223
0.0181283
0.0180272
0.0179297
0.0178422
0.0177676
0.0177075
0.0176623
0.0176321
0.017617
0.0182787
0.0182722
0.0183107
0.0182767
0.0181944
0.0180926
0.0179868
0.0178868
0.017798
0.0177228
0.0176624
0.0176171
0.017587
0.0175718
0.017809
0.018269
0.0182803
0.0183046
0.0182629
0.0181743
0.0180679
0.0179594
0.017858
0.0177684
0.0176929
0.0176324
0.0175871
0.017557
0.0175419
0.0178171
0.0182674
0.0182849
0.0183003
0.0182549
0.0181638
0.0180552
0.0179456
0.0178435
0.0177536
0.017678
0.0176174
0.0175722
0.0175421
0.017527
0.0172973
0.0173039
0.0173171
0.0174098
0.0175351
0.0175851
0.0175901
0.0175961
0.0173396
0.0174836
0.0175654
0.0175963
0.0176174
0.0176365
0.017647
0.0176528
0.0173947
0.0175663
0.0176076
0.0176515
0.0176852
0.0177056
0.0177192
0.0177247
0.0177264
0.0175671
0.0175938
0.0176518
0.0176901
0.017719
0.0177385
0.0177484
0.0177525
0.0177525
0.0177516
0.0175674
0.0175982
0.0176687
0.0177144
0.0177396
0.0177522
0.0177542
0.0177493
0.0177423
0.0177358
0.0177319
0.0173952
0.0175942
0.0176688
0.017723
0.0177504
0.0177573
0.0177512
0.0177371
0.0177199
0.017704
0.017692
0.0176855
0.0173404
0.017567
0.0176523
0.0177147
0.0177506
0.017759
0.0177478
0.0177256
0.0176988
0.0176723
0.01765
0.017634
0.0176257
0.0174844
0.0176084
0.0176908
0.0177402
0.0177577
0.017748
0.0177212
0.0176864
0.0176502
0.0176173
0.0175906
0.0175719
0.0175623
0.0173182
0.0175665
0.0176524
0.0177198
0.0177529
0.0177517
0.0177259
0.0176866
0.0176425
0.0175998
0.0175624
0.0175327
0.0175123
0.0175019
0.0174111
0.0175975
0.0176863
0.0177395
0.0177551
0.0177379
0.0176993
0.0176506
0.0175999
0.0175528
0.0175124
0.0174809
0.0174593
0.0174484
0.0175365
0.0176188
0.0177069
0.0177496
0.0177503
0.0177208
0.017673
0.0176178
0.0175627
0.0175126
0.0174703
0.0174376
0.0174153
0.017404
0.0175868
0.0176381
0.0177207
0.0177538
0.0177435
0.017705
0.0176509
0.0175913
0.0175333
0.0174812
0.0174378
0.0174043
0.0173815
0.01737
0.017299
0.0175919
0.0176486
0.0177263
0.017754
0.0177371
0.0176931
0.017635
0.0175728
0.017513
0.0174599
0.0174157
0.0173817
0.0173587
0.0173471
0.0173057
0.0175979
0.0176546
0.0177281
0.0177532
0.0177334
0.0176868
0.0176268
0.0175633
0.0175027
0.017449
0.0174045
0.0173703
0.0173472
0.0173355
0.016864
0.0168714
0.0168651
0.0169245
0.0169915
0.0170372
0.0170462
0.0170539
0.0168833
0.0169845
0.0170316
0.0170628
0.0170877
0.0171103
0.0171223
0.0171289
0.0169178
0.0170322
0.0170755
0.0171193
0.0171555
0.017182
0.0172025
0.0172139
0.0172191
0.0170195
0.017058
0.0171164
0.0171618
0.0172007
0.0172318
0.017254
0.017269
0.0172773
0.0172808
0.0170198
0.0170657
0.017135
0.0171898
0.0172315
0.0172632
0.0172846
0.0172972
0.0173041
0.0173072
0.0173082
0.0169184
0.0170584
0.0171351
0.0172
0.017248
0.0172806
0.0173004
0.0173099
0.0173124
0.0173114
0.0173093
0.0173077
0.0168842
0.0170329
0.017117
0.0171902
0.0172482
0.0172865
0.0173069
0.017314
0.0173121
0.0173056
0.017298
0.0172917
0.017288
0.0169854
0.0170764
0.0171626
0.0172321
0.0172809
0.0173071
0.0173149
0.0173103
0.0172989
0.0172852
0.0172725
0.0172629
0.0172577
0.0168663
0.0170329
0.0171204
0.0172017
0.017264
0.017301
0.0173144
0.0173105
0.0172963
0.0172775
0.0172583
0.0172419
0.0172299
0.0172236
0.0169259
0.0170642
0.0171568
0.0172329
0.0172855
0.0173107
0.0173127
0.0172993
0.0172777
0.0172533
0.0172303
0.0172111
0.0171975
0.0171904
0.0169932
0.0170893
0.0171835
0.0172553
0.0172984
0.0173134
0.0173064
0.0172858
0.0172587
0.0172305
0.0172047
0.0171837
0.0171689
0.0171613
0.017039
0.0171121
0.0172041
0.0172705
0.0173054
0.0173125
0.017299
0.0172732
0.0172424
0.0172115
0.0171839
0.0171616
0.0171461
0.0171381
0.0168659
0.0170481
0.0171241
0.0172157
0.0172789
0.0173086
0.0173106
0.0172928
0.0172638
0.0172307
0.0171981
0.0171693
0.0171463
0.0171303
0.0171221
0.0168734
0.0170559
0.0171308
0.017221
0.0172826
0.0173098
0.0173092
0.0172893
0.0172588
0.0172245
0.0171911
0.0171618
0.0171384
0.0171222
0.0171139
0.016474
0.0164819
0.016472
0.0165107
0.0165429
0.0165808
0.0165904
0.016598
0.0164856
0.0165627
0.0165841
0.0166114
0.0166347
0.016657
0.0166693
0.0166762
0.0165087
0.0165846
0.0166244
0.0166643
0.0166982
0.0167246
0.0167464
0.0167599
0.0167665
0.0165667
0.0166063
0.01666
0.016705
0.0167453
0.0167797
0.0168065
0.0168265
0.0168389
0.0168448
0.016567
0.0166143
0.0166772
0.016732
0.0167788
0.0168186
0.0168496
0.016872
0.0168872
0.0168962
0.0169003
0.0165093
0.0166068
0.0166774
0.0167419
0.016797
0.0168417
0.016876
0.0168999
0.0169153
0.0169246
0.0169295
0.0169315
0.0164865
0.0165854
0.0166607
0.0167324
0.0167972
0.0168498
0.0168884
0.0169142
0.0169296
0.0169375
0.016941
0.016942
0.0169421
0.0165639
0.0166255
0.0167058
0.0167795
0.0168422
0.0168887
0.0169187
0.0169353
0.0169424
0.0169437
0.0169421
0.0169399
0.0169384
0.0164735
0.0165855
0.0166656
0.0167464
0.0168194
0.0168766
0.0169147
0.0169355
0.0169437
0.0169437
0.0169395
0.016934
0.0169293
0.0169265
0.0165123
0.016613
0.0166996
0.0167809
0.0168507
0.0169008
0.0169302
0.0169428
0.0169439
0.0169383
0.0169299
0.0169214
0.0169148
0.0169111
0.0165447
0.0166364
0.0167262
0.016808
0.0168732
0.0169164
0.0169384
0.0169443
0.0169399
0.0169301
0.0169185
0.0169079
0.0168999
0.0168955
0.0165829
0.016659
0.0167482
0.0168282
0.0168887
0.0169258
0.016942
0.016943
0.0169346
0.0169218
0.0169081
0.016896
0.016887
0.0168822
0.0164761
0.0165926
0.0166714
0.0167619
0.0168407
0.0168979
0.0169309
0.0169432
0.016941
0.0169301
0.0169154
0.0169003
0.0168872
0.0168777
0.0168726
0.0164841
0.0166003
0.0166784
0.0167686
0.0168468
0.0169021
0.0169331
0.0169435
0.0169396
0.0169275
0.0169119
0.0168961
0.0168826
0.0168728
0.0168676
0.0161188
0.0161262
0.0161189
0.0161444
0.0161563
0.0161865
0.0161953
0.0162019
0.0161291
0.0161906
0.0161947
0.0162176
0.0162377
0.0162578
0.0162692
0.0162757
0.0161458
0.0161955
0.0162303
0.0162651
0.0162951
0.0163191
0.0163396
0.016353
0.0163598
0.0161769
0.0162135
0.0162607
0.016302
0.0163399
0.0163733
0.0164006
0.0164219
0.0164357
0.0164426
0.0161772
0.0162207
0.0162759
0.0163265
0.0163725
0.0164138
0.0164482
0.016475
0.0164944
0.0165067
0.0165126
0.0161465
0.016214
0.0162761
0.0163355
0.0163903
0.0164389
0.0164795
0.0165111
0.0165341
0.0165497
0.0165592
0.0165636
0.0161301
0.0161964
0.0162615
0.016327
0.0163905
0.0164477
0.016495
0.0165315
0.0165576
0.0165751
0.0165863
0.0165926
0.0165955
0.0161918
0.0162315
0.016303
0.0163733
0.0164394
0.0164953
0.0165381
0.0165683
0.0165882
0.0166003
0.0166071
0.0166106
0.0166119
0.0161206
0.0161964
0.0162666
0.0163411
0.0164148
0.0164803
0.016532
0.0165686
0.0165923
0.0166061
0.0166133
0.0166165
0.0166176
0.0166177
0.0161463
0.0162194
0.0162968
0.0163748
0.0164495
0.0165121
0.0165583
0.0165887
0.0166064
0.0166152
0.0166184
0.0166186
0.0166178
0.016617
0.0161584
0.0162398
0.016321
0.0164023
0.0164764
0.0165353
0.0165761
0.016601
0.0166138
0.0166186
0.0166187
0.0166168
0.0166145
0.016613
0.0161889
0.01626
0.0163417
0.0164237
0.016496
0.0165511
0.0165874
0.016608
0.0166172
0.0166191
0.016617
0.0166135
0.0166102
0.0166081
0.0161211
0.0161978
0.0162715
0.0163552
0.0164378
0.0165085
0.0165608
0.016594
0.0166117
0.0166185
0.0166184
0.0166149
0.0166104
0.0166064
0.0166041
0.0161286
0.0162045
0.0162782
0.0163622
0.0164447
0.0165146
0.0165653
0.016597
0.0166132
0.0166188
0.0166178
0.0166136
0.0166086
0.0166043
0.0166019
0.0157928
0.0157991
0.0157956
0.015813
0.015812
0.0158359
0.0158433
0.0158487
0.0158035
0.0158538
0.0158465
0.0158653
0.0158822
0.0158993
0.0159091
0.0159149
0.0158165
0.0158478
0.0158774
0.0159072
0.015933
0.0159539
0.0159719
0.0159841
0.0159904
0.0158305
0.0158628
0.0159035
0.0159398
0.0159736
0.0160041
0.0160296
0.01605
0.0160636
0.0160705
0.0158308
0.0158692
0.0159167
0.0159615
0.0160038
0.0160429
0.016077
0.0161046
0.0161254
0.016139
0.0161456
0.0158174
0.0158634
0.0159169
0.0159695
0.0160202
0.0160677
0.0161096
0.0161441
0.0161706
0.0161896
0.0162017
0.0162074
0.0158047
0.0158489
0.0159044
0.0159621
0.0160205
0.0160764
0.0161262
0.0161674
0.0161993
0.0162226
0.0162385
0.0162484
0.016253
0.0158553
0.0158788
0.015941
0.0160046
0.0160683
0.0161265
0.0161752
0.016213
0.0162408
0.0162601
0.0162728
0.0162803
0.0162837
0.0157975
0.0158484
0.0159089
0.015975
0.0160441
0.0161105
0.0161679
0.0162133
0.0162468
0.01627
0.0162854
0.016295
0.0163004
0.0163027
0.0158152
0.0158675
0.015935
0.0160058
0.0160784
0.0161452
0.0162001
0.0162413
0.0162703
0.0162894
0.0163013
0.0163083
0.016312
0.0163135
0.0158145
0.0158846
0.0159561
0.0160315
0.0161063
0.016172
0.0162236
0.0162609
0.0162859
0.0163016
0.0163108
0.0163157
0.016318
0.0163188
0.0158386
0.0159019
0.0159743
0.0160521
0.0161272
0.0161912
0.0162398
0.0162738
0.0162957
0.0163088
0.0163159
0.0163193
0.0163207
0.016321
0.0157954
0.0158462
0.0159119
0.0159866
0.016066
0.016141
0.0162034
0.0162499
0.0162815
0.0163013
0.0163127
0.0163185
0.0163209
0.0163216
0.0163216
0.0158019
0.0158517
0.0159178
0.0159931
0.016073
0.0161478
0.0162094
0.0162547
0.0162851
0.0163039
0.0163144
0.0163195
0.0163214
0.0163218
0.0163217
0.0154903
0.0154956
0.0154953
0.0155078
0.0154978
0.0155167
0.0155226
0.0155271
0.0155018
0.0155437
0.0155285
0.0155438
0.0155577
0.0155718
0.0155799
0.0155848
0.0155125
0.0155304
0.0155554
0.0155805
0.0156022
0.0156197
0.015635
0.0156454
0.0156509
0.015515
0.0155431
0.0155778
0.015609
0.0156382
0.0156647
0.0156872
0.0157056
0.0157181
0.0157245
0.0155154
0.0155488
0.0155892
0.0156279
0.0156651
0.0157004
0.0157319
0.0157581
0.0157783
0.0157918
0.0157985
0.0155135
0.0155438
0.0155895
0.0156349
0.0156799
0.0157235
0.0157634
0.0157976
0.0158248
0.0158449
0.015858
0.0158644
0.0155032
0.0155316
0.0155788
0.0156286
0.0156802
0.0157317
0.0157798
0.0158216
0.0158556
0.0158816
0.0159001
0.0159119
0.0159175
0.0155454
0.015557
0.0156103
0.0156661
0.0157241
0.0157801
0.0158298
0.0158708
0.0159027
0.0159262
0.0159425
0.0159526
0.0159574
0.0154976
0.0155307
0.0155825
0.0156398
0.0157017
0.0157644
0.0158222
0.0158711
0.0159098
0.0159387
0.0159594
0.0159733
0.0159818
0.0159857
0.0155104
0.0155464
0.0156044
0.0156667
0.0157335
0.0157989
0.0158565
0.0159033
0.015939
0.0159649
0.0159829
0.0159947
0.0160017
0.0160049
0.0155008
0.0155605
0.0156222
0.0156895
0.0157599
0.0158263
0.0158828
0.0159271
0.0159599
0.0159832
0.0159989
0.0160089
0.0160147
0.0160173
0.01552
0.0155749
0.0156378
0.0157081
0.0157804
0.0158467
0.0159015
0.0159436
0.0159741
0.0159952
0.0160092
0.0160179
0.0160229
0.016025
0.0154935
0.015526
0.0155831
0.0156483
0.0157208
0.0157941
0.01586
0.0159136
0.015954
0.0159828
0.0160025
0.0160152
0.0160231
0.0160275
0.0160293
0.0154988
0.0155305
0.0155881
0.015654
0.0157273
0.015801
0.0158666
0.0159194
0.0159589
0.0159869
0.0160058
0.016018
0.0160255
0.0160296
0.0160313
0.0152062
0.0152105
0.0152129
0.0152231
0.0152058
0.0152208
0.0152253
0.0152289
0.0152186
0.0152542
0.0152333
0.0152457
0.0152569
0.0152682
0.0152745
0.0152786
0.0152278
0.0152361
0.0152569
0.0152778
0.0152956
0.0153098
0.0153222
0.0153307
0.0153353
0.0152226
0.0152471
0.0152764
0.0153026
0.0153271
0.0153494
0.0153684
0.015384
0.0153948
0.0154004
0.015223
0.015252
0.0152863
0.015319
0.0153507
0.0153811
0.0154087
0.0154321
0.0154505
0.015463
0.0154693
0.015229
0.0152478
0.0152867
0.0153252
0.0153637
0.0154019
0.0154379
0.0154695
0.0154955
0.0155151
0.0155281
0.0155345
0.0152202
0.0152376
0.0152776
0.0153198
0.015364
0.0154094
0.0154533
0.0154928
0.0155262
0.0155525
0.0155719
0.0155844
0.0155905
0.0152562
0.0152588
0.0153042
0.0153518
0.0154026
0.0154536
0.0155009
0.0155417
0.0155748
0.0156001
0.0156183
0.0156298
0.0156353
0.0152156
0.0152359
0.0152802
0.015329
0.0153826
0.015439
0.0154935
0.015542
0.0155823
0.015614
0.0156376
0.0156542
0.0156646
0.0156695
0.0152262
0.0152488
0.0152983
0.0153516
0.0154106
0.015471
0.0155272
0.0155755
0.0156143
0.0156441
0.0156658
0.0156808
0.0156901
0.0156944
0.0152095
0.0152603
0.0153129
0.015371
0.0154343
0.0154972
0.0155539
0.0156011
0.0156382
0.0156661
0.0156862
0.0156998
0.0157081
0.015712
0.0152247
0.0152719
0.0153255
0.0153868
0.015453
0.0155171
0.0155735
0.0156195
0.0156551
0.0156814
0.0157001
0.0157126
0.0157202
0.0157237
0.01521
0.0152293
0.0152783
0.0153341
0.0153978
0.0154656
0.0155303
0.0155862
0.0156313
0.0156657
0.0156909
0.0157086
0.0157205
0.0157276
0.0157308
0.0152144
0.0152331
0.0152825
0.0153389
0.0154036
0.0154721
0.0155369
0.0155925
0.015637
0.0156708
0.0156955
0.0157127
0.0157242
0.0157311
0.0157342
0.0149363
0.0149398
0.0149444
0.0149529
0.0149309
0.0149428
0.0149457
0.0149488
0.01495
0.0149809
0.0149561
0.0149659
0.0149746
0.0149833
0.0149878
0.0149911
0.0149583
0.01496
0.0149772
0.0149942
0.0150082
0.0150192
0.0150286
0.015035
0.0150387
0.0149481
0.0149696
0.0149943
0.0150157
0.0150355
0.0150533
0.0150684
0.0150809
0.0150897
0.0150944
0.0149486
0.0149737
0.0150028
0.0150298
0.0150557
0.0150807
0.0151037
0.0151235
0.0151393
0.0151502
0.0151558
0.0149596
0.0149704
0.0150032
0.0150351
0.0150669
0.0150989
0.0151297
0.0151575
0.0151808
0.0151987
0.0152108
0.0152169
0.0149519
0.0149617
0.0149956
0.0150307
0.0150673
0.0151056
0.0151436
0.0151791
0.0152099
0.0152349
0.0152537
0.0152661
0.0152722
0.0149834
0.0149794
0.0150175
0.015057
0.0150998
0.015144
0.0151866
0.0152248
0.0152569
0.0152823
0.0153008
0.0153129
0.0153187
0.0149477
0.0149593
0.014997
0.0150377
0.0150825
0.015131
0.0151799
0.0152252
0.0152645
0.0152966
0.0153213
0.0153391
0.0153505
0.0153559
0.0149568
0.0149697
0.0150115
0.0150559
0.0151059
0.0151591
0.015211
0.0152577
0.0152969
0.0153282
0.0153519
0.0153687
0.0153793
0.0153844
0.0149354
0.0149787
0.0150228
0.0150715
0.015126
0.0151827
0.0152364
0.0152833
0.0153219
0.0153522
0.0153748
0.0153906
0.0154006
0.0154053
0.0149476
0.0149877
0.0150325
0.0150843
0.0151421
0.015201
0.0152554
0.0153022
0.01534
0.0153693
0.0153909
0.015406
0.0154154
0.0154198
0.014941
0.0149506
0.0149923
0.0150391
0.0150932
0.0151532
0.0152133
0.0152681
0.0153145
0.0153517
0.0153802
0.0154012
0.0154157
0.0154248
0.015429
0.0149445
0.0149537
0.0149957
0.0150429
0.015098
0.0151589
0.0152195
0.0152744
0.0153205
0.0153574
0.0153855
0.0154061
0.0154204
0.0154292
0.0154334
0.0146771
0.0146802
0.0146872
0.0146943
0.0146695
0.0146789
0.0146801
0.0146828
0.014693
0.0147208
0.0146935
0.0147008
0.0147069
0.014713
0.0147157
0.0147184
0.014701
0.0146988
0.0147127
0.0147259
0.0147362
0.0147437
0.01475
0.0147543
0.0147571
0.0146884
0.0147072
0.0147276
0.0147445
0.0147594
0.0147725
0.0147835
0.0147927
0.0147991
0.0148027
0.0146888
0.0147104
0.0147349
0.0147564
0.0147764
0.0147956
0.0148135
0.014829
0.0148416
0.0148505
0.0148551
0.0147025
0.0147081
0.0147354
0.0147609
0.0147857
0.0148109
0.0148358
0.0148587
0.0148784
0.0148939
0.0149045
0.0149099
0.0146952
0.0147007
0.0147291
0.0147573
0.0147862
0.0148166
0.0148478
0.0148779
0.0149049
0.0149274
0.0149446
0.0149562
0.014962
0.0147237
0.0147153
0.0147466
0.0147779
0.0148119
0.0148483
0.0148847
0.0149187
0.0149482
0.0149722
0.0149902
0.0150021
0.0150079
0.0146912
0.0146974
0.0147292
0.014762
0.0147976
0.0148371
0.0148787
0.0149191
0.0149555
0.0149863
0.0150107
0.0150286
0.0150403
0.015046
0.0146991
0.0147054
0.0147401
0.0147757
0.0148159
0.0148605
0.0149061
0.014949
0.0149866
0.0150177
0.0150419
0.0150595
0.0150708
0.0150762
0.0146752
0.0147121
0.0147481
0.0147871
0.0148319
0.0148806
0.014929
0.0149733
0.0150114
0.0150422
0.0150659
0.015083
0.0150939
0.0150991
0.014685
0.0147185
0.0147547
0.0147966
0.0148448
0.0148964
0.0149465
0.0149916
0.0150296
0.0150601
0.0150833
0.0150999
0.0151104
0.0151155
0.014683
0.0146861
0.0147212
0.0147591
0.0148032
0.0148538
0.0149072
0.0149584
0.0150037
0.0150416
0.0150717
0.0150945
0.0151107
0.015121
0.0151259
0.0146861
0.0146887
0.0147238
0.0147619
0.0148069
0.0148586
0.0149128
0.0149644
0.0150098
0.0150475
0.0150774
0.0151
0.015116
0.0151262
0.015131
0.0144261
0.0144291
0.0144391
0.0144448
0.0144195
0.0144266
0.0144256
0.0144282
0.0144456
0.0144716
0.0144431
0.0144478
0.014451
0.0144543
0.014455
0.0144571
0.0144538
0.0144504
0.0144611
0.0144702
0.0144764
0.0144801
0.014483
0.0144849
0.0144867
0.0144415
0.0144575
0.0144739
0.014486
0.0144956
0.0145036
0.01451
0.0145155
0.0145194
0.0145219
0.014442
0.0144594
0.0144797
0.0144954
0.0145091
0.014522
0.0145342
0.0145451
0.0145542
0.0145608
0.0145643
0.0144555
0.0144586
0.0144801
0.014499
0.0145164
0.0145343
0.0145525
0.01457
0.0145855
0.0145981
0.0146069
0.0146115
0.0144482
0.0144526
0.0144755
0.0144964
0.0145169
0.0145389
0.0145625
0.0145864
0.0146087
0.014628
0.0146432
0.0146536
0.0146588
0.0144751
0.0144641
0.0144882
0.0145107
0.0145353
0.014563
0.0145924
0.0146211
0.0146471
0.0146689
0.0146856
0.0146968
0.0147024
0.0144441
0.0144479
0.0144741
0.0144985
0.0145242
0.014554
0.0145873
0.0146215
0.0146539
0.0146822
0.0147054
0.0147228
0.0147344
0.01474
0.014451
0.0144537
0.0144812
0.0145072
0.014537
0.014572
0.0146101
0.0146479
0.0146826
0.0147123
0.014736
0.0147536
0.0147652
0.0147708
0.0144271
0.0144576
0.0144855
0.0145142
0.0145483
0.0145879
0.0146297
0.0146701
0.0147061
0.0147364
0.0147602
0.0147778
0.0147892
0.0147947
0.0144345
0.0144612
0.0144887
0.01452
0.0145577
0.0146008
0.0146452
0.0146871
0.0147239
0.0147543
0.0147781
0.0147954
0.0148066
0.014812
0.0144337
0.0144331
0.0144617
0.0144906
0.0145241
0.0145645
0.0146099
0.0146559
0.0146986
0.0147357
0.0147661
0.0147898
0.0148069
0.014818
0.0148233
0.0144364
0.0144354
0.0144636
0.0144923
0.0145266
0.0145682
0.0146146
0.0146613
0.0147044
0.0147416
0.014772
0.0147955
0.0148126
0.0148236
0.0148288
0.0141807
0.0141838
0.0141978
0.0142026
0.0141801
0.0141841
0.0141801
0.0141831
0.0142055
0.0142317
0.014204
0.0142052
0.0142047
0.0142045
0.0142028
0.0142045
0.014215
0.0142145
0.014221
0.0142249
0.0142261
0.0142251
0.014224
0.0142232
0.0142241
0.0142074
0.0142191
0.0142307
0.0142371
0.0142405
0.0142427
0.0142441
0.0142455
0.0142468
0.0142481
0.0142078
0.0142185
0.0142342
0.0142434
0.01425
0.0142561
0.0142622
0.0142681
0.0142735
0.0142777
0.0142802
0.0142167
0.0142201
0.0142347
0.014246
0.0142551
0.014265
0.0142761
0.0142878
0.014299
0.0143085
0.0143155
0.0143192
0.0142083
0.0142167
0.0142324
0.0142444
0.0142556
0.0142684
0.0142839
0.0143012
0.0143187
0.0143345
0.0143474
0.0143564
0.014361
0.0142357
0.0142243
0.0142395
0.0142517
0.014266
0.0142844
0.0143062
0.0143294
0.0143515
0.0143707
0.0143859
0.0143963
0.0144015
0.0142043
0.0142099
0.0142293
0.0142438
0.0142584
0.0142777
0.0143022
0.0143298
0.0143576
0.0143831
0.0144046
0.0144212
0.0144323
0.0144378
0.0142111
0.0142128
0.0142318
0.0142468
0.0142651
0.0142899
0.01432
0.0143523
0.0143835
0.0144112
0.014434
0.0144513
0.0144627
0.0144683
0.0141908
0.0142135
0.0142317
0.0142489
0.0142716
0.0143015
0.0143362
0.0143719
0.0144053
0.0144343
0.0144578
0.0144754
0.014487
0.0144926
0.0141949
0.0142134
0.0142308
0.0142506
0.0142773
0.0143114
0.0143494
0.0143874
0.0144222
0.0144519
0.0144757
0.0144933
0.0145049
0.0145104
0.0141907
0.0141899
0.014211
0.0142298
0.014252
0.0142817
0.0143186
0.0143587
0.0143981
0.0144336
0.0144637
0.0144875
0.0145052
0.0145167
0.0145222
0.0141929
0.0141919
0.0142121
0.0142304
0.0142532
0.0142843
0.0143224
0.0143636
0.0144035
0.0144394
0.0144695
0.0144934
0.014511
0.0145225
0.014528
0.0139365
0.0139404
0.01396
0.0139652
0.0139528
0.013951
0.013942
0.0139461
0.0139689
0.0139997
0.0139762
0.0139716
0.0139657
0.0139606
0.0139555
0.0139571
0.0139828
0.0139914
0.0139914
0.0139869
0.0139813
0.0139745
0.0139685
0.0139646
0.0139645
0.0139953
0.0139906
0.0139948
0.0139938
0.0139895
0.0139848
0.0139806
0.0139778
0.0139764
0.0139767
0.0139957
0.0139842
0.0139944
0.0139956
0.013994
0.0139924
0.0139921
0.0139932
0.0139951
0.0139971
0.0139986
0.0139844
0.0139915
0.0139947
0.0139969
0.0139963
0.0139976
0.0140017
0.0140079
0.014015
0.0140218
0.0140271
0.01403
0.0139717
0.0139935
0.0139963
0.0139965
0.0139968
0.0139997
0.0140072
0.0140183
0.0140312
0.0140439
0.0140548
0.0140626
0.0140667
0.014004
0.0139946
0.0139961
0.0139955
0.0139986
0.0140077
0.0140223
0.0140403
0.0140589
0.0140759
0.0140897
0.0140993
0.0141041
0.013968
0.0139831
0.0139918
0.0139929
0.0139947
0.0140031
0.0140192
0.0140407
0.0140644
0.0140872
0.0141072
0.0141229
0.0141336
0.014139
0.0139774
0.0139816
0.013988
0.0139893
0.0139951
0.0140099
0.0140325
0.0140597
0.0140876
0.0141134
0.0141353
0.0141521
0.0141634
0.014169
0.0139691
0.0139778
0.0139826
0.013986
0.0139968
0.0140175
0.0140456
0.014077
0.0141079
0.0141356
0.0141586
0.014176
0.0141876
0.0141933
0.0139667
0.0139722
0.0139767
0.0139835
0.013999
0.0140246
0.0140568
0.0140911
0.0141239
0.0141527
0.0141763
0.0141941
0.0142058
0.0142115
0.0139507
0.0139548
0.0139655
0.0139721
0.013982
0.0140012
0.0140301
0.0140649
0.014101
0.0141349
0.0141643
0.0141882
0.0142061
0.0142178
0.0142235
0.0139521
0.0139567
0.0139658
0.0139715
0.0139821
0.0140028
0.0140332
0.0140692
0.0141061
0.0141405
0.0141702
0.0141941
0.014212
0.0142238
0.0142295
0.0136848
0.0136907
0.0137181
0.0137294
0.0137433
0.0137261
0.0137081
0.0137153
0.0137272
0.0137774
0.0137597
0.0137455
0.0137308
0.0137178
0.0137079
0.0137097
0.013756
0.0137818
0.0137701
0.0137508
0.0137352
0.013721
0.0137098
0.0137025
0.0137017
0.0138301
0.0137753
0.0137589
0.0137485
0.0137347
0.0137222
0.0137125
0.013706
0.0137024
0.0137019
0.0138304
0.0137618
0.0137551
0.0137437
0.013733
0.0137237
0.0137176
0.0137146
0.013714
0.0137145
0.0137154
0.0137572
0.0137758
0.0137553
0.0137441
0.0137323
0.0137253
0.0137232
0.013725
0.0137293
0.0137343
0.0137385
0.013741