/*--------------------------------*- C++ -*----------------------------------*\
| =========                 |                                                 |
| \\      /  F ield         | OpenFOAM: The Open Source CFD Toolbox           |
|  \\    /   O peration     | Version:  2.1.1                                 |
|   \\  /    A nd           | Web:      www.OpenFOAM.org                      |
|    \\/     M anipulation  |                                                 |
\*---------------------------------------------------------------------------*/
FoamFile
{
    version     2.0;
    format      ascii;
    class       volScalarField;
    location    "0.025";
    object      p;
}
// * * * * * * * * * * * * * * * * * * * * * * * * * * * * * * * * * * * * * //

dimensions      [0 2 -2 0 0 0 0];

internalField   nonuniform List<scalar> 
163952
(
0.0420762
0.0414999
0.0367638
0.031569
0.0303723
0.0277609
0.0271709
0.0268472
0.0370838
0.0327417
0.0277002
0.0252106
0.0239671
0.0231881
0.0228739
0.0227327
0.0341149
0.0283781
0.0248745
0.0232349
0.0223224
0.0217846
0.021446
0.0212658
0.0211803
0.0339847
0.0264859
0.0236516
0.0223052
0.02155
0.0210713
0.0207518
0.0205402
0.0204142
0.0203507
0.0339859
0.0259439
0.0231274
0.0218493
0.0211346
0.0206709
0.0203471
0.0201164
0.019957
0.0198565
0.0198041
0.0341152
0.026486
0.0231274
0.0217058
0.0209434
0.0204548
0.0201094
0.0198556
0.0196691
0.0195372
0.0194517
0.0194063
0.0370835
0.028378
0.0236516
0.0218493
0.0209434
0.0203851
0.019997
0.0197105
0.019495
0.0193346
0.0192197
0.0191443
0.0191039
0.0327418
0.0248745
0.0223051
0.0211346
0.0204548
0.019997
0.0196636
0.0194121
0.0192209
0.0190778
0.0189748
0.0189066
0.0188699
0.0367638
0.0277003
0.0232349
0.02155
0.0206709
0.0201094
0.0197105
0.0194121
0.0191842
0.0190101
0.0188792
0.0187846
0.0187218
0.0186878
0.0315691
0.0252106
0.0223224
0.0210713
0.0203471
0.0198556
0.019495
0.0192209
0.0190101
0.0188483
0.0187262
0.0186378
0.0185789
0.018547
0.0303723
0.0239671
0.0217846
0.0207518
0.0201164
0.0196692
0.0193346
0.0190778
0.0188792
0.0187262
0.0186105
0.0185265
0.0184704
0.01844
0.027761
0.0231882
0.021446
0.0205403
0.019957
0.0195372
0.0192198
0.0189748
0.0187846
0.0186378
0.0185265
0.0184455
0.0183915
0.0183621
0.0420762
0.0271709
0.0228739
0.0212658
0.0204142
0.0198565
0.0194517
0.0191444
0.0189066
0.0187218
0.0185789
0.0184704
0.0183915
0.0183387
0.01831
0.0414999
0.0268473
0.0227327
0.0211803
0.0203507
0.0198041
0.0194063
0.0191039
0.0188699
0.0186878
0.018547
0.01844
0.0183621
0.01831
0.0182817
0.0239022
0.0239591
0.0228969
0.0241061
0.0228371
0.0225231
0.0224783
0.0224575
0.0230015
0.0248155
0.0225027
0.0221906
0.0219301
0.0217394
0.0216647
0.021613
0.0237797
0.0225545
0.0221367
0.0217249
0.0213842
0.0211057
0.020921
0.020825
0.0207755
0.022524
0.0222338
0.0217967
0.0213555
0.0209629
0.0206518
0.0204157
0.0202561
0.020164
0.0201198
0.0225247
0.0221046
0.0216126
0.0211088
0.020682
0.0203397
0.0200803
0.0198891
0.0197574
0.0196772
0.0196387
0.0237798
0.022234
0.0216126
0.0210288
0.0205401
0.0201623
0.0198733
0.0196555
0.0194949
0.0193827
0.0193124
0.0192785
0.0230017
0.0225546
0.0217967
0.0211088
0.0205401
0.0201037
0.0197745
0.0195242
0.0193351
0.0191948
0.0190959
0.0190331
0.0190026
0.0248155
0.0221367
0.0213555
0.020682
0.0201623
0.0197745
0.0194818
0.0192588
0.0190894
0.0189633
0.0188738
0.0188165
0.0187885
0.0228969
0.0225027
0.0217249
0.0209629
0.0203397
0.0198733
0.0195242
0.0192588
0.0190553
0.0188999
0.0187838
0.018701
0.0186478
0.0186218
0.0241061
0.0221906
0.0213842
0.0206519
0.0200803
0.0196555
0.0193351
0.0190894
0.0188999
0.0187546
0.0186456
0.0185677
0.0185175
0.0184928
0.0228371
0.0219301
0.0211057
0.0204157
0.0198891
0.0194949
0.0191948
0.0189633
0.0187838
0.0186456
0.0185417
0.0184672
0.0184191
0.0183956
0.0225231
0.0217394
0.020921
0.0202561
0.0197574
0.0193827
0.0190959
0.0188738
0.018701
0.0185677
0.0184672
0.0183951
0.0183486
0.0183257
0.0239022
0.0224783
0.0216647
0.020825
0.020164
0.0196772
0.0193124
0.0190331
0.0188165
0.0186478
0.0185175
0.0184191
0.0183486
0.0183029
0.0182805
0.0239591
0.0224575
0.021613
0.0207756
0.0201198
0.0196387
0.0192785
0.0190026
0.0187885
0.0186218
0.0184929
0.0183956
0.0183257
0.0182805
0.0182583
0.0202585
0.0202728
0.0203375
0.0207195
0.0209429
0.0208273
0.0207198
0.0206793
0.0203443
0.0211882
0.020738
0.02066
0.0205653
0.0205266
0.0204973
0.0204719
0.0205547
0.0207518
0.0206515
0.020531
0.0203945
0.0202501
0.0201589
0.0201039
0.0200735
0.0209017
0.0206848
0.0205598
0.0203801
0.0201883
0.0200226
0.0198829
0.019783
0.0197207
0.0196895
0.0209024
0.0206396
0.0204868
0.0202654
0.0200407
0.0198382
0.0196723
0.0195411
0.0194466
0.0193867
0.0193572
0.0205547
0.020685
0.0204868
0.0202275
0.0199619
0.0197285
0.0195322
0.0193742
0.0192516
0.0191633
0.0191067
0.019079
0.0203444
0.0207518
0.0205599
0.0202654
0.0199619
0.0196911
0.019463
0.0192759
0.019127
0.0190127
0.0189303
0.0188772
0.0188512
0.0211882
0.0206515
0.0203801
0.0200407
0.0197285
0.019463
0.0192435
0.019066
0.0189258
0.0188187
0.0187414
0.0186914
0.0186668
0.0203376
0.020738
0.0205311
0.0201883
0.0198383
0.0195323
0.0192759
0.019066
0.0188973
0.0187645
0.0186632
0.0185901
0.0185426
0.0185193
0.0207195
0.02066
0.0203945
0.0200226
0.0196723
0.0193742
0.019127
0.0189258
0.0187645
0.0186377
0.0185409
0.018471
0.0184256
0.0184033
0.0209429
0.0205653
0.0202501
0.0198829
0.0195411
0.0192516
0.0190127
0.0188187
0.0186632
0.0185409
0.0184476
0.0183801
0.0183362
0.0183146
0.0208273
0.0205266
0.0201589
0.019783
0.0194466
0.0191633
0.0189303
0.0187414
0.0185901
0.018471
0.0183801
0.0183143
0.0182716
0.0182505
0.0202585
0.0207198
0.0204973
0.0201039
0.0197208
0.0193867
0.0191067
0.0188772
0.0186914
0.0185426
0.0184256
0.0183362
0.0182716
0.0182295
0.0182088
0.0202728
0.0206793
0.020472
0.0200736
0.0196895
0.0193572
0.019079
0.0188512
0.0186668
0.0185193
0.0184033
0.0183147
0.0182505
0.0182088
0.0181883
0.0189112
0.0189216
0.0190283
0.0192553
0.0195861
0.0195858
0.0195334
0.0195114
0.0190432
0.019469
0.019509
0.0194966
0.0194674
0.0194689
0.0194678
0.0194642
0.019184
0.0195128
0.0195004
0.0194935
0.0194649
0.0194133
0.0193777
0.0193524
0.0193382
0.0196162
0.0195162
0.0195103
0.0194602
0.0193942
0.0193301
0.0192675
0.0192178
0.0191832
0.019165
0.0196168
0.0194966
0.0194917
0.0194288
0.0193396
0.0192465
0.0191609
0.0190865
0.0190295
0.0189915
0.0189721
0.019184
0.0195164
0.0194916
0.0194175
0.019309
0.0191932
0.0190831
0.0189863
0.0189061
0.0188457
0.0188058
0.0187859
0.0190432
0.0195129
0.0195104
0.0194288
0.0193091
0.0191745
0.0190428
0.0189235
0.018822
0.0187401
0.0186792
0.0186389
0.0186189
0.019469
0.0195005
0.0194603
0.0193396
0.0191932
0.0190428
0.0189024
0.0187793
0.0186767
0.0185952
0.0185348
0.0184951
0.0184754
0.0190283
0.019509
0.0194935
0.0193942
0.0192465
0.0190831
0.0189235
0.0187793
0.0186555
0.0185535
0.0184732
0.0184139
0.018375
0.0183557
0.0192553
0.0194966
0.0194649
0.0193302
0.0191609
0.0189863
0.018822
0.0186767
0.0185535
0.0184528
0.0183739
0.0183158
0.0182777
0.0182588
0.0195861
0.0194674
0.0194133
0.0192675
0.0190865
0.0189061
0.0187402
0.0185952
0.0184732
0.0183739
0.0182963
0.0182393
0.0182019
0.0181833
0.0195858
0.0194689
0.0193777
0.0192178
0.0190296
0.0188457
0.0186792
0.0185348
0.0184139
0.0183158
0.0182393
0.0181831
0.0181462
0.018128
0.0189112
0.0195334
0.0194678
0.0193524
0.0191833
0.0189915
0.0188058
0.0186389
0.0184951
0.018375
0.0182777
0.0182019
0.0181462
0.0181097
0.0180916
0.0189216
0.0195114
0.0194643
0.0193382
0.019165
0.0189721
0.0187859
0.018619
0.0184754
0.0183557
0.0182588
0.0181833
0.018128
0.0180916
0.0180737
0.0181931
0.0182013
0.018254
0.0184026
0.0186189
0.0186625
0.0186529
0.0186513
0.018279
0.0185113
0.0186191
0.0186382
0.0186438
0.0186562
0.0186645
0.0186691
0.0183688
0.0186205
0.0186468
0.01868
0.0186985
0.0186982
0.0186953
0.0186893
0.0186851
0.018653
0.0186425
0.0186865
0.0187
0.0187004
0.0186931
0.0186779
0.018662
0.0186483
0.0186404
0.0186533
0.0186373
0.0186934
0.0187091
0.0186969
0.018672
0.0186407
0.0186081
0.0185804
0.0185605
0.01855
0.0183688
0.0186426
0.0186933
0.0187117
0.018694
0.0186552
0.0186078
0.0185592
0.0185149
0.0184794
0.0184548
0.0184423
0.018279
0.0186205
0.0186866
0.0187091
0.018694
0.0186491
0.0185892
0.0185257
0.0184659
0.0184145
0.0183744
0.0183472
0.0183334
0.0185113
0.0186468
0.0187
0.0186969
0.0186552
0.0185892
0.018514
0.0184399
0.0183733
0.0183177
0.0182751
0.0182464
0.018232
0.018254
0.0186191
0.01868
0.0187004
0.018672
0.0186078
0.0185257
0.0184399
0.0183593
0.0182887
0.0182309
0.0181869
0.0181575
0.0181428
0.0184026
0.0186382
0.0186985
0.0186931
0.0186407
0.0185593
0.0184659
0.0183733
0.0182887
0.018216
0.0181569
0.0181124
0.0180827
0.0180679
0.0186189
0.0186438
0.0186982
0.0186779
0.0186081
0.0185149
0.0184145
0.0183177
0.0182309
0.0181569
0.0180973
0.0180526
0.0180228
0.0180079
0.0186625
0.0186562
0.0186953
0.018662
0.0185804
0.0184794
0.0183744
0.0182751
0.0181869
0.0181124
0.0180526
0.0180078
0.017978
0.0179631
0.0181931
0.0186529
0.0186645
0.0186893
0.0186483
0.0185605
0.0184548
0.0183472
0.0182464
0.0181575
0.0180827
0.0180228
0.017978
0.0179482
0.0179334
0.0182013
0.0186513
0.0186691
0.0186851
0.0186404
0.01855
0.0184423
0.0183334
0.018232
0.0181428
0.0180679
0.0180079
0.0179631
0.0179334
0.0179186
0.0176828
0.0176895
0.017702
0.0177948
0.0179198
0.0179702
0.0179754
0.0179814
0.0177241
0.0178679
0.0179498
0.0179808
0.0180022
0.0180217
0.0180324
0.0180384
0.0177789
0.0179502
0.0179917
0.0180359
0.01807
0.0180908
0.0181048
0.0181107
0.0181126
0.0179508
0.0179775
0.0180358
0.0180745
0.0181039
0.0181239
0.0181343
0.0181388
0.0181392
0.0181386
0.017951
0.0179818
0.0180526
0.0180988
0.0181246
0.0181378
0.0181404
0.018136
0.0181294
0.0181233
0.0181196
0.0177789
0.0179776
0.0180525
0.0181073
0.0181353
0.0181429
0.0181375
0.018124
0.0181074
0.0180919
0.0180803
0.018074
0.0177241
0.0179502
0.0180358
0.0180988
0.0181353
0.0181445
0.0181341
0.0181126
0.0180864
0.0180605
0.0180387
0.0180231
0.018015
0.017868
0.0179918
0.0180745
0.0181246
0.0181429
0.0181341
0.0181081
0.018074
0.0180385
0.0180062
0.01798
0.0179617
0.0179524
0.017702
0.0179498
0.0180359
0.0181039
0.0181378
0.0181375
0.0181126
0.018074
0.0180307
0.0179887
0.0179519
0.0179228
0.0179028
0.0178926
0.0177948
0.0179808
0.01807
0.0181239
0.0181404
0.0181241
0.0180864
0.0180385
0.0179887
0.0179422
0.0179025
0.0178715
0.0178504
0.0178397
0.0179198
0.0180022
0.0180908
0.0181343
0.018136
0.0181074
0.0180605
0.0180062
0.0179519
0.0179025
0.0178609
0.0178287
0.0178068
0.0177958
0.0179702
0.0180217
0.0181049
0.0181388
0.0181294
0.0180919
0.0180387
0.01798
0.0179228
0.0178715
0.0178287
0.0177957
0.0177734
0.0177622
0.0176828
0.0179754
0.0180324
0.0181107
0.0181392
0.0181233
0.0180803
0.0180231
0.0179617
0.0179028
0.0178504
0.0178068
0.0177734
0.0177509
0.0177395
0.0176895
0.0179814
0.0180384
0.0181126
0.0181386
0.0181196
0.018074
0.018015
0.0179524
0.0178926
0.0178397
0.0177958
0.0177622
0.0177395
0.0177281
0.0172492
0.0172568
0.0172494
0.0173091
0.0173759
0.0174219
0.0174311
0.0174389
0.0172673
0.0173684
0.0174155
0.0174469
0.0174721
0.0174951
0.0175073
0.0175141
0.0173017
0.0174155
0.0174591
0.0175033
0.0175399
0.0175669
0.0175878
0.0175996
0.017605
0.0174027
0.0174412
0.0174998
0.0175458
0.0175852
0.0176169
0.0176396
0.0176552
0.0176639
0.0176677
0.0174029
0.0174488
0.0175183
0.0175737
0.0176161
0.0176485
0.0176706
0.0176838
0.0176913
0.0176948
0.0176961
0.0173017
0.0174413
0.0175183
0.0175837
0.0176325
0.0176659
0.0176866
0.0176968
0.0177
0.0176996
0.0176979
0.0176967
0.0172674
0.0174156
0.0174999
0.0175737
0.0176325
0.0176717
0.0176931
0.0177011
0.0177
0.0176942
0.0176872
0.0176813
0.017678
0.0173684
0.0174591
0.0175458
0.017616
0.0176659
0.0176931
0.0177019
0.0176983
0.0176877
0.0176747
0.0176626
0.0176534
0.0176486
0.0172494
0.0174155
0.0175033
0.0175852
0.0176485
0.0176866
0.0177011
0.0176983
0.017685
0.017667
0.0176486
0.0176327
0.0176213
0.0176153
0.0173091
0.0174469
0.0175399
0.0176169
0.0176706
0.0176968
0.0177
0.0176877
0.017667
0.0176436
0.0176213
0.0176027
0.0175896
0.0175828
0.0173759
0.0174721
0.0175669
0.0176396
0.0176839
0.0177
0.0176942
0.0176747
0.0176486
0.0176213
0.0175962
0.0175758
0.0175615
0.0175542
0.0174219
0.0174951
0.0175878
0.0176552
0.0176913
0.0176996
0.0176872
0.0176626
0.0176327
0.0176027
0.0175758
0.0175542
0.0175392
0.0175315
0.0172492
0.0174311
0.0175073
0.0175996
0.0176639
0.0176948
0.0176979
0.0176813
0.0176534
0.0176213
0.0175896
0.0175615
0.0175392
0.0175237
0.0175158
0.0172568
0.0174389
0.0175141
0.017605
0.0176677
0.0176961
0.0176967
0.017678
0.0176486
0.0176153
0.0175828
0.0175542
0.0175315
0.0175158
0.0175078
0.016859
0.016867
0.0168558
0.016895
0.0169267
0.0169651
0.0169749
0.0169826
0.0168691
0.0169462
0.0169674
0.0169949
0.0170186
0.0170414
0.017054
0.0170611
0.0168921
0.0169673
0.0170074
0.0170477
0.0170821
0.017109
0.0171313
0.0171453
0.0171522
0.0169493
0.0169889
0.0170428
0.0170883
0.0171293
0.0171644
0.0171919
0.0172126
0.0172254
0.0172316
0.0169494
0.0169967
0.0170599
0.0171153
0.0171629
0.0172035
0.0172354
0.0172586
0.0172745
0.0172841
0.0172885
0.0168921
0.0169889
0.0170599
0.017125
0.017181
0.0172268
0.0172621
0.017287
0.0173032
0.0173132
0.0173186
0.017321
0.0168691
0.0169673
0.0170428
0.0171153
0.017181
0.0172347
0.0172746
0.0173015
0.0173178
0.0173267
0.0173308
0.0173324
0.0173329
0.0169462
0.0170074
0.0170883
0.0171629
0.0172268
0.0172746
0.0173059
0.0173237
0.0173318
0.017334
0.0173332
0.0173315
0.0173304
0.0168558
0.0169674
0.0170477
0.0171293
0.0172035
0.0172621
0.0173015
0.0173237
0.017333
0.0173341
0.0173308
0.017326
0.0173218
0.0173195
0.016895
0.0169949
0.0170821
0.0171644
0.0172354
0.017287
0.0173178
0.0173318
0.0173341
0.0173296
0.017322
0.0173143
0.0173082
0.0173049
0.0169267
0.0170186
0.017109
0.0171919
0.0172586
0.0173032
0.0173267
0.017334
0.0173308
0.017322
0.0173114
0.0173015
0.017294
0.0172901
0.0169651
0.0170414
0.0171313
0.0172126
0.0172745
0.0173132
0.0173308
0.0173332
0.017326
0.0173143
0.0173015
0.0172901
0.0172817
0.0172773
0.0168589
0.0169749
0.017054
0.0171453
0.0172255
0.0172841
0.0173187
0.0173324
0.0173315
0.0173218
0.0173082
0.017294
0.0172817
0.0172727
0.017268
0.016867
0.0169826
0.0170611
0.0171522
0.0172316
0.0172885
0.017321
0.0173329
0.0173304
0.0173195
0.0173049
0.0172901
0.0172773
0.017268
0.0172632
0.0165034
0.016511
0.0165022
0.0165284
0.0165396
0.0165703
0.0165794
0.0165861
0.016512
0.0165734
0.0165774
0.0166005
0.016621
0.0166416
0.0166534
0.0166602
0.0165286
0.0165774
0.0166125
0.0166478
0.0166784
0.0167031
0.0167242
0.0167381
0.0167452
0.0165589
0.0165953
0.0166428
0.0166846
0.0167232
0.0167575
0.0167857
0.0168078
0.0168222
0.0168294
0.016559
0.0166023
0.0166578
0.0167091
0.016756
0.0167984
0.0168339
0.0168616
0.0168819
0.0168949
0.0169011
0.0165286
0.0165953
0.0166577
0.0167179
0.0167738
0.0168236
0.0168656
0.0168984
0.0169224
0.0169389
0.0169491
0.0169539
0.016512
0.0165774
0.0166428
0.0167091
0.0167738
0.0168323
0.0168812
0.016919
0.0169464
0.0169651
0.0169771
0.0169841
0.0169874
0.0165734
0.0166125
0.0166846
0.016756
0.0168236
0.0168812
0.0169256
0.0169573
0.0169785
0.0169917
0.0169994
0.0170035
0.0170053
0.0165022
0.0165774
0.0166478
0.0167232
0.0167984
0.0168656
0.016919
0.0169573
0.0169825
0.0169977
0.017006
0.0170101
0.0170118
0.0170123
0.0165284
0.0166005
0.0166784
0.0167575
0.0168339
0.0168984
0.0169464
0.0169785
0.0169977
0.0170078
0.0170121
0.0170132
0.017013
0.0170127
0.0165396
0.016621
0.0167031
0.0167857
0.0168616
0.0169224
0.0169651
0.0169917
0.017006
0.0170121
0.0170133
0.0170122
0.0170106
0.0170095
0.0165703
0.0166416
0.0167242
0.0168078
0.0168819
0.0169389
0.0169771
0.0169994
0.0170101
0.0170133
0.0170123
0.0170096
0.0170069
0.0170054
0.0165033
0.0165794
0.0166534
0.0167381
0.0168222
0.0168949
0.0169491
0.0169841
0.0170035
0.0170118
0.017013
0.0170106
0.0170069
0.0170036
0.0170018
0.0165108
0.0165861
0.0166602
0.0167452
0.0168294
0.0169011
0.0169539
0.0169874
0.0170053
0.0170123
0.0170127
0.0170095
0.0170054
0.0170018
0.0169997
0.016177
0.0161836
0.0161782
0.0161962
0.0161947
0.0162191
0.0162269
0.0162324
0.0161858
0.0162359
0.0162283
0.0162475
0.0162649
0.0162826
0.0162929
0.016299
0.0161987
0.0162287
0.0162588
0.0162891
0.0163156
0.0163372
0.0163561
0.0163689
0.0163756
0.0162117
0.0162437
0.0162846
0.0163216
0.0163563
0.0163879
0.0164144
0.0164358
0.0164502
0.0164575
0.0162118
0.0162499
0.0162976
0.0163432
0.0163866
0.0164272
0.0164626
0.0164914
0.0165133
0.0165277
0.0165348
0.0161987
0.0162437
0.0162976
0.0163511
0.0164031
0.0164522
0.0164957
0.0165317
0.0165596
0.0165797
0.0165926
0.0165988
0.0161858
0.0162287
0.0162846
0.0163432
0.0164031
0.0164608
0.0165124
0.0165554
0.0165889
0.0166136
0.0166307
0.0166413
0.0166464
0.0162359
0.0162588
0.0163216
0.0163866
0.0164522
0.0165124
0.0165632
0.0166029
0.0166324
0.016653
0.0166668
0.0166751
0.016679
0.0161782
0.0162283
0.0162891
0.0163563
0.0164272
0.0164957
0.0165554
0.0166029
0.0166383
0.0166632
0.0166799
0.0166906
0.0166967
0.0166996
0.0161962
0.0162475
0.0163156
0.0163879
0.0164626
0.0165317
0.0165889
0.0166324
0.0166632
0.0166839
0.0166972
0.0167052
0.0167097
0.0167116
0.0161947
0.0162649
0.0163372
0.0164144
0.0164914
0.0165596
0.0166136
0.016653
0.0166799
0.0166972
0.0167077
0.0167136
0.0167167
0.016718
0.0162191
0.0162826
0.0163561
0.0164358
0.0165133
0.0165797
0.0166307
0.0166668
0.0166906
0.0167052
0.0167136
0.0167181
0.0167202
0.016721
0.0161769
0.0162269
0.0162929
0.0163689
0.0164502
0.0165277
0.0165926
0.0166413
0.0166751
0.0166967
0.0167097
0.0167167
0.0167202
0.0167216
0.0167221
0.0161834
0.0162325
0.016299
0.0163756
0.0164575
0.0165348
0.0165988
0.0166464
0.016679
0.0166996
0.0167116
0.016718
0.016721
0.0167221
0.0167224
0.0158742
0.0158797
0.0158772
0.0158902
0.0158797
0.0158993
0.0159057
0.0159102
0.0158833
0.0159249
0.0159093
0.0159251
0.0159396
0.0159545
0.0159632
0.0159684
0.015894
0.0159102
0.0159356
0.0159614
0.0159839
0.0160024
0.0160188
0.0160299
0.0160359
0.0158954
0.015923
0.0159578
0.0159898
0.0160201
0.016048
0.0160719
0.0160914
0.0161049
0.0161118
0.0158955
0.0159285
0.0159692
0.0160087
0.0160473
0.0160842
0.0161174
0.0161452
0.0161668
0.0161813
0.0161886
0.015894
0.015923
0.0159691
0.0160156
0.0160622
0.0161077
0.0161497
0.0161858
0.0162147
0.0162362
0.0162503
0.0162573
0.0158833
0.0159102
0.0159579
0.0160087
0.0160621
0.0161159
0.0161664
0.0162104
0.0162465
0.0162742
0.0162941
0.0163069
0.0163131
0.0159249
0.0159356
0.0159898
0.0160473
0.0161077
0.0161664
0.0162186
0.016262
0.016296
0.0163212
0.0163388
0.0163499
0.0163552
0.0158772
0.0159093
0.0159614
0.0160201
0.0160842
0.0161497
0.0162104
0.016262
0.0163031
0.0163341
0.0163564
0.0163716
0.016381
0.0163854
0.0158902
0.0159251
0.0159839
0.016048
0.0161174
0.0161858
0.0162465
0.016296
0.0163341
0.016362
0.0163815
0.0163946
0.0164025
0.0164062
0.0158797
0.0159396
0.0160025
0.0160719
0.0161452
0.0162147
0.0162742
0.0163212
0.0163564
0.0163815
0.0163988
0.0164101
0.0164168
0.0164199
0.0158994
0.0159545
0.0160188
0.0160914
0.0161668
0.0162363
0.0162941
0.0163388
0.0163716
0.0163946
0.0164101
0.01642
0.0164258
0.0164285
0.015874
0.0159057
0.0159632
0.01603
0.0161049
0.0161813
0.0162503
0.0163069
0.0163499
0.016381
0.0164025
0.0164168
0.0164258
0.0164311
0.0164334
0.0158796
0.0159102
0.0159684
0.0160359
0.0161118
0.0161886
0.0162573
0.0163131
0.0163552
0.0163854
0.0164062
0.0164199
0.0164285
0.0164334
0.0164357
0.0155898
0.0155944
0.015594
0.0156043
0.0155869
0.0156028
0.0156078
0.0156115
0.0155993
0.0156343
0.0156128
0.015626
0.015638
0.0156503
0.0156574
0.0156617
0.0156086
0.0156144
0.0156358
0.0156575
0.0156764
0.0156919
0.0157057
0.0157151
0.0157202
0.0156022
0.0156257
0.0156552
0.0156823
0.0157081
0.0157321
0.0157529
0.0157701
0.0157821
0.0157883
0.0156022
0.0156306
0.0156651
0.0156988
0.0157322
0.0157646
0.0157945
0.0158199
0.0158401
0.0158538
0.0158608
0.0156086
0.0156257
0.0156651
0.0157048
0.0157453
0.015786
0.0158246
0.0158588
0.0158869
0.0159082
0.0159225
0.0159296
0.0155994
0.0156144
0.0156552
0.0156988
0.0157453
0.0157935
0.0158404
0.0158828
0.0159188
0.0159473
0.0159684
0.0159821
0.0159889
0.0156343
0.0156358
0.0156823
0.0157322
0.015786
0.0158404
0.015891
0.0159348
0.0159705
0.0159979
0.0160177
0.0160303
0.0160365
0.015594
0.0156128
0.0156575
0.0157081
0.0157646
0.0158246
0.0158828
0.0159348
0.0159781
0.0160123
0.0160379
0.016056
0.0160674
0.016073
0.0156043
0.015626
0.0156764
0.0157321
0.0157945
0.0158588
0.0159188
0.0159705
0.0160123
0.0160444
0.0160681
0.0160846
0.0160949
0.0160998
0.0155869
0.015638
0.0156919
0.0157529
0.0158199
0.0158869
0.0159473
0.0159979
0.0160379
0.0160681
0.01609
0.016105
0.0161144
0.0161188
0.0156028
0.0156503
0.0157057
0.0157701
0.0158401
0.0159082
0.0159684
0.0160177
0.016056
0.0160846
0.016105
0.016119
0.0161275
0.0161316
0.0155897
0.0156078
0.0156574
0.0157151
0.0157821
0.0158538
0.0159225
0.0159821
0.0160303
0.0160675
0.0160949
0.0161144
0.0161275
0.0161356
0.0161395
0.0155943
0.0156115
0.0156617
0.0157202
0.0157883
0.0158608
0.0159296
0.0159889
0.0160365
0.016073
0.0160998
0.0161188
0.0161316
0.0161395
0.0161432
0.0153198
0.0153236
0.0153248
0.0153337
0.015311
0.015324
0.0153277
0.0153308
0.01533
0.0153598
0.015334
0.0153449
0.0153547
0.0153647
0.0153702
0.0153738
0.0153384
0.0153364
0.0153543
0.0153723
0.015388
0.0154007
0.0154119
0.0154196
0.0154238
0.0153267
0.0153468
0.0153714
0.015394
0.0154155
0.0154356
0.0154531
0.0154677
0.0154779
0.0154833
0.0153268
0.0153513
0.0153803
0.0154086
0.0154366
0.0154642
0.0154901
0.0155125
0.0155305
0.0155429
0.0155493
0.0153384
0.0153468
0.0153803
0.0154138
0.0154482
0.0154833
0.0155174
0.0155483
0.0155743
0.0155945
0.0156081
0.0156149
0.01533
0.0153364
0.0153715
0.0154086
0.0154482
0.01549
0.0155319
0.015571
0.015605
0.0156328
0.0156536
0.0156675
0.0156743
0.0153598
0.0153543
0.015394
0.0154366
0.0154833
0.0155319
0.0155787
0.0156206
0.0156559
0.0156838
0.0157043
0.0157177
0.0157244
0.0153248
0.015334
0.0153723
0.0154155
0.0154642
0.0155174
0.015571
0.0156206
0.0156636
0.0156988
0.0157259
0.0157455
0.0157581
0.0157643
0.0153337
0.0153449
0.015388
0.0154356
0.0154901
0.0155483
0.015605
0.0156559
0.0156988
0.0157329
0.0157589
0.0157774
0.0157892
0.015795
0.015311
0.0153547
0.0154007
0.0154531
0.0155125
0.0155743
0.0156328
0.0156838
0.0157259
0.0157589
0.0157836
0.0158011
0.0158122
0.0158175
0.015324
0.0153647
0.0154119
0.0154677
0.0155305
0.0155945
0.0156536
0.0157043
0.0157455
0.0157774
0.0158011
0.0158177
0.0158282
0.0158333
0.0153197
0.0153278
0.0153702
0.0154196
0.0154779
0.0155429
0.0156081
0.0156675
0.0157177
0.0157581
0.0157892
0.0158122
0.0158282
0.0158383
0.0158432
0.0153235
0.0153308
0.0153738
0.0154238
0.0154833
0.0155493
0.015615
0.0156743
0.0157244
0.0157643
0.015795
0.0158175
0.0158333
0.0158432
0.015848
0.0150608
0.015064
0.0150669
0.0150745
0.0150485
0.0150591
0.0150615
0.015064
0.0150722
0.0150981
0.0150692
0.0150781
0.0150859
0.0150938
0.0150978
0.0151007
0.0150802
0.0150727
0.0150874
0.0151022
0.0151147
0.0151247
0.0151335
0.0151394
0.0151427
0.015066
0.0150827
0.015103
0.0151212
0.0151385
0.0151547
0.0151688
0.0151807
0.0151891
0.0151935
0.015066
0.0150871
0.0151112
0.0151341
0.0151568
0.0151794
0.015201
0.01522
0.0152354
0.0152462
0.0152518
0.0150802
0.0150827
0.0151111
0.0151387
0.0151669
0.0151961
0.0152251
0.0152521
0.0152752
0.0152934
0.0153059
0.0153123
0.0150722
0.0150727
0.015103
0.0151341
0.0151669
0.015202
0.015238
0.0152727
0.0153037
0.0153296
0.0153493
0.0153626
0.0153693
0.0150981
0.0150874
0.0151212
0.0151568
0.0151961
0.015238
0.0152798
0.0153184
0.0153518
0.0153789
0.0153992
0.0154126
0.0154193
0.0150669
0.0150692
0.0151022
0.0151385
0.0151794
0.0152251
0.0152727
0.0153184
0.0153593
0.0153937
0.0154209
0.015441
0.0154541
0.0154606
0.0150745
0.0150781
0.0151147
0.0151547
0.015201
0.0152521
0.0153037
0.0153518
0.0153937
0.0154282
0.0154549
0.0154744
0.0154871
0.0154933
0.0150485
0.0150859
0.0151247
0.0151689
0.01522
0.0152752
0.0153296
0.0153789
0.0154209
0.0154549
0.0154811
0.0154999
0.0155121
0.015518
0.0150591
0.0150938
0.0151335
0.0151807
0.0152354
0.0152934
0.0153493
0.0153992
0.015441
0.0154744
0.0154999
0.0155182
0.0155299
0.0155356
0.0150608
0.0150615
0.0150978
0.0151394
0.0151891
0.0152462
0.0153059
0.0153626
0.0154126
0.0154541
0.0154871
0.0155121
0.0155299
0.0155414
0.0155469
0.015064
0.015064
0.0151007
0.0151428
0.0151935
0.0152518
0.0153123
0.0153693
0.0154193
0.0154606
0.0154933
0.015518
0.0155356
0.0155469
0.0155525
0.0148104
0.0148133
0.0148178
0.0148247
0.014797
0.0148057
0.0148063
0.0148083
0.0148237
0.0148468
0.0148161
0.0148231
0.0148289
0.0148348
0.0148371
0.0148393
0.0148319
0.0148208
0.0148325
0.0148442
0.0148538
0.014861
0.0148673
0.0148714
0.0148738
0.0148184
0.0148311
0.014847
0.0148609
0.014874
0.0148862
0.014897
0.014906
0.0149124
0.0149159
0.0148184
0.0148358
0.0148548
0.0148723
0.0148896
0.0149071
0.0149242
0.0149395
0.0149522
0.0149611
0.0149658
0.0148319
0.0148311
0.0148548
0.0148765
0.0148983
0.0149213
0.0149449
0.0149675
0.0149873
0.0150032
0.0150143
0.0150199
0.0148237
0.0148208
0.014847
0.0148723
0.0148983
0.0149264
0.0149562
0.0149858
0.0150131
0.0150363
0.0150544
0.0150668
0.015073
0.0148468
0.0148325
0.0148609
0.0148896
0.0149213
0.0149562
0.0149921
0.0150265
0.0150571
0.0150825
0.0151018
0.0151148
0.0151213
0.0148178
0.0148161
0.0148442
0.014874
0.0149071
0.0149449
0.0149858
0.0150265
0.0150642
0.0150967
0.0151231
0.0151428
0.0151559
0.0151624
0.0148247
0.0148231
0.0148538
0.0148862
0.0149242
0.0149675
0.0150131
0.0150571
0.0150967
0.0151302
0.0151568
0.0151765
0.0151894
0.0151958
0.014797
0.0148289
0.014861
0.014897
0.0149395
0.0149873
0.0150363
0.0150825
0.0151231
0.0151568
0.0151833
0.0152027
0.0152154
0.0152216
0.0148057
0.0148348
0.0148673
0.014906
0.0149522
0.0150032
0.0150544
0.0151018
0.0151428
0.0151765
0.0152027
0.0152218
0.0152342
0.0152403
0.0148104
0.0148063
0.0148371
0.0148714
0.0149124
0.0149612
0.0150143
0.0150668
0.0151148
0.0151559
0.0151894
0.0152154
0.0152342
0.0152464
0.0152524
0.0148133
0.0148084
0.0148394
0.0148739
0.0149159
0.0149658
0.0150199
0.0150731
0.0151213
0.0151624
0.0151958
0.0152216
0.0152403
0.0152524
0.0152584
0.0145666
0.0145692
0.0145759
0.0145827
0.0145554
0.0145622
0.0145601
0.0145618
0.0145825
0.0146041
0.0145729
0.014578
0.0145815
0.0145852
0.0145856
0.0145872
0.0145914
0.0145788
0.0145876
0.014596
0.0146025
0.0146068
0.0146105
0.0146126
0.0146141
0.014585
0.01459
0.0146012
0.0146105
0.014619
0.0146272
0.0146344
0.0146406
0.014645
0.0146475
0.014585
0.0145955
0.0146088
0.0146205
0.014632
0.0146442
0.0146566
0.0146682
0.0146781
0.0146851
0.0146889
0.0145914
0.01459
0.0146088
0.0146241
0.0146392
0.0146559
0.0146739
0.0146919
0.0147083
0.0147217
0.0147312
0.0147361
0.0145824
0.0145788
0.0146012
0.0146205
0.0146392
0.0146601
0.0146835
0.0147077
0.014731
0.0147513
0.0147675
0.0147787
0.0147845
0.0146041
0.0145876
0.0146105
0.014632
0.0146559
0.0146835
0.0147133
0.014743
0.0147703
0.0147935
0.0148115
0.0148238
0.01483
0.0145759
0.0145729
0.014596
0.014619
0.0146442
0.0146739
0.0147077
0.014743
0.0147768
0.0148069
0.0148318
0.0148508
0.0148635
0.0148699
0.0145827
0.014578
0.0146025
0.0146272
0.0146566
0.0146919
0.014731
0.0147703
0.0148069
0.0148387
0.0148645
0.0148838
0.0148967
0.0149031
0.0145554
0.0145815
0.0146068
0.0146344
0.0146682
0.0147083
0.0147513
0.0147935
0.0148318
0.0148645
0.0148906
0.01491
0.0149229
0.0149292
0.0145622
0.0145853
0.0146106
0.0146406
0.0146781
0.0147217
0.0147676
0.0148115
0.0148508
0.0148838
0.01491
0.0149294
0.0149421
0.0149484
0.0145666
0.0145601
0.0145856
0.0146126
0.014645
0.0146852
0.0147312
0.0147788
0.0148238
0.0148636
0.0148967
0.0149229
0.0149421
0.0149547
0.014961
0.0145692
0.0145619
0.0145872
0.0146142
0.0146475
0.0146889
0.0147361
0.0147845
0.01483
0.0148699
0.0149031
0.0149292
0.0149484
0.014961
0.0149672
0.0143266
0.014329
0.0143389
0.0143466
0.0143239
0.014328
0.0143214
0.0143229
0.0143461
0.0143685
0.0143388
0.0143415
0.0143419
0.0143431
0.0143408
0.0143417
0.0143568
0.0143454
0.0143511
0.0143553
0.0143583
0.0143593
0.0143602
0.0143599
0.0143606
0.0143775
0.0143573
0.0143632
0.0143671
0.0143705
0.0143743
0.0143778
0.0143812
0.0143836
0.0143851
0.0143775
0.0143644
0.0143698
0.0143751
0.0143803
0.0143871
0.014395
0.0144029
0.0144101
0.0144154
0.0144183
0.0143567
0.0143573
0.0143698
0.014378
0.0143859
0.0143962
0.0144088
0.0144224
0.0144354
0.0144465
0.0144545
0.0144587
0.0143461
0.0143454
0.0143632
0.0143751
0.0143859
0.0143995
0.0144165
0.0144357
0.0144551
0.0144726
0.014487
0.014497
0.0145022
0.0143685
0.0143511
0.0143671
0.0143803
0.0143962
0.0144165
0.0144404
0.0144657
0.0144898
0.0145108
0.0145274
0.0145388
0.0145446
0.0143389
0.0143388
0.0143553
0.0143705
0.0143871
0.0144088
0.0144357
0.0144657
0.0144957
0.0145232
0.0145465
0.0145645
0.0145768
0.0145829
0.0143466
0.0143415
0.0143583
0.0143743
0.014395
0.0144224
0.0144551
0.0144898
0.0145232
0.014553
0.0145777
0.0145965
0.0146091
0.0146154
0.0143239
0.0143419
0.0143593
0.0143778
0.0144029
0.0144354
0.0144726
0.0145108
0.0145465
0.0145777
0.0146031
0.0146222
0.014635
0.0146413
0.014328
0.0143431
0.0143602
0.0143813
0.0144101
0.0144465
0.014487
0.0145274
0.0145645
0.0145965
0.0146222
0.0146415
0.0146543
0.0146606
0.0143266
0.0143215
0.0143408
0.0143599
0.0143836
0.0144154
0.0144545
0.014497
0.0145388
0.0145768
0.0146091
0.014635
0.0146543
0.014667
0.0146734
0.014329
0.0143229
0.0143417
0.0143606
0.0143852
0.0144183
0.0144587
0.0145022
0.0145446
0.0145829
0.0146154
0.0146413
0.0146606
0.0146734
0.0146797
0.0140853
0.0140875
0.0141022
0.0141139
0.0141053
0.0141033
0.0140883
0.0140898
0.0141101
0.0141399
0.0141135
0.0141126
0.0141082
0.0141057
0.0140996
0.0140999
0.0141256
0.0141191
0.0141212
0.014119
0.014117
0.0141138
0.0141122
0.0141096
0.0141094
0.0142222
0.0141353
0.0141288
0.0141263
0.014124
0.014123
0.0141228
0.0141239
0.0141245
0.0141253
0.0142222
0.0141507
0.0141351
0.0141312
0.0141301
0.0141315
0.0141352
0.01414
0.014145
0.0141489
0.0141512
0.0141255
0.0141352
0.014135
0.0141332
0.0141335
0.0141379
0.0141457
0.0141557
0.014166
0.0141752
0.0141821
0.0141857
0.0141101