/*--------------------------------*- C++ -*----------------------------------*\
| =========                 |                                                 |
| \\      /  F ield         | OpenFOAM: The Open Source CFD Toolbox           |
|  \\    /   O peration     | Version:  2.1.1                                 |
|   \\  /    A nd           | Web:      www.OpenFOAM.org                      |
|    \\/     M anipulation  |                                                 |
\*---------------------------------------------------------------------------*/
FoamFile
{
    version     2.0;
    format      ascii;
    class       volScalarField;
    location    "0.0045";
    object      p;
}
// * * * * * * * * * * * * * * * * * * * * * * * * * * * * * * * * * * * * * //

dimensions      [0 2 -2 0 0 0 0];

internalField   nonuniform List<scalar> 
10260
(
0.0863842
0.0826436
0.0824443
0.0825031
0.0824504
0.0824631
0.0824481
0.0824535
0.0824558
0.0824648
0.0824701
0.0824772
0.0824816
0.0824851
0.0824844
0.0870722
0.0828021
0.082395
0.0825078
0.0824335
0.0824624
0.0824407
0.082453
0.0824544
0.0824649
0.082469
0.0824763
0.0824806
0.0824849
0.0824852
0.0950671
0.0827598
0.0824514
0.0825326
0.0824588
0.0824715
0.0824597
0.0824677
0.0824651
0.0824713
0.0824738
0.0824783
0.0824806
0.0824812
0.0852281
0.0826688
0.0824363
0.0825076
0.0824653
0.0824705
0.0824681
0.0824644
0.0824668
0.0824676
0.0824713
0.0824734
0.082476
0.0824764
0.084648
0.0827077
0.0825065
0.082556
0.0824772
0.0825125
0.0824721
0.0824813
0.0824669
0.0824723
0.0824675
0.0824708
0.0824687
0.0824697
0.0863869
0.0828588
0.0825194
0.082569
0.0825244
0.0825013
0.0824963
0.0824758
0.0824756
0.0824664
0.082466
0.082464
0.0824639
0.0824638
0.0964431
0.0827488
0.0825699
0.0825211
0.0825512
0.0824896
0.0825065
0.0824755
0.0824802
0.0824631
0.0824667
0.0824547
0.0824556
0.09671
0.0828877
0.0825266
0.0826487
0.0825004
0.0825556
0.0824905
0.082496
0.0824699
0.0824643
0.0824583
0.0824549
0.0824523
0.0990892
0.0829914
0.0824178
0.0826911
0.0825034
0.0825536
0.082501
0.08251
0.0824692
0.0824727
0.0824414
0.082448
0.0888716
0.0938674
0.0829709
0.0824209
0.0826563
0.0825271
0.0825259
0.0824782
0.0824628
0.0824593
0.082459
0.0824606
0.104248
0.0934562
0.0829944
0.0825324
0.0825722
0.0825723
0.0825563
0.0824996
0.0825468
0.0824345
0.0824497
0.105759
0.0971312
0.0828913
0.0827604
0.08252
0.0825071
0.0824339
0.0824541
0.0825016
0.0824996
0.0963977
0.095222
0.0828796
0.0827162
0.0826754
0.082751
0.082384
0.0824374
0.0983044
0.0974845
0.0971165
0.0948874
0.0953075
0.0828168
0.0826602
0.0860318
0.0960316
0.0981507
0.0956648
0.0977418
0.0853683
0.0810152
0.0809781
0.0810351
0.081059
0.0810983
0.0811278
0.0811586
0.0811829
0.0812067
0.0812243
0.0812402
0.0812508
0.0812587
0.0812606
0.0860774
0.0811833
0.0809208
0.0810527
0.0810487
0.0811001
0.0811237
0.0811589
0.0811802
0.0812052
0.0812212
0.0812374
0.0812474
0.0812559
0.0812584
0.0925676
0.0811452
0.0809737
0.0810986
0.0810859
0.0811351
0.0811521
0.0811804
0.0811982
0.0812163
0.0812298
0.0812402
0.0812475
0.0812504
0.0833527
0.081146
0.0809879
0.0810868
0.0810933
0.0811273
0.0811532
0.0811715
0.0811938
0.0812065
0.0812214
0.0812295
0.0812372
0.0812397
0.0828885
0.0811092
0.0810332
0.0810957
0.0810874
0.0811336
0.0811394
0.0811688
0.0811795
0.0811971
0.0812064
0.081216
0.0812211
0.0812241
0.0852247
0.0812657
0.0810248
0.0811052
0.0811108
0.081114
0.081149
0.0811507
0.0811747
0.081179
0.0811932
0.0811975
0.0812047
0.0812063
0.0940636
0.0811781
0.0810811
0.0810754
0.0811341
0.0811157
0.0811527
0.0811507
0.0811683
0.0811709
0.0811796
0.0811806
0.0811834
0.0952801
0.0812842
0.0809901
0.0811838
0.0810609
0.0811564
0.0811169
0.0811487
0.0811389
0.0811523
0.0811504
0.081159
0.0811591
0.0966346
0.081432
0.0808825
0.0812219
0.0810674
0.0811402
0.0811125
0.0811342
0.0811289
0.0811348
0.0811242
0.0811282
0.087772
0.0915354
0.0814551
0.0808847
0.0812084
0.081088
0.0811134
0.0810877
0.0810928
0.0810842
0.0810978
0.0810971
0.103044
0.0911806
0.0814337
0.0809997
0.0810855
0.0811084
0.0810957
0.0810878
0.0810959
0.0810473
0.0810578
0.104552
0.0946524
0.0812871
0.0811822
0.0810232
0.081032
0.0809854
0.0809701
0.0810472
0.0810329
0.0942899
0.0928785
0.081266
0.0811053
0.0811417
0.081139
0.080912
0.0809716
0.096926
0.09534
0.0948458
0.0926867
0.0929492
0.081173
0.0810076
0.0847972
0.0946775
0.0966949
0.0931972
0.0952229
0.083991
0.079395
0.079517
0.0795724
0.0796765
0.0797447
0.0798165
0.0798725
0.0799187
0.0799575
0.0799866
0.0800111
0.0800273
0.0800396
0.0800435
0.0846879
0.0795292
0.079452
0.0795958
0.0796682
0.0797494
0.0798134
0.0798714
0.0799145
0.0799542
0.0799815
0.0800064
0.080022
0.0800346
0.080039
0.0907958
0.079526
0.0795263
0.0796585
0.0797262
0.0797987
0.0798546
0.0799016
0.0799399
0.0799692
0.0799936
0.0800099
0.0800222
0.080027
0.0817352
0.0795942
0.0795598
0.0796697
0.0797329
0.0797923
0.0798505
0.0798875
0.0799291
0.0799533
0.0799794
0.0799933
0.0800063
0.0800107
0.0813007
0.0794967
0.0795751
0.0796325
0.079702
0.0797676
0.0798171
0.079864
0.0798999
0.0799293
0.0799533
0.079969
0.0799816
0.0799865
0.0837764
0.0796699
0.079546
0.0796418
0.0797098
0.079737
0.07981
0.0798327
0.0798814
0.0798995
0.0799286
0.0799393
0.0799538
0.0799572
0.0923718
0.0796258
0.0796104
0.0796401
0.079726
0.079747
0.0798048
0.0798327
0.0798634
0.0798869
0.079901
0.0799146
0.0799191
0.0938257
0.0797077
0.0795037
0.0797267
0.0796274
0.07976
0.0797474
0.0798099
0.0798161
0.0798488
0.0798532
0.0798704
0.0798735
0.0950024
0.0798599
0.0794081
0.079738
0.0796302
0.0797277
0.0797374
0.0797667
0.0797914
0.0797969
0.0798134
0.0798174
0.0863835
0.0899181
0.07991
0.0794092
0.0797313
0.0796435
0.0797105
0.0797013
0.0797302
0.0797207
0.0797487
0.0797449
0.10171
0.0895816
0.0798603
0.0795068
0.0796112
0.0796426
0.0796308
0.0796674
0.0796547
0.0796665
0.0796754
0.103238
0.0930595
0.0797084
0.0796265
0.0795449
0.0795727
0.0795557
0.0795208
0.0795904
0.0795685
0.09278
0.0912597
0.0796662
0.0794915
0.079589
0.0795193
0.0794464
0.0795131
0.0955637
0.0938644
0.0932953
0.0911304
0.0913367
0.0795173
0.0793851
0.0833752
0.0932735
0.0952643
0.0915913
0.0936129
0.0825237
0.0777475
0.0780496
0.0781092
0.0783024
0.0784039
0.0785164
0.0785931
0.0786636
0.0787172
0.078757
0.0787897
0.0788112
0.0788274
0.0788335
0.0832011
0.0778301
0.0779846
0.0781276
0.0782972
0.0784083
0.0785136
0.0785966
0.0786587
0.0787122
0.0787502
0.0787833
0.0788041
0.0788205
0.078827
0.0891228
0.0778708
0.0780795
0.0782154
0.0783757
0.0784682
0.0785699
0.0786329
0.0786909
0.0787306
0.0787654
0.0787872
0.0788043
0.0788111
0.0801303
0.078029
0.0781202
0.0782538
0.0783828
0.0784707
0.0785602
0.0786137
0.0786738
0.0787088
0.0787456
0.0787652
0.0787832
0.0787894
0.0797097
0.0778537
0.0781106
0.0781646
0.0783272
0.0784118
0.0785066
0.0785693
0.07863
0.0786704
0.0787088
0.0787303
0.0787502
0.0787569
0.0822397
0.0780747
0.0780682
0.07817
0.078316
0.0783675
0.078481
0.0785247
0.0785978
0.0786295
0.0786733
0.0786902
0.0787118
0.0787168
0.090733
0.0780882
0.0781286
0.0782065
0.0783205
0.0783871
0.0784661
0.0785245
0.0785686
0.0786131
0.0786321
0.0786584
0.0786635
0.0922588
0.0781445
0.0779993
0.0782524
0.0782001
0.0783667
0.0783867
0.0784804
0.0785055
0.0785591
0.0785686
0.0785954
0.0785926
0.0934319
0.0782939
0.0779271
0.0782466
0.0782006
0.0783201
0.0783669
0.0784104
0.0784698
0.0784666
0.0785128
0.0785155
0.0848726
0.0883917
0.0783641
0.0779247
0.0782521
0.0782059
0.0783151
0.0783257
0.0783805
0.0783725
0.078406
0.0784024
0.100225
0.0880751
0.078292
0.0779991
0.0781262
0.0781698
0.0781619
0.0782512
0.0782117
0.0782949
0.0783006
0.101767
0.0915575
0.0781432
0.0780872
0.0780661
0.0781072
0.0781156
0.0780744
0.0781224
0.0781056
0.0912767
0.0897628
0.078072
0.0778492
0.0780242
0.0778645
0.0779789
0.0780455
0.0940703
0.0924509
0.0918649
0.0897144
0.0898625
0.0778209
0.0777402
0.0818685
0.0918441
0.0937935
0.0900902
0.0921502
0.0810206
0.0760224
0.0765879
0.0766496
0.0769488
0.0770791
0.0772361
0.0773397
0.0774218
0.0774864
0.0775358
0.0775758
0.0776022
0.0776218
0.0776298
0.08167
0.0759605
0.0765412
0.0766585
0.076953
0.0770857
0.0772371
0.0773305
0.0774135
0.0774796
0.0775273
0.0775678
0.0775935
0.0776134
0.0776215
0.087333
0.0760693
0.0766284
0.0767633
0.0770455
0.0771659
0.0772942
0.0773741
0.0774516
0.0775009
0.0775453
0.0775721
0.0775937
0.0776022
0.0784003
0.076423
0.0766923
0.0768509
0.0770499
0.0771506
0.0772802
0.0773509
0.0774287
0.0774738
0.0775203
0.0775451
0.0775677
0.0775755
0.0780148
0.0761288
0.0766495
0.0766974
0.0769711
0.0770612
0.0772091
0.0772872
0.0773717
0.0774222
0.0774737
0.0775006
0.0775272
0.0775355
0.0806068
0.0764115
0.0765978
0.0766994
0.0769351
0.0770094
0.0771653
0.0772303
0.0773263
0.0773711
0.0774282
0.0774508
0.0774791
0.0774859
0.0890234
0.0765279
0.0766246
0.0767815
0.0769228
0.0770422
0.0771413
0.07723
0.0772862
0.07735
0.0773729
0.0774129
0.0774217
0.0906048
0.0765125
0.0764847
0.0767664
0.0767795
0.0769803
0.0770414
0.0771642
0.0772073
0.077278
0.0772918
0.0773287
0.0773403
0.091798
0.0766686
0.0764169
0.07674
0.076779
0.0769212
0.0770079
0.0770592
0.0771482
0.0771638
0.0772358
0.0772355
0.0832875
0.0868388
0.0767804
0.0764151
0.0767644
0.0767788
0.0769315
0.0769707
0.0770474
0.0770418
0.0770827
0.0770773
0.0986723
0.0865447
0.0766645
0.0764825
0.0766217
0.0766975
0.0766943
0.076848
0.0767589
0.07695
0.0769466
0.100223
0.0900242
0.0765099
0.0765256
0.0765952
0.0766455
0.0766878
0.0766234
0.0766536
0.0766466
0.089748
0.0882736
0.076409
0.0761244
0.0764187
0.0760633
0.0765362
0.0765839
0.0925063
0.0911073
0.0905391
0.0883818
0.0883662
0.0759527
0.0760179
0.0802901
0.0904539
0.0923078
0.0885976
0.0907609
0.0794211
0.0742074
0.0751858
0.0752123
0.075632
0.0757745
0.075969
0.0760826
0.0761886
0.0762649
0.0763231
0.0763693
0.0764001
0.0764226
0.0764322
0.0801341
0.0738417
0.0752196
0.0752151
0.0756531
0.0757839
0.0759653
0.0760826
0.076181
0.0762569
0.076313
0.0763599
0.0763899
0.0764127
0.0764223
0.0851599
0.0740367
0.0752039
0.0753159
0.0757293
0.0758393
0.0760379
0.076131
0.0762234
0.0762809
0.0763334
0.0763646
0.07639
0.0763999
0.076467
0.0747988
0.0753154
0.0754742
0.0757512
0.0758805
0.0760218
0.0761034
0.0761954
0.076249
0.0763038
0.0763331
0.0763597
0.0763689
0.0761017
0.0743026
0.0752167
0.0752462
0.0756405
0.0757601
0.0759378
0.0760232
0.0761273
0.0761864
0.076249
0.0762805
0.0763128
0.0763227
0.0786755
0.0746314
0.0751498
0.0752428
0.0755955
0.075685
0.0758724
0.075955
0.0760699
0.0761267
0.0761947
0.0762226
0.0762562
0.0762643
0.0871791
0.0749513
0.075123
0.0753854
0.0755477
0.0757215
0.0758378
0.0759545
0.0760221
0.0761023
0.0761298
0.0761803
0.0761879
0.0887987
0.0747342
0.0749634
0.0752659
0.0753775
0.0756097
0.0757203
0.0758709
0.0759358
0.07602
0.0760357
0.0760811
0.0760812
0.0899658
0.0749039
0.0748986
0.0752069
0.0753766
0.0755458
0.0756832
0.0757569
0.0758791
0.0758352
0.0759623
0.0759675
0.0815566
0.0852401
0.0751066
0.0748954
0.0752628
0.0753832
0.075595
0.0756353
0.0757477
0.0757236
0.0757785
0.0757728
0.0970846
0.0849926
0.0748969
0.0749564
0.0751225
0.0752414
0.0752417
0.0754705
0.0753102
0.0756488
0.0756295
0.0986513
0.0884669
0.0747306
0.0749484
0.0751476
0.0752123
0.075311
0.0751987
0.0752105
0.0752096
0.0882031
0.0869114
0.0746291
0.0742982
0.0747947
0.0740313
0.0752154
0.0751824
0.0908475
0.0899221
0.089443
0.0871371
0.0865491
0.0738359
0.0742047
0.0785403
0.0892871
0.0908826
0.0872125
0.0895901
0.0764639
0.0722649
0.0738564
0.0738047
0.0743545
0.0744925
0.0747289
0.0748528
0.0749707
0.0750539
0.0751192
0.0751702
0.0752046
0.0752295
0.0752404
0.0778465
0.0714545
0.074011
0.0738262
0.0743937
0.074522
0.0747342
0.074851
0.0749614
0.0750446
0.0751078
0.0751595
0.0751933
0.0752185
0.0752293
0.0813688
0.0716252
0.0737703
0.0738998
0.0744421
0.0745999
0.0747983
0.0749027
0.0750066
0.0750713
0.07513
0.075165
0.0751933
0.0752044
0.0751121
0.0730956
0.0740301
0.0741209
0.0744844
0.0746007
0.0747791
0.0748713
0.0749743
0.0750354
0.0750963
0.0751297
0.0751592
0.0751698
0.0739089
0.0723985
0.0738508
0.0738462
0.0743809
0.0744619
0.0746822
0.0747789
0.0748984
0.0749646
0.0750354
0.0750709
0.0751075
0.0751189
0.0747278
0.0727623
0.0737586
0.0738082
0.074249
0.0743747
0.0745989
0.0747011
0.0748305
0.0748978
0.0749736
0.0750057
0.0750439
0.0750533
0.0850018
0.0733647
0.0736536
0.0740154
0.0742022
0.0744306
0.074562
0.0747006
0.0747776
0.07487
0.0749013
0.0749605
0.07497
0.0863911
0.0727672
0.0734396
0.0737569
0.0740104
0.0742669
0.0744291
0.074597
0.0746796
0.0747767
0.074796
0.0748492
0.0748515
0.0873703
0.072863
0.0733808
0.0736605
0.0740091
0.0741991
0.0743712
0.0744583
0.0745968
0.0745969
0.0747292
0.0747281
0.0791027
0.0836032
0.0732635
0.0733757
0.0737532
0.0740093
0.074242
0.0743805
0.0744812
0.0744332
0.0745029
0.0745001
0.095571
0.0834798
0.0728559
0.0734337
0.0736481
0.0738038
0.0738424
0.0741171
0.0738929
0.0743864
0.0743531
0.0971576
0.0871295
0.0727646
0.0733603
0.073756
0.073846
0.0740261
0.0737651
0.0738217
0.0738021
0.0867947
0.0855222
0.0727602
0.0723939
0.0730919
0.0716205
0.0740073
0.0738536
0.088953
0.0888124
0.0889559
0.0862394
0.0827924
0.0714504
0.0722626
0.0756963
0.0891217
0.0889319
0.0864474
0.0892723
0.0684398
0.0703662
0.0726915
0.0724706
0.073121
0.0732535
0.0735123
0.0736391
0.0737671
0.0738544
0.0739249
0.073979
0.0740162
0.0740428
0.0740545
0.0705233
0.0705153
0.0728609
0.0725777
0.0731606
0.0732749
0.0735113
0.0736355
0.0737559
0.0738438
0.0739123
0.0739673
0.074004
0.0740309
0.0740426
0.0666423
0.070257
0.0721082
0.0725827
0.0731483
0.073358
0.0735743
0.073693
0.0738031
0.0738734
0.0739359
0.0739738
0.074004
0.0740161
0.0776233
0.0707375
0.0727881
0.0727632
0.0732201
0.0733569
0.0735534
0.0736567
0.073767
0.0738343
0.073899
0.0739356
0.073967
0.0739787
0.0710723
0.0703341
0.0725553
0.072509
0.0730979
0.0732147
0.0734552
0.0735598
0.0736875
0.0737591
0.0738342
0.0738731
0.0739121
0.0739246
0.0629224
0.0706377
0.0724598
0.0724431
0.0729905
0.0731207
0.0733584
0.0734755
0.0736116
0.0736869
0.0737663
0.0738022
0.0738431
0.0738538
0.0806794
0.0719639
0.0722442
0.0727305
0.0729281
0.0731872
0.0733256
0.073475
0.0735586
0.0736555
0.0736917
0.073755
0.0737665
0.0587148
0.0707947
0.0720895
0.0723318
0.0727247
0.0729846
0.0731856
0.0733566
0.0734528
0.0735512
0.0735721
0.0736339
0.073638
0.0787591
0.0707812
0.0720707
0.0722346
0.0727234
0.0729247
0.0731174
0.0732112
0.0733539
0.073355
0.0735086
0.0735109
0.0926074
0.0826542
0.0712398
0.0720625
0.0723273
0.0727206
0.0729843
0.0730939
0.0732163
0.0731434
0.0732704
0.0732518
0.0943645
0.082345
0.0707784
0.0720807
0.0722268
0.0724366
0.072504
0.0727588
0.072578
0.0731566
0.0731189
0.0949649
0.0848471
0.0707945
0.0719675
0.0724603
0.0725497
0.0727835
0.0721037
0.0725742
0.0724685
0.0786383
0.0835412
0.0706374
0.0703293
0.0707325
0.0702537
0.0728579
0.0726893
0.0880049
0.0833653
0.0854364
0.0833689
0.0666388
0.070512
0.0703642
0.0992573
0.0658498
0.0676316
0.0847801
0.0852506
0.0722656
0.0703116
0.0716233
0.0714106
0.0719774
0.0720779
0.0723318
0.0724512
0.0725814
0.0726686
0.0727415
0.0727968
0.0728357
0.072863
0.0728752
0.072001
0.0705851
0.0718196
0.0715327
0.0720012
0.0720952
0.0723243
0.0724451
0.0725684
0.0726569
0.0727283
0.0727844
0.0728229
0.0728506
0.0728629
0.0704563
0.067637
0.070762
0.0710016
0.071587
0.0719529
0.0721892
0.0723825
0.0725075
0.0726159
0.0726892
0.0727524
0.0727921
0.0728229
0.0728357
0.0691878
0.0700612
0.0713421
0.0715646
0.0719935
0.0721574
0.0723544
0.0724655
0.0725769
0.0726479
0.0727134
0.0727521
0.0727843
0.0727966
0.0753949
0.0706839
0.0713968
0.0714574
0.0719184
0.0720374
0.0722642
0.072372
0.0724985
0.0725725
0.0726476
0.0726888
0.072728
0.0727414
0.0686053
0.0701074
0.0712922
0.0713229
0.0717825
0.071933
0.0721618
0.0722856
0.0724187
0.0724979
0.0725762
0.0726151
0.0726563
0.0726682
0.080631
0.0710684
0.0711043
0.0715932
0.0717516
0.0720053
0.0721386
0.0722852
0.0723709
0.0724645
0.0725063
0.0725676
0.072581
0.0691864
0.0707977
0.070935
0.0711562
0.0715647
0.0717968
0.072004
0.0721603
0.0722621
0.0723526
0.0723807
0.0724438
0.0724505
0.0780424
0.0698781
0.0709734
0.0711276
0.0715651
0.0717495
0.0719308
0.0720345
0.0721549
0.0721867
0.0723224
0.0723306
0.0716618
0.0804433
0.0689548
0.07096
0.0711551
0.071588
0.0717785
0.0719139
0.0719899
0.0719494
0.0720926
0.0720764
0.0737073
0.0799443
0.0698785
0.0709295
0.0711029
0.071316
0.0714511
0.0715597
0.0715831
0.0719983
0.0719758
0.0718976
0.0826059
0.0708011
0.0710821
0.0712691
0.0713867
0.0713368
0.0709975
0.0715298
0.0714089
0.0801218
0.0821137
0.0700997
0.0706774
0.0700564
0.0707584
0.0718169
0.0716216
0.0692031
0.0757253
0.0825864
0.069184
0.0676337
0.0705823
0.0703099
0.0785451
0.0775432
0.0806752
0.0825479
0.0724877
0.0698183
0.0706393
0.0704702
0.0708941
0.0709642
0.071186
0.0712913
0.071415
0.0714982
0.0715704
0.0716248
0.0716639
0.0716911
0.0717037
0.073022
0.0700507
0.0707372
0.0705502
0.0708931
0.0709719
0.0711726
0.0712827
0.0714007
0.0714859
0.0715568
0.0716122
0.071651
0.0716785
0.0716911
0.0734794
0.0689012
0.0704757
0.0702152
0.0706781
0.0708551
0.0710724
0.0712262
0.0713468
0.0714469
0.0715196
0.0715808
0.0716208
0.071651
0.0716639
0.0685558
0.0699279
0.0702955
0.0705489
0.0708546
0.0710189
0.0711916
0.0713019
0.071407
0.0714779
0.0715413
0.0715805
0.071612
0.0716246
0.0774062
0.0703074
0.0704244
0.0705319
0.0708049
0.0709256
0.0711136
0.0712176
0.0713338
0.0714064
0.0714776
0.0715192
0.0715565
0.0715703
0.0717196
0.0699369
0.0703045
0.070363
0.0706786
0.070822
0.0710172
0.0711353
0.0712559
0.0713333
0.0714063
0.0714463
0.0714854
0.071498
0.0799484
0.0703707
0.070147
0.0705655
0.0706745
0.0708896
0.0710045
0.071135
0.0712168
0.071301
0.0713459
0.0714001
0.0714146
0.0719943
0.0702844
0.0699482
0.0702442
0.0705295
0.0707122
0.0708886
0.0710162
0.071112
0.0711901
0.0712247
0.0712816
0.0712907
0.0783898
0.0696051
0.0701156
0.0703035
0.0705307
0.0706735
0.0708206
0.0709233
0.0710168
0.0710704
0.0711712
0.0711851
0.0744735
0.0685201
0.0689715
0.0701101
0.0702444
0.0705626
0.0706758
0.0708012
0.0708516
0.0708525
0.07097
0.070963
0.0873811
0.0685222
0.0696066
0.0699473
0.0701453
0.0703585
0.0705273
0.070545
0.0706751
0.0708909
0.0708929
0.0863912
0.0825853
0.0702827
0.070369
0.0702975
0.0704183
0.0702913
0.0702118
0.0705479
0.0704689
0.079695
0.0811421
0.0699321
0.0703025
0.0699239
0.0704725
0.0707348
0.0706379
0.0716945
0.0775646
0.0810845
0.0685525
0.0688981
0.0700484
0.0698169
0.0832479
0.080285
0.0810291
0.0811835
0.0718763
0.0691497
0.069645
0.0695293
0.06983
0.069884
0.0700643
0.0701554
0.0702664
0.0703433
0.0704118
0.0704637
0.0705017
0.070528
0.0705404
0.0723492
0.0692171
0.0696547
0.0695685
0.0698146
0.0698844
0.0700485
0.0701454
0.0702521
0.0703311
0.0703985
0.0704513
0.0704891
0.0705157
0.070528
0.0733124
0.0687722
0.0695256
0.0693749
0.0696953
0.0698
0.069978
0.0700983
0.0702071
0.0702959
0.0703645
0.0704218
0.0704605
0.0704891
0.0705017
0.0687696
0.0693298
0.0694141
0.0695934
0.0697847
0.0699239
0.0700632
0.0701638
0.0702575
0.0703246
0.0703836
0.0704215
0.0704512
0.0704636
0.0771486
0.0694578
0.0694985
0.0695762
0.0697477
0.0698537
0.0699994
0.0700924
0.0701927
0.07026
0.0703244
0.0703642
0.0703983
0.0704117
0.0718087
0.069331
0.0694251
0.0694558
0.0696591
0.0697701
0.0699208
0.070021
0.0701223
0.0701923
0.0702569
0.0702954
0.0703307
0.0703432
0.0795938
0.0695645
0.0693367
0.0696192
0.0696749
0.0698296
0.0699161
0.0700209
0.0700918
0.0701631
0.0702064
0.0702516
0.0702661
0.0721518
0.0695656
0.0692331
0.0694668
0.0695932
0.0697114
0.069829
0.0699201
0.0699982
0.070062
0.0700971
0.0701446
0.0701549
0.0778809
0.0693934
0.0694817
0.0695363
0.0695944
0.0696746
0.0697692
0.0698521
0.0699223
0.0699765
0.0700475
0.0700636
0.074512
0.068642
0.0691133
0.0694809
0.0694702
0.0696184
0.0696575
0.069745
0.0697825
0.0697979
0.069883
0.069883
0.0882685
0.0686374
0.0693941
0.0692446
0.0693362
0.069453
0.0695729
0.0695906
0.069693
0.0698129
0.069829
0.0863716
0.0817276
0.0695516
0.0695594
0.0694212
0.0694945
0.069411
0.0693721
0.0695665
0.0695281
0.0790169
0.0804387
0.0693272
0.0694541
0.0693266
0.069523
0.0696526
0.0696438
0.0720731
0.077482
0.0799108
0.0687667
0.0687696
0.069215
0.0691484
0.0841584
0.0803464
0.0804189
0.0802865
0.0710387
0.0683598
0.0686129
0.0685655
0.0687673
0.0688178
0.0689583
0.0690377
0.0691335
0.069203
0.0692655
0.0693138
0.0693496
0.0693745
0.0693861
0.0714511
0.0683809
0.068604
0.0685826
0.0687507
0.068815
0.0689436
0.0690279
0.0691203
0.0691915
0.0692532
0.0693021
0.0693377
0.0693626
0.0693743
0.0725929
0.068082
0.0685016
0.0684619
0.0686751
0.0687567
0.0688939
0.0689905
0.0690839
0.069161
0.0692233
0.0692752
0.0693113
0.0693377
0.0693497
0.0682821
0.0683832
0.0684933
0.0686073
0.0687398
0.0688489
0.068959
0.0690456
0.0691261
0.0691867
0.0692396
0.069275
0.069302
0.0693138
0.0765888
0.0685151
0.0685318
0.0685961
0.0687141
0.0687982
0.0689092
0.0689877
0.069071
0.0691305
0.0691866
0.0692231
0.0692531
0.0692655
0.0712075
0.0685205
0.0684952
0.0685325
0.0686601
0.0687394
0.0688506
0.0689298
0.0690111
0.0690707
0.0691257
0.0691607
0.0691912
0.0692029
0.0788917
0.068652
0.0684786
0.0686574
0.0686838
0.0687886
0.0688503
0.0689297
0.0689872
0.0690451
0.0690834
0.0691199
0.0691333
0.0715357
0.0686954
0.06844
0.0686012
0.0686415
0.0687176
0.0687882
0.0688501
0.0689083
0.0689582
0.0689896
0.0690273
0.0690374
0.0769893
0.0686793
0.0686168
0.0686449
0.068642
0.0686834
0.0687387
0.0687971
0.0688477
0.0688927
0.0689427
0.0689578
0.0737843
0.068522
0.0685661
0.0686156
0.0686018
0.0686564
0.0686589
0.0687123
0.0687381
0.0687552
0.0688138
0.068817
0.0883739
0.0685196
0.0686781
0.068439
0.0684768
0.0685304
0.0685938
0.0686052
0.0686732
0.0687492
0.0687663
0.0862969
0.0808814
0.0686915
0.0686485
0.0684924
0.0685291
0.068491
0.0684596
0.0685808
0.0685644
0.0782679
0.0796067
0.0685174
0.0685122
0.0683806
0.0684994
0.0686022
0.0686118
0.0714973
0.0766789
0.078965
0.0682797
0.0680798
0.0683791
0.0683585
0.0838455
0.0798343
0.0798221
0.0794083
0.0701106
0.0674751
0.0675709
0.0675779
0.0677044
0.0677572
0.0678636
0.0679337
0.0680138
0.0680757
0.0681312
0.0681751
0.0682079
0.0682309
0.0682418
0.0705084
0.067497
0.0675583
0.0675836
0.0676904
0.0677528
0.0678511
0.0679247
0.0680023
0.0680654
0.06812
0.0681643
0.0681968
0.0682196
0.0682306
0.0717628
0.0672862
0.067512
0.0675037
0.0676449
0.0677136
0.0678164
0.0678959
0.0679735
0.0680397
0.0680944
0.0681404
0.0681731
0.0681968
0.0682078
0.0674872
0.0674067
0.0675353
0.0675985
0.0676989
0.0677817
0.0678695
0.0679413
0.0680092
0.0680621
0.0681084
0.0681402
0.0681643
0.068175
0.0758474
0.0675501
0.0675419
0.0675984
0.0676802
0.0677462
0.0678311
0.0678954
0.0679635
0.0680144
0.068062
0.0680942
0.06812
0.0681312
0.0703897
0.0676196
0.0675233
0.0675694
0.0676478
0.067706
0.0677883
0.0678497
0.0679141
0.0679633
0.068009
0.0680395
0.0680652
0.0680757
0.0780305
0.0676714
0.0675294
0.0676535
0.06767
0.067744
0.0677897
0.0678496
0.0678951
0.0679409
0.0679731
0.068002
0.0680137
0.0706774
0.0677419
0.0675047
0.0676248
0.0676396
0.0676979
0.0677437
0.0677879
0.0678304
0.0678689
0.0678952
0.0679243
0.0679334
0.0760061
0.0676507
0.0676057
0.067649
0.0676396
0.0676695
0.0677054
0.0677453
0.0677808
0.0678155
0.0678504
0.067863
0.0728191
0.0677125
0.0675033
0.0676045
0.0676245
0.0676525
0.0676467
0.0676789
0.0676977
0.0677124
0.0677518
0.0677565
0.0878724
0.0676924
0.0676475
0.0675025
0.0675276
0.0675677
0.0675968
0.0675971
0.0676432
0.0676891
0.0677036
0.0857046
0.0800217
0.0677393
0.0676689
0.0675212
0.0675401
0.0675345
0.067501
0.0675819
0.067577
0.0774227
0.0786871
0.0676171
0.067548
0.0674047
0.06751
0.0675567
0.0675699
0.0706407
0.0757423
0.0780315
0.0674854
0.0672843
0.0674954
0.0674739
0.0831995
0.0791305
0.0790269
0.0784808
0.0691523
0.0665312
0.0665307
0.0665714
0.0666445
0.0666992
0.0667776
0.0668399
0.0669052
0.0669598
0.0670077
0.067047
0.0670762
0.0670972
0.0671075
0.0695472
0.0665489
0.0665158
0.0665732
0.0666333
0.0666944
0.0667675
0.066832
0.0668955
0.0669508
0.066998
0.0670373
0.067066
0.0670865
0.0670966
0.0708656
0.0664047
0.0665085
0.0665222
0.0666085
0.0666674
0.0667436
0.06681
0.066873
0.0669295
0.0669763
0.0670164
0.0670452
0.0670661
0.0670759
0.0665878
0.066425
0.0665421
0.0665758
0.066656
0.0667177
0.0667886
0.0668468
0.0669037
0.0669486
0.0669884
0.0670163
0.0670373
0.0670468
0.0750036
0.0665564
0.0665342
0.0665814
0.0666402
0.0666924
0.0667585
0.0668106
0.066866
0.0669087
0.0669486
0.0669762
0.0669979
0.0670077
0.0694939
0.0666636
0.0665243
0.0665725
0.0666203
0.0666645
0.0667266
0.0667746
0.0668259
0.0668659
0.0669036
0.0669293
0.0669507
0.0669598
0.077108
0.0666553
0.0665313
0.0666268
0.0666373
0.0666927
0.0667282
0.0667745
0.0668104
0.0668465
0.0668727
0.0668953
0.066905
0.0697386
0.0667474
0.0665144
0.0666038
0.0666126
0.0666595
0.0666925
0.0667263
0.0667579
0.0667881
0.0668094
0.0668317
0.0668395
0.07503
0.0666092
0.0665916
0.0666161
0.0666124
0.0666369
0.066664
0.0666917
0.066717
0.0667429
0.066767
0.0667771
0.071848
0.0667072
0.0664503
0.0665916
0.0666034
0.066626
0.0666194
0.0666393
0.0666551
0.0666665
0.0666937
0.0666986
0.0869692
0.0667833
0.0666143
0.0665127
0.0665298
0.0665712
0.0665802
0.0665747
0.0666073
0.0666323
0.0666438
0.0849529
0.0791535
0.0667453
0.0666535
0.0665227
0.0665327
0.0665408
0.0665209
0.066572
0.0665706
0.0765202
0.0777304
0.0666616
0.066555
0.0664233
0.066507
0.0665145
0.0665297
0.0697018
0.0747754
0.0770836
0.0665864
0.0664031
0.0665475
0.06653
0.0823962
0.0783083
0.0781303
0.0775341
0.0682241
0.0655337
0.0654881
0.0655481
0.0655873
0.0656422
0.0656985
0.0657538
0.0658059
0.0658536
0.0658941
0.0659286
0.0659542
0.0659735
0.0659838
0.0686205
0.0655453
0.0654741
0.0655484
0.0655785
0.0656379
0.0656907
0.0657472
0.065798
0.0658459
0.0658856
0.0659199
0.0659448
0.065963
0.0659722
0.0699787
0.0654381
0.065484
0.0655125
0.065565
0.0656182
0.0656741
0.0657302
0.0657805
0.0658285
0.0658676
0.0659021
0.0659268
0.065945
0.0659536
0.0655977
0.0654159
0.0655294
0.0655426
0.0656097
0.065655
0.0657131
0.0657595
0.065807
0.0658443
0.0658782
0.0659021
0.0659201
0.0659283
0.0741571
0.0655269
0.0655056
0.0655479
0.0655942
0.065636
0.0656888
0.0657308
0.0657761
0.0658112
0.0658444
0.0658676
0.0658857
0.0658939
0.0685923
0.0656474
0.0654989
0.0655486
0.0655807
0.0656157
0.0656643
0.0657023
0.0657437
0.065776
0.0658069
0.0658283
0.0658459
0.0658535
0.0762246
0.0656043
0.0655042
0.065584
0.0655922
0.0656365
0.0656651
0.0657022
0.0657306
0.0657593
0.0657802
0.0657979
0.0658057
0.0688123
0.0657054
0.0654952
0.0655626
0.0655714
0.0656104
0.0656364
0.0656641
0.0656884
0.0657128
0.0657298
0.065747
0.0657535
0.0741266
0.0655771
0.0655677
0.0655648
0.0655712
0.0655919
0.0656154
0.0656355
0.0656545
0.0656735
0.0656904
0.065698
0.0709572
0.0658187
0.0654185
0.0655612
0.0655608
0.0655834
0.0655801
0.0655937
0.065609
0.0656176
0.0656374
0.0656418
0.0867552
0.065631
0.06555
0.0654905
0.065503
0.0655477
0.0655471
0.0655417
0.0655641
0.0655778
0.0655865
0.0841223
0.0783364
0.065703
0.0656031
0.0654978
0.0655046
0.0655284
0.0655115
0.0655474
0.0655473
0.0756517
0.0768468
0.0656461
0.0655259
0.0654147
0.0654828
0.065473
0.0654871
0.068783
0.0738565
0.0761997
0.0655966
0.0654367
0.0655442
0.0655327
0.081557
0.077506
0.0772555
0.0766463
0.0768836
0.0646388
0.0763415
0.0652503
0.0759565
0.066944
0.0674855
0.0754034
0.0641714
0.0663308
0.0660382
0.0687611
0.0777532
0.0806313
0.0689446
0.0770352
0.0664166
0.0774106
0.067726
0.0652917
0.0554769
0.0661807
0.0672667
0.059673
0.078742
0.0688073
0.0752081
0.06813
0.0668646
0.0669056
0.0554534
0.0647761
0.0604141
0.0746978
0.0665897
0.0759582
0.0756695
0.0582876
0.0600347
0.0752983
0.060107
0.0583299
0.0756791
0.0759634
0.0666011
0.0604239
0.0747027
0.0647834
0.0554615
0.0669247
0.0668608
0.068178
0.0687958
0.0596344
0.0787777
0.0673398
0.0753319
0.0664019
0.057255
0.0655668
0.0678598
0.0792237
0.0665894
0.0689703
0.078752
0.0807548
0.0794382
0.0711902
0.0684712
0.0684773
0.0661132
0.0756158
0.0675815
0.0671689
0.0776392
0.0654679
0.0648551
0.0780053
0.07853
0.098346
0.0867849
0.097836
0.0778935
0.0672944
0.0775719
0.0678506
0.0964088
0.095771
0.0773454
0.0694772
0.0698147
0.0885536
0.0980859
0.0770387
0.0666275
0.0959662
0.0959458
0.0687829
0.0688414
0.0936261
0.0856519
0.0711733
0.0786389
0.0948804
0.0865715
0.0971191
0.0806229
0.070538
0.0781027
0.0686349
0.0962788
0.0975225
0.0782252
0.0697197
0.068456
0.107674
0.0982557
0.0587385
0.0666816
0.102609
0.086439
0.0952178
0.0693369
0.0630549
0.0790639
0.0701626
0.0897045
0.075055
0.0965859
0.0963958
0.0684087
0.069274
0.0697442
0.108999
0.0570962
0.101658
0.0906304
0.0971369
0.0671742
0.0638348
0.0744903
0.0686281
0.0884678
0.10579
0.07596
0.0770164
0.0589947
0.0885743
0.104198
0.0606898
0.0768435
0.0607521
0.0884572
0.0888702
0.0590322
0.0770287
0.0759668
0.101656
0.0906318
0.0990943
0.0686373
0.0638456
0.0744979
0.0671841
0.109002
0.0571024
0.0965836
0.0967062
0.0697541
0.069276
0.0684109
0.102573
0.0864465
0.0964733
0.070177
0.0630546
0.0790745
0.0693383
0.0897363
0.0750595
0.107353
0.0666739
0.0586858
0.0961932
0.0867981
0.0684065
0.0696985
0.0782827
0.0948511
0.0868332
0.0846264
0.0686201
0.0705411
0.0781364
0.0805821
0.0937954
0.0786786
0.0711455
0.0960809
0.0687948
0.0687453
0.0885521
0.0666191
0.0770169
0.0963223
0.0873392
0.0697804
0.069457
0.077361
0.0982609
0.0870804
0.086722
0.0678312
0.0672685
0.0775934
0.0779255
0.0957041
0.0858081
0.0952465
0.0767315
0.0668853
0.0764092
0.0673797
0.0938376
0.0932195
0.0761735
0.068908
0.0691288
0.0864254
0.0966919
0.0760837
0.0654356
0.0947268
0.094675
0.0674902
0.0675896
0.0923779
0.0847824
0.0698701
0.0773561
0.0925421
0.0854149
0.0948601
0.0792431
0.0697903
0.0768188
0.0680755
0.0936997
0.0953511
0.0769431
0.0689498
0.0677566
0.106172
0.0969232
0.0573882
0.0653991
0.100045
0.0844548
0.0928809
0.0683569
0.062522
0.07782
0.0693832
0.0885637
0.073721
0.0941922
0.0942903
0.0670959
0.0685257
0.0688741
0.107651
0.0558572
0.099018
0.089273
0.0946585
0.066318
0.0632613
0.0731996
0.0678641
0.0864962
0.104587
0.07473
0.07606
0.0576656
0.086609
0.102984
0.0593438
0.0758968
0.0594068
0.0864858
0.0877707
0.0577019
0.0760711
0.0747356
0.0990141
0.0892743