/*--------------------------------*- C++ -*----------------------------------*\
| =========                 |                                                 |
| \\      /  F ield         | OpenFOAM: The Open Source CFD Toolbox           |
|  \\    /   O peration     | Version:  2.1.1                                 |
|   \\  /    A nd           | Web:      www.OpenFOAM.org                      |
|    \\/     M anipulation  |                                                 |
\*---------------------------------------------------------------------------*/
FoamFile
{
    version     2.0;
    format      ascii;
    class       volScalarField;
    location    "0.0045";
    object      Th;
}
// * * * * * * * * * * * * * * * * * * * * * * * * * * * * * * * * * * * * * //

dimensions      [0 0 0 0 0 0 0];

internalField   nonuniform List<scalar> 
10260
(
4.79877e-13
1.17773e-14
1.00089e-14
1.00002e-14
1.00001e-14
1.00001e-14
1.00002e-14
1.00002e-14
1.00002e-14
1.00001e-14
1e-14
1.00001e-14
1.00001e-14
1.00002e-14
1.00002e-14
5.28319e-13
1.44252e-14
1.00232e-14
1.00002e-14
1.00001e-14
1e-14
1e-14
1e-14
1e-14
1e-14
1e-14
1e-14
1.00001e-14
1.00001e-14
1e-14
1e-14
1e-14
1e-14
1e-14
1e-14
1e-14
1e-14
1e-14
1e-14
1e-14
1e-14
1e-14
1e-14
1.00002e-14
1.54279e-14
1.0124e-14
1.00002e-14
1e-14
1e-14
1e-14
1e-14
1e-14
1e-14
1.00001e-14
1.00001e-14
1e-14
1.00001e-14
1.00002e-14
6.94068e-14
1.02401e-14
1.00006e-14
1e-14
1e-14
1e-14
1e-14
1.00001e-14
1.00002e-14
1.00002e-14
1.00001e-14
1.00001e-14
1.00002e-14
1.00001e-14
3.29214e-13
1.55088e-14
1.0018e-14
1e-14
1e-14
1e-14
1e-14
1.00002e-14
1.00001e-14
1e-14
1.00001e-14
1.00001e-14
1.00001e-14
1.00001e-14
1.09138e-14
1.02e-14
1.00001e-14
1e-14
1e-14
1e-14
1.00001e-14
1e-14
1e-14
1.00001e-14
1.00001e-14
1e-14
1.00002e-14
1e-14
1.9692e-14
1.00229e-14
1.00001e-14
1e-14
1e-14
1e-14
1.00001e-14
1.00001e-14
1.00001e-14
1.00001e-14
1e-14
1.00002e-14
2.86663e-14
1.13007e-14
1.00024e-14
1.00001e-14
1e-14
1e-14
1e-14
1e-14
1.00001e-14
1.00001e-14
1e-14
1.00002e-14
1.08046e-12
1e-14
1.13697e-14
1.00026e-14
1.00001e-14
1e-14
1e-14
1e-14
1e-14
1e-14
1e-14
1.00001e-14
2.40375e-13
1e-14
1.12962e-14
1.0023e-14
1.00002e-14
1e-14
1e-14
1e-14
1e-14
1e-14
1e-14
1.39935e-13
1.32528e-14
1.96892e-14
1.02007e-14
1.00193e-14
1.00006e-14
1.00003e-14
1.00001e-14
1.00001e-14
1.00002e-14
7.46553e-14
1e-14
1.55963e-14
1.02422e-14
1.01245e-14
1e-14
1.00238e-14
1.001e-14
3.75937e-14
4.91794e-14
1.02878e-14
1e-14
1e-14
1.44899e-14
1.18686e-14
1.46318e-12
1e-14
1e-14
2.15575e-14
2.47494e-14
4.85536e-13
1.15788e-14
1.00042e-14
1.00002e-14
1.00002e-14
1.00002e-14
1.00003e-14
1.00003e-14
1.00003e-14
1.00001e-14
1e-14
1e-14
1.00001e-14
1.00003e-14
1e-14
5.38145e-13
1.40546e-14
1.00123e-14
1.00001e-14
1.00001e-14
1e-14
1e-14
1e-14
1e-14
1e-14
1e-14
1e-14
1e-14
1e-14
1e-14
1e-14
1e-14
1e-14
1e-14
1e-14
1e-14
1e-14
1e-14
1e-14
1e-14
1e-14
1e-14
1e-14
1.00002e-14
1.50301e-14
1.01039e-14
1.00001e-14
1e-14
1e-14
1e-14
1e-14
1e-14
1e-14
1e-14
1.00001e-14
1e-14
1e-14
1.00001e-14
6.69949e-14
1.02014e-14
1.00003e-14
1e-14
1e-14
1e-14
1e-14
1.00001e-14
1.00001e-14
1.00001e-14
1.00001e-14
1.00001e-14
1.00001e-14
1e-14
3.34129e-13
1.52323e-14
1.00106e-14
1e-14
1e-14
1e-14
1e-14
1.00001e-14
1.00001e-14
1e-14
1e-14
1.00001e-14
1e-14
1.00001e-14
1.06945e-14
1.01773e-14
1e-14
1e-14
1e-14
1e-14
1e-14
1e-14
1e-14
1e-14
1e-14
1e-14
1.00001e-14
1e-14
1.90858e-14
1.00129e-14
1e-14
1e-14
1e-14
1e-14
1.00001e-14
1.00001e-14
1.00001e-14
1.00001e-14
1e-14
1.00001e-14
2.80888e-14
1.11819e-14
1.00005e-14
1e-14
1e-14
1e-14
1e-14
1e-14
1.00001e-14
1.00001e-14
1e-14
1e-14
1.08373e-12
1e-14
1.12562e-14
1.00006e-14
1e-14
1e-14
1e-14
1e-14
1e-14
1e-14
1e-14
1e-14
2.76278e-13
1e-14
1.11774e-14
1.0013e-14
1e-14
1e-14
1e-14
1e-14
1e-14
1e-14
1e-14
1.73713e-13
1.26528e-14
1.90859e-14
1.01777e-14
1.0011e-14
1.00003e-14
1.00001e-14
1.00001e-14
1.00001e-14
1.00001e-14
7.82579e-14
1e-14
1.52485e-14
1.02031e-14
1.01047e-14
1e-14
1.00125e-14
1.00049e-14
5.03939e-14
4.79001e-14
1.03596e-14
1e-14
1e-14
1.40691e-14
1.16109e-14
1.45315e-12
1e-14
1e-14
2.07203e-14
2.44582e-14
4.86201e-13
1.15284e-14
1.00003e-14
1.00002e-14
1.00002e-14
1.00002e-14
1.00002e-14
1.00003e-14
1.00002e-14
1.00001e-14
1e-14
1e-14
1e-14
1.00003e-14
1.00002e-14
5.38974e-13
1.3943e-14
1.00022e-14
1.00001e-14
1.00001e-14
1e-14
1e-14
1e-14
1e-14
1e-14
1e-14
1e-14
1e-14
1e-14
1e-14
1e-14
1e-14
1e-14
1e-14
1e-14
1e-14
1e-14
1e-14
1e-14
1e-14
1e-14
1e-14
1e-14
1.00002e-14
1.50479e-14
1.00971e-14
1e-14
1e-14
1e-14
1e-14
1e-14
1e-14
1e-14
1e-14
1.00001e-14
1e-14
1e-14
1.00002e-14
6.74462e-14
1.01932e-14
1e-14
1e-14
1e-14
1e-14
1e-14
1.00001e-14
1.00001e-14
1.00001e-14
1e-14
1.00001e-14
1e-14
1.00001e-14
3.34394e-13
1.51361e-14
1.00056e-14
1e-14
1e-14
1e-14
1e-14
1.00001e-14
1.00001e-14
1e-14
1e-14
1.00001e-14
1e-14
1.00001e-14
1.07343e-14
1.01707e-14
1e-14
1e-14
1e-14
1e-14
1.00001e-14
1e-14
1e-14
1e-14
1e-14
1e-14
1.00001e-14
1e-14
1.88338e-14
1.0008e-14
1e-14
1e-14
1e-14
1e-14
1e-14
1.00001e-14
1.00001e-14
1.00001e-14
1e-14
1e-14
2.82195e-14
1.11554e-14
1e-14
1.00001e-14
1e-14
1e-14
1e-14
1e-14
1e-14
1e-14
1e-14
1.00001e-14
1.08302e-12
1e-14
1.12262e-14
1e-14
1e-14
1e-14
1e-14
1e-14
1e-14
1e-14
1e-14
1.00001e-14
2.77981e-13
1e-14
1.11506e-14
1.00081e-14
1e-14
1e-14
1e-14
1e-14
1e-14
1e-14
1.00001e-14
1.75077e-13
1.24913e-14
1.8834e-14
1.01709e-14
1.00059e-14
1e-14
1e-14
1.00001e-14
1e-14
1e-14
7.96104e-14
1e-14
1.51408e-14
1.0194e-14
1.00976e-14
1e-14
1.00023e-14
1.00006e-14
5.0196e-14
4.82445e-14
1.03735e-14
1e-14
1e-14
1.39465e-14
1.15386e-14
1.44922e-12
1e-14
1e-14
2.06242e-14
2.45588e-14
4.86138e-13
1.14268e-14
1e-14
1.00002e-14
1.00002e-14
1.00001e-14
1.00001e-14
1.00002e-14
1.00003e-14
1.00001e-14
1e-14
1e-14
1e-14
1.00002e-14
1.00001e-14
5.38726e-13
1.3856e-14
1e-14
1e-14
1e-14
1e-14
1e-14
1.00001e-14
1e-14
1e-14
1e-14
1e-14
1e-14
1e-14
1e-14
1e-14
1e-14
1e-14
1e-14
1e-14
1e-14
1e-14
1e-14
1e-14
1e-14
1e-14
1e-14
1e-14
1.00002e-14
1.5057e-14
1.00937e-14
1e-14
1e-14
1e-14
1e-14
1e-14
1e-14
1e-14
1e-14
1e-14
1e-14
1e-14
1.00002e-14
6.76886e-14
1.01849e-14
1e-14
1e-14
1e-14
1e-14
1e-14
1e-14
1.00001e-14
1e-14
1e-14
1.00001e-14
1e-14
1e-14
3.34468e-13
1.50597e-14
1e-14
1e-14
1e-14
1e-14
1e-14
1.00001e-14
1.00001e-14
1e-14
1e-14
1e-14
1e-14
1e-14
1.07838e-14
1.01656e-14
1e-14
1e-14
1e-14
1e-14
1e-14
1e-14
1e-14
1e-14
1e-14
1e-14
1.00001e-14
1e-14
1.88175e-14
1.00005e-14
1e-14
1e-14
1e-14
1e-14
1e-14
1.00001e-14
1e-14
1e-14
1e-14
1.00001e-14
2.8271e-14
1.11576e-14
1e-14
1e-14
1e-14
1e-14
1e-14
1e-14
1e-14
1e-14
1e-14
1.00001e-14
1.08304e-12
1e-14
1.1223e-14
1e-14
1e-14
1e-14
1e-14
1e-14
1e-14
1e-14
1e-14
1.00001e-14
2.77693e-13
1e-14
1.11528e-14
1.00005e-14
1e-14
1e-14
1e-14
1e-14
1e-14
1e-14
1.00001e-14
1.7463e-13
1.24685e-14
1.88171e-14
1.01657e-14
1e-14
1e-14
1e-14
1e-14
1e-14
1e-14
7.96513e-14
1e-14
1.5061e-14
1.01851e-14
1.00939e-14
1e-14
1e-14
1e-14
4.96693e-14
4.81335e-14
1.03669e-14
1e-14
1e-14
1.38549e-14
1.14294e-14
1.448e-12
1e-14
1e-14
2.03989e-14
2.45378e-14
4.84911e-13
1.17212e-14
1e-14
1.00001e-14
1.00001e-14
1.00001e-14
1.00001e-14
1.00002e-14
1.00003e-14
1.00002e-14
1.00001e-14
1e-14
1.00001e-14
1.00002e-14
1.00002e-14
5.37109e-13
1.42007e-14
1e-14
1e-14
1e-14
1e-14
1e-14
1e-14
1e-14
1e-14
1e-14
1e-14
1e-14
1e-14
1e-14
1e-14
1e-14
1e-14
1e-14
1e-14
1e-14
1e-14
1e-14
1e-14
1e-14
1e-14
1e-14
1e-14
1e-14
1.50796e-14
1.00958e-14
1e-14
1e-14
1e-14
1e-14
1e-14
1e-14
1e-14
1e-14
1e-14
1e-14
1e-14
1e-14
6.81977e-14
1.02183e-14
1e-14
1e-14
1e-14
1e-14
1e-14
1e-14
1e-14
1e-14
1.00001e-14
1e-14
1e-14
1e-14
3.3431e-13
1.52902e-14
1e-14
1e-14
1e-14
1e-14
1e-14
1e-14
1e-14
1e-14
1e-14
1e-14
1e-14
1e-14
1.08822e-14
1.01615e-14
1e-14
1e-14
1e-14
1e-14
1e-14
1e-14
1e-14
1e-14
1e-14
1e-14
1.00001e-14
1e-14
1.86245e-14
1e-14
1e-14
1e-14
1e-14
1e-14
1e-14
1e-14
1e-14
1e-14
1e-14
1.00001e-14
2.81761e-14
1.11227e-14
1e-14
1e-14
1e-14
1e-14
1e-14
1e-14
1e-14
1e-14
1.00001e-14
1e-14
1.08279e-12
1e-14
1.12039e-14
1e-14
1e-14
1e-14
1e-14
1e-14
1e-14
1.00001e-14
1.00001e-14
1.00001e-14
2.77447e-13
1e-14
1.11178e-14
1e-14
1e-14
1e-14
1.00001e-14
1.00001e-14
1e-14
1e-14
1e-14
1.74192e-13
1.24242e-14
1.8621e-14
1.01615e-14
1e-14
1e-14
1e-14
1e-14
1e-14
1e-14
7.91507e-14
1e-14
1.52902e-14
1.02185e-14
1.00959e-14
1e-14
1e-14
1e-14
4.82093e-14
4.77621e-14
1.03474e-14
1e-14
1e-14
1.42001e-14
1.17209e-14
1.44592e-12
1e-14
1e-14
1.99596e-14
2.44824e-14
4.80518e-13
1.09606e-14
1e-14
1.00001e-14
1e-14
1.00001e-14
1.00001e-14
1.00002e-14
1.00001e-14
1e-14
1.00001e-14
1e-14
1.00001e-14
1e-14
1.00003e-14
5.3133e-13
1.33843e-14
1e-14
1e-14
1e-14
1e-14
1e-14
1.00001e-14
1e-14
1e-14
1e-14
1e-14
1e-14
1e-14
1e-14
1e-14
1e-14
1e-14
1e-14
1e-14
1e-14
1e-14
1e-14
1e-14
1e-14
1e-14
1e-14
1e-14
1e-14
1.50843e-14
1.00814e-14
1e-14
1e-14
1e-14
1e-14
1e-14
1e-14
1e-14
1e-14
1e-14
1e-14
1e-14
1e-14
6.94717e-14
1.01279e-14
1e-14
1e-14
1e-14
1e-14
1e-14
1e-14
1e-14
1.00001e-14
1e-14
1e-14
1e-14
1.00002e-14
3.33072e-13
1.45027e-14
1e-14
1e-14
1e-14
1e-14
1e-14
1e-14
1.00001e-14
1.00001e-14
1e-14
1e-14
1e-14
1.00002e-14
1.0883e-14
1.01461e-14
1e-14
1e-14
1e-14
1e-14
1e-14
1e-14
1e-14
1e-14
1e-14
1e-14
1.00001e-14
1e-14
1.8694e-14
1e-14
1e-14
1e-14
1e-14
1e-14
1e-14
1e-14
1e-14
1e-14
1.00001e-14
1.00001e-14
2.76003e-14
1.12655e-14
1e-14
1e-14
1e-14
1e-14
1e-14
1e-14
1e-14
1.00001e-14
1.00001e-14
1e-14
1.08089e-12
1e-14
1.12741e-14
1e-14
1e-14
1e-14
1e-14
1.00001e-14
1.00001e-14
1.00001e-14
1e-14
1e-14
2.76043e-13
1e-14
1.12599e-14
1e-14
1e-14
1.00001e-14
1.00001e-14
1.00001e-14
1e-14
1e-14
1e-14
1.72318e-13
1.22529e-14
1.86911e-14
1.0146e-14
1e-14
1e-14
1e-14
1e-14
1e-14
1e-14
7.75642e-14
1e-14
1.45026e-14
1.01279e-14
1.00815e-14
1e-14
1e-14
1e-14
4.32218e-14
4.66871e-14
1.02572e-14
1e-14
1e-14
1.33846e-14
1.09612e-14
1.43904e-12
1e-14
1e-14
1.84925e-14
2.34059e-14
4.545e-13
1.34368e-14
1e-14
1e-14
1e-14
1e-14
1.00001e-14
1.00001e-14
1.00001e-14
1e-14
1e-14
1e-14
1e-14
1e-14
1.00002e-14
5.04188e-13
1.7032e-14
1e-14
1e-14
1e-14
1e-14
1e-14
1e-14
1e-14
1e-14
1e-14
1e-14
1e-14
1e-14
1e-14
1e-14
1e-14
1e-14
1e-14
1e-14
1e-14
1e-14
1e-14
1e-14
1e-14
1e-14
1e-14
1e-14
1e-14
1.25221e-14
1.01228e-14
1e-14
1e-14
1e-14
1e-14
1e-14
1.00001e-14
1.00001e-14
1.00001e-14
1e-14
1e-14
1e-14
1e-14
6.30955e-14
1.04287e-14
1e-14
1e-14
1e-14
1e-14
1e-14
1e-14
1e-14
1e-14
1e-14
1e-14
1e-14
1.00001e-14
3.23427e-13
1.75135e-14
1e-14
1e-14
1e-14
1e-14
1e-14
1e-14
1e-14
1e-14
1e-14
1e-14
1.00001e-14
1.00001e-14
1.22794e-14
1.01351e-14
1e-14
1e-14
1e-14
1e-14
1e-14
1e-14
1e-14
1e-14
1e-14
1.00001e-14
1.00001e-14
1e-14
1.98988e-14
1e-14
1e-14
1e-14
1e-14
1e-14
1e-14
1e-14
1e-14
1.00001e-14
1e-14
1.00001e-14
2.66794e-14
1.09315e-14
1e-14
1e-14
1e-14
1e-14
1e-14
1e-14
1.00001e-14
1e-14
1e-14
1e-14
1.07721e-12
1e-14
1.10422e-14
1e-14
1e-14
1e-14
1.00001e-14
1.00001e-14
1e-14
1e-14
1e-14
1.00001e-14
2.765e-13
1e-14
1.09238e-14
1e-14
1e-14
1.00001e-14
1.00001e-14
1e-14
1e-14
1.00001e-14
1.00001e-14
1.64596e-13
1.33453e-14
1.98989e-14
1.01347e-14
1e-14
1e-14
1e-14
1e-14
1.00001e-14
1e-14
9.45682e-14
1e-14
1.75144e-14
1.04289e-14
1.01228e-14
1e-14
1e-14
1e-14
1.00336e-14
4.12855e-14
1.01088e-14
1e-14
1e-14
1.7034e-14
1.34372e-14
1.44555e-12
1e-14
1e-14
1.61582e-14
1.3046e-14
9.39409e-14
1.13789e-14
1e-14
1e-14
1e-14
1.00001e-14
1.00001e-14
1.00001e-14
1e-14
1e-14
1e-14
1e-14
1e-14
1e-14
1e-14
7.79707e-14
1.21283e-14
1e-14
1e-14
1e-14
1e-14
1e-14
1e-14
1e-14
1e-14
1e-14
1e-14
1e-14
1e-14
1e-14
1e-14
1e-14
1e-14
1e-14
1e-14
1e-14
1.00001e-14
1e-14
1e-14
1e-14
1e-14
1e-14
1e-14
1.00001e-14
1.32369e-14
1.00383e-14
1e-14
1e-14
1e-14
1.00001e-14
1e-14
1e-14
1e-14
1e-14
1e-14
1e-14
1.00001e-14
1.00001e-14
3.98901e-14
1.01518e-14
1e-14
1e-14
1e-14
1e-14
1e-14
1e-14
1e-14
1e-14
1e-14
1e-14
1.00001e-14
1.00002e-14
8.5098e-14
1.16571e-14
1e-14
1e-14
1e-14
1e-14
1e-14
1e-14
1e-14
1e-14
1e-14
1e-14
1.00001e-14
1.00001e-14
1.1826e-14
1.00238e-14
1e-14
1e-14
1e-14
1e-14
1e-14
1e-14
1e-14
1e-14
1.00001e-14
1.00001e-14
1.00001e-14
5.5298e-14
1.22582e-14
1e-14
1.00001e-14
1e-14
1e-14
1e-14
1e-14
1.00001e-14
1.00001e-14
1e-14
1e-14
1e-14
2.05258e-14
1.01997e-14
1e-14
1e-14
1e-14
1e-14
1.00001e-14
1.00001e-14
1e-14
1e-14
1e-14
1e-14
1e-14
1e-14
1.02407e-14
1e-14
1e-14
1e-14
1.00001e-14
1.00001e-14
1e-14
1e-14
1e-14
1.00002e-14
1e-14
1.00001e-14
1.01978e-14
1e-14
1e-14
1e-14
1e-14
1e-14
1e-14
1.00001e-14
1.00001e-14
1e-14
1e-14
1.22582e-14
1.00235e-14
1e-14
1e-14
1e-14
1.00001e-14
1.00001e-14
1e-14
4.50896e-14
1.02067e-14
1.16574e-14
1.01518e-14
1.00383e-14
1e-14
1e-14
1e-14
1e-14
3.90297e-14
1e-14
1.00047e-14
1e-14
1.21289e-14
1.13793e-14
1e-14
1.05694e-13
2.25405e-14
2.86228e-14
1.0637e-14
1.28899e-14
1.04401e-14
1e-14
1e-14
1e-14
1e-14
1e-14
1e-14
1e-14
1e-14
1e-14
1e-14
1e-14
1e-14
1.00001e-14
1.13172e-14
1.06629e-14
1e-14
1e-14
1e-14
1e-14
1e-14
1e-14
1e-14
1e-14
1e-14
1e-14
1e-14
1e-14
1e-14
1.01665e-14
1e-14
1e-14
1e-14
1e-14
1e-14
1e-14
1e-14
1e-14
1e-14
1e-14
1e-14
1e-14
1e-14
1e-14
1.00508e-14
1.00107e-14
1e-14
1e-14
1.00001e-14
1e-14
1e-14
1e-14
1e-14
1e-14
1e-14
1e-14
1e-14
1.00001e-14
1.09689e-14
1.00481e-14
1e-14
1e-14
1e-14
1e-14
1e-14
1e-14
1e-14
1e-14
1e-14
1e-14
1e-14
1.00002e-14
1.15884e-14
1.04229e-14
1e-14
1e-14
1e-14
1e-14
1e-14
1e-14
1e-14
1e-14
1e-14
1e-14
1.00001e-14
1e-14
1.01272e-14
1.00032e-14
1e-14
1e-14
1e-14
1e-14
1e-14
1e-14
1e-14
1.00001e-14
1e-14
1e-14
1e-14
1.04971e-14
1.05873e-14
1e-14
1.00001e-14
1e-14
1e-14
1e-14
1e-14
1.00001e-14
1e-14
1e-14
1e-14
1e-14
1.06482e-14
1.00337e-14
1e-14
1e-14
1e-14
1e-14
1.00001e-14
1.00001e-14
1e-14
1e-14
1e-14
1e-14
1.00351e-14
1e-14
1.00503e-14
1e-14
1e-14
1e-14
1e-14
1e-14
1e-14
1e-14
1e-14
1.00002e-14
1.00087e-14
1e-14
1.00334e-14
1e-14
1e-14
1e-14
1e-14
1.00001e-14
1.00001e-14
1.00001e-14
1.00001e-14
1.00317e-14
1e-14
1.05874e-14
1.00031e-14
1e-14
1e-14
1e-14
1.00001e-14
1.00001e-14
1e-14
1.15965e-14
1e-14
1.0423e-14
1.00482e-14
1.00107e-14
1.00001e-14
1e-14
1e-14
1.00073e-14
1.13698e-14
1e-14
1.00511e-14
1e-14
1.06632e-14
1.04404e-14
1.19311e-14
1.03565e-14
1.11797e-14
1e-14
1.00736e-14
1.0119e-14
1e-14
1e-14
1e-14
1e-14
1e-14
1e-14
1e-14
1e-14
1e-14
1e-14
1e-14
1e-14
1.00002e-14
1.0027e-14
1.0184e-14
1e-14
1e-14
1e-14
1e-14
1e-14
1e-14
1e-14
1e-14
1e-14
1e-14
1e-14
1e-14
1e-14
1.00015e-14
1.00017e-14
1e-14
1e-14
1e-14
1e-14
1e-14
1e-14
1e-14
1e-14
1e-14
1e-14
1e-14
1e-14
1e-14
1.00052e-14
1.0003e-14
1e-14
1e-14
1e-14
1e-14
1e-14
1e-14
1e-14
1e-14
1e-14
1e-14
1e-14
1e-14
1.0024e-14
1.00125e-14
1e-14
1e-14
1e-14
1e-14
1e-14
1e-14
1e-14
1e-14
1e-14
1e-14
1e-14
1.00001e-14
1.00227e-14
1.00972e-14
1e-14
1e-14
1e-14
1e-14
1e-14
1e-14
1e-14
1e-14
1e-14
1e-14
1e-14
1e-14
1.00098e-14
1.00005e-14
1e-14
1e-14
1e-14
1e-14
1e-14
1e-14
1e-14
1e-14
1e-14
1e-14
1e-14
1.00078e-14
1.01361e-14
1e-14
1.00001e-14
1e-14
1e-14
1e-14
1e-14
1.00001e-14
1e-14
1e-14
1e-14
1e-14
1.00278e-14
1.00048e-14
1e-14
1e-14
1e-14
1e-14
1e-14
1e-14
1e-14
1e-14
1e-14
1e-14
1.00005e-14
1.00036e-14
1.00094e-14
1e-14
1e-14
1e-14
1e-14
1e-14
1e-14
1e-14
1e-14
1.00001e-14
1e-14
1.00037e-14
1.00048e-14
1e-14
1e-14
1e-14
1.00001e-14
1e-14
1.00001e-14
1.00001e-14
1e-14
1e-14
1.00007e-14
1.01362e-14
1.00005e-14
1e-14
1e-14
1e-14
1.00001e-14
1.00001e-14
1e-14
1.00479e-14
1e-14
1.00972e-14
1.00125e-14
1.0003e-14
1e-14
1e-14
1e-14
1.00002e-14
1.00493e-14
1.0001e-14
1.00053e-14
1.00016e-14
1.01841e-14
1.01192e-14
1.00446e-14
1.00078e-14
1.00519e-14
1.00095e-14
1.00019e-14
1.00284e-14
1e-14
1e-14
1e-14
1e-14
1e-14
1e-14
1e-14
1e-14
1e-14
1e-14
1e-14
1e-14
1.00002e-14
1.00008e-14
1.00448e-14
1e-14
1e-14
1e-14
1e-14
1e-14
1e-14
1e-14
1e-14
1e-14
1e-14
1e-14
1e-14
1e-14
1.00001e-14
1.00006e-14
1e-14
1e-14
1e-14
1e-14
1e-14
1e-14
1e-14
1e-14
1e-14
1e-14
1e-14
1e-14
1.00001e-14
1.00006e-14
1.00007e-14
1e-14
1e-14
1e-14
1e-14
1e-14
1e-14
1e-14
1e-14
1e-14
1e-14
1e-14
1.00001e-14
1.00003e-14
1.00028e-14
1e-14
1e-14
1e-14
1e-14
1e-14
1e-14
1e-14
1e-14
1e-14
1e-14
1e-14
1e-14
1.00003e-14
1.00197e-14
1e-14
1e-14
1e-14
1e-14
1e-14
1e-14
1e-14
1e-14
1e-14
1e-14
1e-14
1e-14
1.00017e-14
1.00001e-14
1e-14
1e-14
1e-14
1e-14
1e-14
1e-14
1e-14
1e-14
1e-14
1e-14
1e-14
1.00001e-14
1.00268e-14
1e-14
1e-14
1e-14
1e-14
1e-14
1e-14
1e-14
1e-14
1e-14
1e-14
1e-14
1.00018e-14
1.00006e-14
1e-14
1e-14
1e-14
1e-14
1e-14
1e-14
1e-14
1e-14
1e-14
1e-14
1.00001e-14
1.00005e-14
1.00018e-14
1e-14
1e-14
1e-14
1e-14
1e-14
1e-14
1e-14
1e-14
1.00001e-14
1e-14
1.00005e-14
1.00007e-14
1e-14
1e-14
1e-14
1e-14
1e-14
1e-14
1e-14
1e-14
1e-14
1.00002e-14
1.00269e-14
1.00002e-14
1e-14
1e-14
1e-14
1e-14
1e-14
1e-14
1.00021e-14
1e-14
1.00196e-14
1.00028e-14
1.00008e-14
1e-14
1e-14
1e-14
1e-14
1.00016e-14
1.00003e-14
1.00007e-14
1.00006e-14
1.00448e-14
1.00286e-14
1.00005e-14
1.00001e-14
1.00043e-14
1.00025e-14
1.00001e-14
1.00062e-14
1e-14
1e-14
1e-14
1e-14
1e-14
1e-14
1e-14
1e-14
1e-14
1e-14
1.00001e-14
1.00001e-14
1.00003e-14
1.00001e-14
1.00098e-14
1e-14
1e-14
1e-14
1e-14
1e-14
1e-14
1e-14
1e-14
1e-14
1.00001e-14
1.00001e-14
1e-14
1.00001e-14
1e-14
1.00001e-14
1e-14
1e-14
1e-14
1e-14
1e-14
1e-14
1e-14
1e-14
1e-14
1e-14
1e-14
1e-14
1.00001e-14
1.00001e-14
1.00001e-14
1e-14
1e-14
1e-14
1e-14
1e-14
1e-14
1e-14
1e-14
1e-14
1e-14
1e-14
1.00001e-14
1e-14
1.00005e-14
1e-14
1e-14
1e-14
1e-14
1e-14
1e-14
1e-14
1e-14
1e-14
1e-14
1e-14
1e-14
1e-14
1.00035e-14
1e-14
1e-14
1e-14
1e-14
1e-14
1e-14
1e-14
1e-14
1e-14
1e-14
1e-14
1e-14
1.00004e-14
1e-14
1e-14
1.00001e-14
1e-14
1e-14
1e-14
1e-14
1e-14
1e-14
1e-14
1e-14
1.00001e-14
1.00004e-14
1.00046e-14
1e-14
1e-14
1e-14
1e-14
1e-14
1e-14
1e-14
1e-14
1e-14
1e-14
1.00001e-14
1.00002e-14
1e-14
1e-14
1e-14
1.00001e-14
1e-14
1e-14
1e-14
1e-14
1e-14
1e-14
1e-14
1.00001e-14
1.00001e-14
1.00004e-14
1e-14
1e-14
1e-14
1e-14
1e-14
1e-14
1e-14
1e-14
1e-14
1e-14
1.00002e-14
1.00001e-14
1e-14
1e-14
1e-14
1e-14
1e-14
1e-14
1e-14
1e-14
1e-14
1e-14
1.00047e-14
1.00001e-14
1e-14
1e-14
1e-14
1e-14
1e-14
1e-14
1.00002e-14
1e-14
1.00035e-14
1.00006e-14
1.00002e-14
1e-14
1e-14
1e-14
1e-14
1.00002e-14
1e-14
1.00002e-14
1.00001e-14
1.00098e-14
1.00062e-14
1e-14
1.00002e-14
1.00008e-14
1.00005e-14
1e-14
1.00012e-14
1e-14
1e-14
1e-14
1e-14
1e-14
1e-14
1e-14
1e-14
1e-14
1.00001e-14
1.00002e-14
1.00001e-14
1.00003e-14
1e-14
1.00019e-14
1e-14
1e-14
1e-14
1e-14
1.00001e-14
1e-14
1e-14
1e-14
1e-14
1.00001e-14
1.00001e-14
1e-14
1.00001e-14
1e-14
1e-14
1e-14
1e-14
1e-14
1e-14
1e-14
1e-14
1e-14
1e-14
1e-14
1e-14
1e-14
1e-14
1.00001e-14
1e-14
1e-14
1e-14
1e-14
1e-14
1e-14
1e-14
1e-14
1e-14
1e-14
1e-14
1e-14
1e-14
1.00001e-14
1e-14
1.00001e-14
1e-14
1e-14
1.00001e-14
1e-14
1e-14
1e-14
1e-14
1e-14
1e-14
1e-14
1e-14
1.00001e-14
1e-14
1.00006e-14
1e-14
1.00001e-14
1.00001e-14
1e-14
1e-14
1e-14
1e-14
1e-14
1e-14
1e-14
1e-14
1e-14
1e-14
1.00001e-14
1.00001e-14
1.00001e-14
1e-14
1e-14
1e-14
1e-14
1e-14
1e-14
1e-14
1e-14
1e-14
1e-14
1.00007e-14
1.00001e-14
1e-14
1e-14
1e-14
1e-14
1e-14
1e-14
1e-14
1e-14
1e-14
1e-14
1e-14
1e-14
1e-14
1e-14
1e-14
1e-14
1e-14
1e-14
1e-14
1e-14
1e-14
1e-14
1e-14
1e-14
1.00001e-14
1e-14
1.00001e-14
1e-14
1e-14
1e-14
1e-14
1e-14
1e-14
1e-14
1e-14
1.00001e-14
1e-14
1e-14
1e-14
1e-14
1e-14
1e-14
1e-14
1e-14
1.00001e-14
1e-14
1e-14
1.00008e-14
1.00001e-14
1e-14
1e-14
1e-14
1e-14
1e-14
1.00001e-14
1.00002e-14
1.00002e-14
1.00005e-14
1.00001e-14
1.00001e-14
1e-14
1e-14
1e-14
1.00002e-14
1e-14
1e-14
1e-14
1e-14
1.00019e-14
1.00012e-14
1e-14
1.00002e-14
1e-14
1.00001e-14
1e-14
1.00002e-14
1.00001e-14
1.00001e-14
1.00001e-14
1.00002e-14
1.00002e-14
1.00001e-14
1.00001e-14
1.00001e-14
1.00002e-14
1.00001e-14
1.00001e-14
1.00002e-14
1.00006e-14
1e-14
1.00004e-14
1e-14
1e-14
1e-14
1.00001e-14
1e-14
1e-14
1e-14
1e-14
1.00001e-14
1e-14
1e-14
1e-14
1.00001e-14
1e-14
1e-14
1e-14
1e-14
1e-14
1e-14
1e-14
1e-14
1e-14
1e-14
1.00001e-14
1e-14
1e-14
1e-14
1.00001e-14
1e-14
1e-14
1e-14
1.00001e-14
1e-14
1e-14
1e-14
1e-14
1e-14
1e-14
1e-14
1e-14
1e-14
1e-14
1e-14
1e-14
1e-14
1e-14
1.00001e-14
1.00001e-14
1e-14
1e-14
1e-14
1e-14
1e-14
1e-14
1e-14
1e-14
1e-14
1.00001e-14
1e-14
1.00001e-14
1.00001e-14
1.00001e-14
1e-14
1e-14
1e-14
1e-14
1e-14
1e-14
1e-14
1e-14
1.00002e-14
1e-14
1e-14
1e-14
1e-14
1e-14
1.00001e-14
1e-14
1e-14
1e-14
1e-14
1e-14
1e-14
1e-14
1.00001e-14
1e-14
1e-14
1.00001e-14
1.00001e-14
1.00001e-14
1e-14
1e-14
1e-14
1e-14
1e-14
1e-14
1e-14
1e-14
1e-14
1.00001e-14
1.00001e-14
1.00001e-14
1e-14
1e-14
1e-14
1e-14
1e-14
1e-14
1.00001e-14
1e-14
1.00001e-14
1.00001e-14
1.00001e-14
1.00001e-14
1e-14
1e-14
1e-14
1e-14
1e-14
1.00002e-14
1e-14
1.00001e-14
1.00001e-14
1.00001e-14
1e-14
1e-14
1e-14
1e-14
1e-14
1.00001e-14
1.00001e-14
1e-14
1e-14
1.00002e-14
1e-14
1e-14
1e-14
1e-14
1.00001e-14
1.00001e-14
1e-14
1e-14
1.00001e-14
1.00001e-14
1e-14
1.00001e-14
1.00001e-14
1.00001e-14
1e-14
1.00002e-14
1e-14
1e-14
1e-14
1e-14
1.00004e-14
1.00003e-14
1e-14
1e-14
1e-14
1e-14
1.00003e-14
1.00001e-14
1.00002e-14
1e-14
1e-14
1e-14
1e-14
1e-14
1.00001e-14
1.00001e-14
1e-14
1e-14
1e-14
1e-14
1.00005e-14
1e-14
1.00001e-14
1e-14
1e-14
1e-14
1e-14
1.00001e-14
1e-14
1e-14
1e-14
1e-14
1e-14
1e-14
1e-14
1.00002e-14
1e-14
1e-14
1.00001e-14
1e-14
1e-14
1e-14
1e-14
1e-14
1e-14
1e-14
1e-14
1e-14
1.00001e-14
1.00001e-14
1.00002e-14
1e-14
1e-14
1e-14
1e-14
1e-14
1e-14
1e-14
1e-14
1e-14
1e-14
1e-14
1e-14
1e-14
1.00002e-14
1.00001e-14
1e-14
1.00001e-14
1.00001e-14
1.00001e-14
1e-14
1e-14
1.00001e-14
1e-14
1e-14
1e-14
1e-14
1e-14
1e-14
1e-14
1.00001e-14
1.00001e-14
1.00001e-14
1.00001e-14
1.00001e-14
1e-14
1.00001e-14
1e-14
1e-14
1e-14
1e-14
1e-14
1e-14
1e-14
1e-14
1.00001e-14
1e-14
1e-14
1.00001e-14
1e-14
1e-14
1e-14
1e-14
1e-14
1e-14
1e-14
1e-14
1e-14
1.00001e-14
1.00001e-14
1.00001e-14
1.00001e-14
1.00001e-14
1e-14
1e-14
1e-14
1e-14
1e-14
1e-14
1e-14
1e-14
1.00001e-14
1.00001e-14
1.00001e-14
1.00001e-14
1e-14
1e-14
1e-14
1e-14
1e-14
1e-14
1.00001e-14
1.00001e-14
1.00001e-14
1.00001e-14
1.00001e-14
1e-14
1e-14
1e-14
1e-14
1e-14
1e-14
1.00001e-14
1.00003e-14
1.00001e-14
1.00001e-14
1e-14
1e-14
1e-14
1e-14
1e-14
1e-14
1e-14
1e-14
1.00002e-14
1.00001e-14
1e-14
1e-14
1e-14
1e-14
1e-14
1e-14
1.00001e-14
1e-14
1e-14
1e-14
1.00001e-14
1e-14
1e-14
1e-14
1e-14
1.00001e-14
1.00001e-14
1e-14
1e-14
1e-14
1e-14
1.00001e-14
1.00002e-14
1e-14
1e-14
1e-14
1.00001e-14
7.33191e-13
4.03945e-14
7.8124e-13
4.48872e-14
8.2442e-13
5.5154e-14
7.75869e-14
1.35862e-13
1.7985e-14
1.2131e-14
1.50658e-13
2.03534e-13
1.71258e-12
9.43941e-14
1.75798e-14
8.03775e-14
1.01245e-14
4.93138e-13
3.39439e-14
1.2469e-13
1.02433e-14
5.95578e-13
2.5214e-14
1.05057e-14
1.00029e-13
1.60305e-14
1.47845e-12
2.13165e-13
2.28292e-14
2.093e-13
1e-14
5.87059e-14
1.11235e-14
6.18471e-13
3.09096e-14
1.54334e-12
1.87451e-13
1.29872e-12
1.36122e-12
1.70193e-13
1.35779e-12
1.29754e-12
1.8712e-13
1.54347e-12
3.08787e-14
1.11241e-14
6.18461e-13
5.87126e-14
1e-14
2.09315e-13
2.28518e-14
2.13855e-13
1.60732e-14
1.05586e-14
1.00865e-13
2.60329e-14
1.47658e-12
5.96133e-13
1.16459e-14
1.20815e-13
3.38774e-14
4.94606e-13
1.02107e-14
1.72675e-14
8.01861e-14
9.16237e-14
1.71349e-12
1.84321e-13
1.47546e-13
1.14298e-14
1.84144e-14
1.35994e-13
7.61236e-14
5.45255e-14
8.28312e-13
4.45698e-14
3.97484e-14
7.84881e-13
7.34832e-13
2.26373e-14
4.96293e-13
2.46387e-14
7.21589e-13
3.64805e-14
7.71007e-13
4.08881e-14
3.51977e-14
2.16101e-14
8.14532e-13
4.9748e-14
6.83079e-14
6.37037e-14
1e-14
1.21352e-13
1.64126e-14
1.06488e-14
1e-14
1.16245e-14
1.36811e-13
1e-14
1.44895e-12
1.75507e-13
1.6992e-12
1e-14
1e-14
1.02447e-14
8.22698e-14
1.51376e-14
7.42331e-14
1.02217e-14
2.3883e-14
4.99537e-14
4.8898e-13
3.11678e-14
1.12618e-13
1.16128e-14
3.41748e-14
1.27671e-14
6.01228e-13
1.05967e-14
6.92658e-14
1e-14
2.3482e-14
1.03316e-14
9.20533e-14
1.49981e-14
9.83852e-13
1.4681e-12
1.80294e-14
7.4709e-14
2.03428e-13
2.16846e-14
1.93956e-13
1e-14
1e-14
1.05896e-14
3.98239e-13
1.32484e-14
5.52387e-14
1.06272e-14
6.06244e-13
2.75827e-14
7.18557e-14
1.3803e-13
1.52279e-12
1.71687e-13
1.32709e-12
5.73108e-14
2.41121e-13
1.38369e-12
1.54779e-13
1.37991e-12
7.18033e-14
1.08059e-12
1.32571e-12
1.71472e-13
1.52264e-12
1.05908e-14
3.98154e-13
2.86725e-14
2.75646e-14
1.06286e-14
6.06253e-13
5.52328e-14
1e-14
1e-14
1.80163e-14
1e-14
1.93941e-13
2.16674e-14
2.03023e-13
1.06099e-14
6.95435e-14
1.10256e-14
1.50376e-14
1.03391e-14
9.22914e-14
2.36006e-14
9.84874e-13
1.46821e-12
1.08936e-14
6.01467e-13
1.27446e-14
2.40287e-14
3.32296e-13
1.13094e-13
3.14382e-14
4.89522e-13
1e-14
1e-14
6.93243e-14
1.0211e-14
1.52564e-14
7.43071e-14
8.31164e-14
1e-14
1.69993e-12
1.76908e-13
1.07509e-14
1.37917e-13
1.15881e-14
6.51238e-14
1.65156e-14
1.22599e-13
3.515e-14
5.35722e-13
6.8823e-14
5.00305e-14
8.15243e-13
2.26877e-14
5.02883e-13
4.85388e-13
4.12013e-14
3.67301e-14
7.7177e-13
7.22092e-13
2.23485e-14
5.03444e-13
2.43451e-14
7.21451e-13
3.62803e-14
7.70465e-13
4.06855e-14
3.40274e-14
2.05816e-14
8.14613e-13
4.94785e-14
6.75987e-14
6.55001e-14
1e-14
1.20812e-13
1.62945e-14
1.05859e-14
1e-14
1.14949e-14
1.37575e-13
1e-14
1.45341e-12
1.77328e-13
1.70044e-12
1e-14
1e-14
1.03647e-14
8.17917e-14
1.48744e-14
7.24611e-14
1.01795e-14
2.34526e-14
4.76001e-14
4.897e-13
3.10546e-14
1.12656e-13
1.01973e-14
5.06049e-14
1.3527e-14
5.97859e-13
1.05343e-14
6.89891e-14
1e-14
2.36395e-14
1.03113e-14
9.25165e-14
1.47085e-14
9.96871e-13
1.46879e-12
1.764e-14
7.82576e-14
2.0651e-13
2.14271e-14
1.93395e-13
1e-14
1e-14
1.05712e-14
4.00956e-13
1.26471e-14
5.57474e-14
1.06529e-14
6.06376e-13
2.69485e-14
7.4383e-14
1.71803e-13
1.52525e-12
1.69806e-13
1.31708e-12
5.9107e-14
2.76914e-13
1.37404e-12
1.53579e-13
1.37027e-12
7.43321e-14
1.08379e-12
1.31569e-12
1.69598e-13
1.52508e-12
1.05728e-14
4.00912e-13
2.80932e-14
2.69311e-14
1.06523e-14
6.06371e-13
5.57379e-14
1e-14
1e-14
1.76369e-14
1e-14
1.93426e-13
2.14256e-14
2.06445e-13
1.05355e-14
6.91078e-14
1.07254e-14
1.47108e-14
1.03126e-14
9.25535e-14
2.3654e-14
9.9684e-13
1.46906e-12
1.02306e-14
5.97869e-13
1.35126e-14
2.35576e-14
3.34087e-13
1.12806e-13
3.11073e-14
4.89697e-13
1e-14
1e-14
6.73769e-14
1.01763e-14
1.48877e-14
7.24394e-14
8.1973e-14
1e-14
1.70116e-12
1.7744e-13
1.06009e-14
1.37688e-13
1.14981e-14
6.59572e-14
1.63161e-14
1.20989e-13
3.41411e-14
5.38025e-13
6.76817e-14
4.95574e-14
8.14554e-13
2.24548e-14
5.03379e-13
4.85406e-13
4.07805e-14
3.63323e-14
7.7064e-13
7.21194e-13
2.25274e-14
5.04136e-13
2.45255e-14
7.21613e-13
3.63853e-14
7.70438e-13
4.08107e-14
3.41299e-14
2.05918e-14
8.14588e-13
4.96465e-14
6.76974e-14
6.66593e-14
1e-14
1.21233e-13
1.62803e-14
1.05839e-14
1e-14
1.14774e-14
1.37525e-13
1e-14
1.44934e-12
1.77668e-13
1.70074e-12
1e-14
1e-14
1.03743e-14
8.20298e-14
1.48458e-14
7.20776e-14
1.01696e-14
2.35741e-14
4.82031e-14
4.90159e-13
3.11826e-14
1.13065e-13
1.01315e-14
5.02621e-14
1.36505e-14
5.96286e-13
1.05161e-14
6.97021e-14
1e-14
2.3771e-14
1.03008e-14
9.29131e-14
1.46441e-14
9.98512e-13
1.4693e-12
1.75833e-14
7.96081e-14
2.08389e-13
2.14133e-14
1.93493e-13
1e-14
1e-14
1.05632e-14
4.0158e-13
1.24847e-14
5.59304e-14
1.06474e-14
6.06536e-13
2.69058e-14
7.56602e-14
1.73208e-13
1.52557e-12
1.69701e-13
1.31469e-12
6.01227e-14
2.78663e-13
1.37168e-12
1.53582e-13
1.36797e-12
7.56058e-14
1.08309e-12
1.31343e-12
1.69484e-13
1.5256e-12
1.05642e-14
4.01516e-13
2.82174e-14
2.68873e-14
1.06464e-14
6.06488e-13
5.59263e-14
1e-14
1e-14
1.7583e-14
1e-14
1.93507e-13
2.14119e-14
2.08362e-13
1.05168e-14
6.97246e-14
1.07375e-14
1.46449e-14
1.03018e-14
9.29156e-14
2.37734e-14
9.98655e-13
1.46925e-12
1.01372e-14
5.96268e-13
1.36452e-14
2.35873e-14
3.34386e-13
1.13089e-13
3.11913e-14
4.90162e-13
1e-14
1e-14
6.751e-14
1.01687e-14
1.48489e-14
7.20643e-14
8.20653e-14
1e-14
1.70098e-12
1.77682e-13
1.059e-14
1.37554e-13
1.14734e-14
6.67407e-14
1.62824e-14
1.21265e-13
3.41694e-14
5.38871e-13
6.77186e-14
4.96714e-14
8.14643e-13
2.25552e-14
5.0387e-13
4.85949e-13
4.08416e-14
3.63956e-14
7.70479e-13
7.21077e-13
2.25282e-14
5.03779e-13
2.45301e-14
7.2148e-13
3.65032e-14
7.70683e-13
4.09743e-14
3.41487e-14
2.03977e-14
8.14913e-13
4.99169e-14
6.81236e-14
6.7072e-14
1e-14
1.21931e-13
1.62713e-14
1.05795e-14
1e-14
1.14912e-14
1.373e-13
1e-14
1.44798e-12
1.7769e-13
1.70054e-12
1e-14
1e-14
1.03677e-14
8.2273e-14
1.4831e-14
7.15216e-14
1.01621e-14
2.35953e-14
4.81028e-14
4.90855e-13
3.12759e-14
1.13276e-13
1.01048e-14
4.96356e-14
1.37604e-14
5.94987e-13
1.05051e-14
6.98378e-14
1e-14
2.3852e-14
1.02864e-14
9.30174e-14
1.45801e-14
9.99032e-13
1.46947e-12
1.75553e-14
7.96527e-14
2.10079e-13
2.14079e-14
1.93259e-13
1e-14
1e-14
1.05558e-14
4.01796e-13
1.24624e-14
5.5938e-14
1.06352e-14
6.06491e-13
2.68906e-14
7.58311e-14
1.72683e-13
1.52563e-12
1.69737e-13
1.31432e-12
6.02562e-14
2.78425e-13
1.37116e-12
1.53648e-13
1.36745e-12
7.57869e-14
1.08309e-12
1.31299e-12
1.69522e-13
1.52556e-12
1.05571e-14
4.01731e-13
2.82731e-14
2.68728e-14
1.06343e-14
6.0649e-13
5.59317e-14
1e-14
1e-14
1.75559e-14
1e-14
1.93256e-13
2.14061e-14
2.10081e-13
1.05054e-14
6.98367e-14
1.0785e-14
1.45805e-14
1.02868e-14
9.30173e-14
2.38522e-14
9.98712e-13
1.46935e-12
1.01074e-14
5.9494e-13
1.37578e-14
2.35976e-14
3.34471e-13
1.13291e-13
3.12789e-14
4.9088e-13
1e-14
1e-14
6.77059e-14
1.0162e-14
1.48308e-14
7.15294e-14
8.22802e-14
1e-14
1.70042e-12
1.77654e-13
1.05812e-14
1.37294e-13
1.14901e-14
6.70867e-14
1.62754e-14
1.21931e-13
3.41534e-14
5.3864e-13
6.81126e-14
4.99135e-14
8.148e-13
2.25368e-14
5.03615e-13
4.85788e-13
4.0968e-14
3.65255e-14
7.70637e-13
7.21576e-13
2.2485e-14
5.02732e-13
2.44864e-14
7.2176e-13
3.67589e-14
7.71346e-13
4.13859e-14
3.41578e-14
1.99648e-14
8.14818e-13
5.06642e-14
6.9485e-14
6.7859e-14
1e-14
1.23355e-13
1.64176e-14
1.05534e-14
1e-14
1.16701e-14
1.37226e-13
1e-14
1.44586e-12
1.78295e-13
1.69999e-12
1e-14
1e-14
1.03472e-14
8.31612e-14
1.4798e-14
7.01651e-14
1.0147e-14
2.35772e-14
4.77534e-14
4.92751e-13
3.14655e-14
1.13809e-13
1.00711e-14
4.81649e-14
1.39145e-14
5.93012e-13
1.0514e-14
6.98623e-14
1e-14
2.39459e-14
1.02652e-14
9.33198e-14
1.45142e-14
9.98848e-13
1.46962e-12
1.74259e-14
7.91389e-14
2.12371e-13
2.148e-14
1.93211e-13
1e-14
1e-14
1.05151e-14
4.02026e-13
1.24172e-14
5.60175e-14
1.06195e-14
6.06392e-13
2.69389e-14
7.57194e-14
1.72367e-13
1.52554e-12