/*--------------------------------*- C++ -*----------------------------------*\
| =========                 |                                                 |
| \\      /  F ield         | OpenFOAM: The Open Source CFD Toolbox           |
|  \\    /   O peration     | Version:  2.1.1                                 |
|   \\  /    A nd           | Web:      www.OpenFOAM.org                      |
|    \\/     M anipulation  |                                                 |
\*---------------------------------------------------------------------------*/
FoamFile
{
    version     2.0;
    format      ascii;
    class       volVectorField;
    location    "0.002";
    object      U;
}
// * * * * * * * * * * * * * * * * * * * * * * * * * * * * * * * * * * * * * //

dimensions      [0 1 -1 0 0 0 0];

internalField   nonuniform List<vector> 
10339
(
(-1.1591e-05 4.51647e-08 0.112545)
(4.58486e-08 -1.16202e-05 0.112546)
(-1.10215e-05 -1.09923e-05 0.112676)
(-7.77717e-06 -1.0569e-05 0.112645)
(-2.94034e-05 -1.05063e-05 0.1126)
(-1.90971e-05 -9.32169e-06 0.11255)
(-4.55178e-05 -9.68282e-06 0.112503)
(-2.07043e-05 -7.58833e-06 0.112452)
(-6.02746e-05 -9.39177e-06 0.112402)
(-6.24138e-06 -5.95044e-06 0.11234)
(-7.85949e-05 -1.03079e-05 0.112266)
(3.17032e-05 -4.48483e-06 0.112132)
(-0.000120562 -1.26402e-05 0.111926)
(0.000110238 -6.06935e-06 0.11222)
(-0.000206622 -1.56293e-05 0.11278)
(0.000242235 -3.53102e-05 0.0886713)
(0.0015077 -1.90008e-05 0.0295151)
(-1.05324e-05 -7.72518e-06 0.112645)
(-7.40517e-06 -7.37221e-06 0.112621)
(-2.8001e-05 -8.065e-06 0.112583)
(-1.83696e-05 -6.40207e-06 0.112536)
(-4.36055e-05 -8.96528e-06 0.112489)
(-2.02722e-05 -4.34805e-06 0.11244)
(-5.84853e-05 -1.10216e-05 0.112394)
(-7.43418e-06 1.04784e-06 0.112343)
(-7.73207e-05 -1.69935e-05 0.112295)
(2.84071e-05 1.6092e-05 0.112214)
(-0.00012143 -3.08828e-05 0.112083)
(0.000104672 5.52039e-05 0.112453)
(-0.000240981 -5.99912e-05 0.113188)
(0.000252897 8.96091e-05 0.0892974)
(0.00151651 -0.000120649 0.0298661)
(-1.05042e-05 -2.93342e-05 0.112601)
(-8.1172e-06 -2.79901e-05 0.112584)
(-2.84403e-05 -2.8397e-05 0.112553)
(-1.99862e-05 -2.43322e-05 0.112509)
(-4.34564e-05 -2.73092e-05 0.112463)
(-2.27752e-05 -1.8521e-05 0.112415)
(-5.47958e-05 -2.83768e-05 0.112374)
(-1.24545e-05 -9.37556e-06 0.112337)
(-6.31962e-05 -3.40848e-05 0.112322)
(1.56296e-05 7.44933e-06 0.112293)
(-7.79744e-05 -4.81626e-05 0.112271)
(7.43605e-05 3.26404e-05 0.113287)
(-0.000120218 -4.7122e-05 0.115963)
(0.000151078 -0.000117009 0.0942058)
(0.000146114 -0.00207841 0.028169)
(-9.36161e-06 -1.90718e-05 0.112551)
(-6.46675e-06 -1.83819e-05 0.112538)
(-2.43509e-05 -1.99624e-05 0.112511)
(-1.72678e-05 -1.72458e-05 0.11247)
(-3.77589e-05 -2.15125e-05 0.112422)
(-2.12877e-05 -1.44804e-05 0.112371)
(-4.91922e-05 -2.45593e-05 0.11233)
(-1.32685e-05 -6.66279e-06 0.112299)
(-6.02445e-05 -3.36716e-05 0.112292)
(1.37134e-05 1.63214e-05 0.112266)
(-8.93972e-05 -6.76854e-05 0.112514)
(9.82063e-05 0.000123172 0.114535)
(-0.000399621 -0.000178489 0.113495)
(0.000479201 0.000350363 0.0755425)
(-0.00801443 -0.00324968 0.0250232)
(-9.72863e-06 -4.54795e-05 0.112503)
(-9.01278e-06 -4.3557e-05 0.11249)
(-2.73174e-05 -4.34025e-05 0.112465)
(-2.15495e-05 -3.77226e-05 0.112424)
(-4.06836e-05 -4.06308e-05 0.112372)
(-2.57303e-05 -2.83718e-05 0.112312)
(-4.6852e-05 -4.19335e-05 0.112259)
(-2.15572e-05 -1.44002e-05 0.112215)
(-3.97969e-05 -5.15317e-05 0.112177)
(-1.43428e-05 1.35184e-05 0.112153)
(2.83335e-05 -0.000101375 0.112979)
(-8.42064e-05 0.00017328 0.113959)
(0.000268321 -0.000209535 0.0889356)
(-0.00134928 -0.00208623 0.0389025)
(0.00209832 0.00342061 0.0120697)
(-7.61801e-06 -2.06411e-05 0.112452)
(-4.40144e-06 -2.02235e-05 0.11244)
(-1.85453e-05 -2.26899e-05 0.112416)
(-1.45128e-05 -2.12153e-05 0.112373)
(-2.8413e-05 -2.56182e-05 0.112313)
(-2.24953e-05 -2.23788e-05 0.11224)
(-3.51273e-05 -2.61546e-05 0.112166)
(-2.26832e-05 -2.24826e-05 0.112088)
(-3.02371e-05 -2.45731e-05 0.111987)
(-3.05039e-05 -5.25735e-05 0.112143)
(5.89366e-06 5.11374e-05 0.114065)
(-0.000294655 -0.000116809 0.112294)
(0.000331298 0.000384962 0.0724179)
(0.000788745 0.00284508 0.0323487)
(-9.42546e-06 -6.02228e-05 0.112402)
(-1.10457e-05 -5.84302e-05 0.112394)
(-2.83548e-05 -5.46987e-05 0.112375)
(-2.45657e-05 -4.91012e-05 0.112331)
(-4.19484e-05 -4.67695e-05 0.11226)
(-2.62768e-05 -3.49973e-05 0.112167)
(-4.70666e-05 -4.68775e-05 0.112061)
(-1.95159e-05 -2.27271e-05 0.111917)
(-6.48134e-05 -3.89555e-05 0.111799)
(6.37835e-05 -1.64097e-05 0.112541)
(-0.000112009 6.83398e-05 0.113484)
(0.000343982 -5.0563e-05 0.0879335)
(-0.00153098 -0.00223976 0.0360705)
(0.00317843 0.00278153 0.0188158)
(-5.96876e-06 -6.217e-06 0.112341)
(1.0391e-06 -7.35389e-06 0.112343)
(-9.36182e-06 -1.23497e-05 0.112339)
(-6.70351e-06 -1.31964e-05 0.112301)
(-1.43971e-05 -2.14371e-05 0.112217)
(-2.25038e-05 -2.26841e-05 0.112092)
(-2.28645e-05 -1.93225e-05 0.111922)
(-1.28187e-05 -1.27007e-05 0.111678)
(-2.01128e-05 -9.61272e-05 0.111716)
(1.70597e-05 -1.82366e-05 0.113603)
(-0.00034441 -0.000177914 0.112513)
(0.000388785 0.000404739 0.0741013)
(0.000669469 0.00192721 0.0320427)
(-1.02865e-05 -7.85464e-05 0.112266)
(-1.69355e-05 -7.72596e-05 0.112296)
(-3.40714e-05 -6.31459e-05 0.112323)
(-3.36616e-05 -6.01792e-05 0.112294)
(-5.16104e-05 -3.97435e-05 0.11218)
(-2.45975e-05 -3.02871e-05 0.111992)
(-3.90162e-05 -6.52317e-05 0.111808)
(-9.64137e-05 -2.17328e-05 0.111723)
(-6.75466e-05 -6.74132e-05 0.11251)
(-8.23545e-05 0.000265339 0.113487)
(0.000342925 -0.000250127 0.0890194)
(-0.00109464 -0.00347651 0.0386869)
(0.00114964 0.000864252 0.01452)
(-4.47077e-06 3.17547e-05 0.112132)
(1.60871e-05 2.84372e-05 0.112215)
(7.46529e-06 1.56961e-05 0.112294)
(1.62844e-05 1.37901e-05 0.112268)
(1.34332e-05 -1.42038e-05 0.112156)
(-5.30215e-05 -3.04471e-05 0.112148)
(-1.82028e-05 6.43696e-05 0.11255)
(-1.8383e-05 1.69267e-05 0.113613)
(0.000266618 -7.70868e-05 0.113502)
(-0.000561916 -0.000561202 0.112662)
(0.000460287 0.000584932 0.0707502)
(-0.000709143 -0.00566224 0.0266126)
(-1.26146e-05 -0.00012052 0.111926)
(-3.07992e-05 -0.000121371 0.112084)
(-4.81021e-05 -7.78974e-05 0.112272)
(-6.7593e-05 -8.92974e-05 0.112515)
(-0.000101436 2.85324e-05 0.112981)
(5.15199e-05 6.23069e-06 0.114068)
(6.75343e-05 -0.000111051 0.113488)
(-0.000175164 -0.000339214 0.11252)
(-0.000249869 0.000354291 0.0890212)
(0.000581056 0.000466023 0.0707922)
(-0.0112445 -0.0112324 0.0329832)
(-6.0158e-06 0.000110242 0.11222)
(5.52353e-05 0.000104702 0.112454)
(3.2695e-05 7.43806e-05 0.113287)
(0.000123274 9.82717e-05 0.114535)
(0.000173429 -8.41435e-05 0.11396)
(-0.00011679 -0.000294335 0.112295)
(-4.89206e-05 0.000344175 0.0879369)
(0.000408844 0.000390607 0.0741064)
(-0.00347722 -0.00109359 0.038695)
(-0.00564153 -0.000707628 0.0266405)
(-1.55725e-05 -0.000206578 0.11278)
(-5.99096e-05 -0.0002409 0.113187)
(-4.70288e-05 -0.000120095 0.115962)
(-0.000178335 -0.000399615 0.113495)
(-0.000209414 0.000268249 0.0889359)
(0.000385016 0.00033132 0.0724178)
(-0.00223951 -0.00153095 0.0360706)
(0.00192764 0.000669298 0.0320428)
(0.000864536 0.00114986 0.0145222)
(-3.52211e-05 0.000242267 0.0886706)
(8.9696e-05 0.000252885 0.0892966)
(-0.000117026 0.00015111 0.0942051)
(0.000350368 0.000479237 0.0755423)
(-0.00208624 -0.00134935 0.0389026)
(0.00284508 0.00078874 0.0323487)
(0.00278152 0.00317855 0.0188158)
(-1.97189e-05 0.00150735 0.0295128)
(-0.0001205 0.00151638 0.0298657)
(-0.00207829 0.000146088 0.0281685)
(-0.0032496 -0.00801455 0.0250233)
(0.00342068 0.0020983 0.0120698)
(-1.15435e-05 -1.14984e-05 0.112678)
(-9.63803e-06 -1.15035e-05 0.112646)
(-3.23283e-05 -1.13428e-05 0.112602)
(-2.23729e-05 -1.00853e-05 0.112552)
(-4.95718e-05 -1.03254e-05 0.112506)
(-2.47377e-05 -8.16907e-06 0.112454)
(-6.51958e-05 -9.93141e-06 0.112405)
(-1.08988e-05 -6.52927e-06 0.112342)
(-8.34931e-05 -1.08571e-05 0.112268)
(2.75997e-05 -5.24069e-06 0.112132)
(-0.000124317 -1.26658e-05 0.111926)
(0.000107091 -8.16786e-06 0.112218)
(-0.000209914 -1.4906e-05 0.112779)
(0.000240204 -3.51132e-05 0.0886651)
(0.00150941 -1.85736e-05 0.0295208)
(-1.14868e-05 -9.56953e-06 0.112647)
(-8.8151e-06 -8.77311e-06 0.112623)
(-3.07292e-05 -9.51259e-06 0.112585)
(-2.13668e-05 -7.53729e-06 0.112537)
(-4.75748e-05 -1.01222e-05 0.112492)
(-2.42851e-05 -5.40639e-06 0.112441)
(-6.33377e-05 -1.21702e-05 0.112396)
(-1.19195e-05 1.2396e-07 0.112344)
(-8.24225e-05 -1.81663e-05 0.112297)
(2.4572e-05 1.51983e-05 0.112213)
(-0.000126799 -3.2319e-05 0.112083)
(0.000102299 5.54889e-05 0.112449)
(-0.000241851 -6.10219e-05 0.113186)
(0.000250493 8.93304e-05 0.0892922)
(0.00151803 -0.000120862 0.0298722)
(-1.13472e-05 -3.22851e-05 0.112603)
(-9.58101e-06 -3.07369e-05 0.112586)
(-3.10995e-05 -3.10397e-05 0.112555)
(-2.29662e-05 -2.66829e-05 0.112511)
(-4.74304e-05 -2.95629e-05 0.112466)
(-2.67959e-05 -2.04399e-05 0.112417)
(-5.9576e-05 -3.0197e-05 0.112377)
(-1.71471e-05 -1.0834e-05 0.112338)
(-6.80908e-05 -3.55265e-05 0.112323)
(1.11622e-05 6.22106e-06 0.112292)
(-8.06341e-05 -4.84881e-05 0.11227)
(7.14414e-05 3.18116e-05 0.113286)
(-0.000124632 -4.72368e-05 0.115959)
(0.00014919 -0.000116914 0.0942013)
(0.000146328 -0.00207879 0.028174)
(-1.01159e-05 -2.23538e-05 0.112553)
(-7.56972e-06 -2.13773e-05 0.112539)
(-2.66851e-05 -2.29327e-05 0.112513)
(-1.98726e-05 -1.98447e-05 0.112471)
(-4.12881e-05 -2.40622e-05 0.112425)
(-2.48513e-05 -1.66829e-05 0.112373)
(-5.35619e-05 -2.67164e-05 0.112332)
(-1.73641e-05 -8.64795e-06 0.112299)
(-6.51161e-05 -3.54048e-05 0.112293)
(1.09522e-05 1.39521e-05 0.112264)
(-9.44167e-05 -6.98646e-05 0.112512)
(9.57214e-05 0.0001209 0.114529)
(-0.000399563 -0.000182102 0.113494)
(0.000476334 0.000350238 0.0755374)
(-0.0080148 -0.00324991 0.0250276)
(-1.03748e-05 -4.95213e-05 0.112506)
(-1.01692e-05 -4.75105e-05 0.112493)
(-2.95834e-05 -4.73835e-05 0.112467)
(-2.41117e-05 -4.12635e-05 0.112426)
(-4.42541e-05 -4.41966e-05 0.112375)
(-2.93348e-05 -3.12782e-05 0.112314)
(-5.13771e-05 -4.4882e-05 0.112261)
(-2.57812e-05 -1.63523e-05 0.112215)
(-4.50209e-05 -5.38164e-05 0.112177)
(-1.9192e-05 1.26804e-05 0.112152)
(2.58023e-05 -0.000103856 0.112976)
(-8.84563e-05 0.000174687 0.113955)
(0.000267236 -0.00021527 0.0889313)
(-0.00134782 -0.00208604 0.0389092)
(0.00209891 0.00342052 0.0120724)
(-8.1885e-06 -2.4696e-05 0.112454)
(-5.44842e-06 -2.42304e-05 0.112441)
(-2.04735e-05 -2.67132e-05 0.112417)
(-1.67112e-05 -2.4784e-05 0.112374)
(-3.1309e-05 -2.92251e-05 0.112315)
(-2.5427e-05 -2.53298e-05 0.112241)
(-3.85083e-05 -2.90594e-05 0.112167)
(-2.60493e-05 -2.51094e-05 0.112088)
(-3.39074e-05 -2.60583e-05 0.111987)
(-3.33656e-05 -5.42197e-05 0.112139)
(3.02956e-06 5.24061e-05 0.114063)
(-0.000300543 -0.000118912 0.112288)
(0.000329838 0.000385849 0.072413)
(0.000790137 0.0028452 0.032353)
(-9.95158e-06 -6.51315e-05 0.112405)
(-1.21745e-05 -6.32679e-05 0.112397)
(-3.01966e-05 -5.94723e-05 0.112378)
(-2.6734e-05 -5.34676e-05 0.112333)
(-4.4917e-05 -5.12648e-05 0.112262)
(-2.91819e-05 -3.83949e-05 0.112169)
(-5.12578e-05 -5.10144e-05 0.112062)
(-2.22663e-05 -2.4584e-05 0.111917)
(-6.89542e-05 -4.2532e-05 0.111797)
(6.17833e-05 -1.50926e-05 0.11254)
(-0.000114945 6.54992e-05 0.113478)
(0.000340535 -5.69361e-05 0.0879317)
(-0.00153 -0.0022386 0.0360767)
(0.00317926 0.0027814 0.0188186)
(-6.52864e-06 -1.08533e-05 0.112342)
(1.20681e-07 -1.1847e-05 0.112344)
(-1.08399e-05 -1.70628e-05 0.11234)
(-8.65838e-06 -1.72931e-05 0.112301)
(-1.63568e-05 -2.56391e-05 0.112218)
(-2.50966e-05 -2.6002e-05 0.112092)
(-2.47167e-05 -2.2018e-05 0.111922)
(-1.55669e-05 -1.55808e-05 0.111678)
(-2.05044e-05 -9.91548e-05 0.111715)
(1.48775e-05 -2.46336e-05 0.113599)
(-0.000355754 -0.000183233 0.112509)
(0.000386605 0.000403482 0.0740961)
(0.000670985 0.00192697 0.0320474)
(-1.08427e-05 -8.34357e-05 0.112268)
(-1.81298e-05 -8.23798e-05 0.112298)
(-3.55284e-05 -6.80367e-05 0.112325)
(-3.53631e-05 -6.50422e-05 0.112296)
(-5.38709e-05 -4.49172e-05 0.112181)
(-2.60672e-05 -3.38966e-05 0.111993)
(-4.2803e-05 -6.86379e-05 0.111806)
(-9.93877e-05 -2.16938e-05 0.111724)
(-7.50767e-05 -7.29065e-05 0.112508)
(-8.69834e-05 0.000260465 0.113482)
(0.000343428 -0.000254156 0.0890146)
(-0.00109414 -0.00347503 0.0386933)
(0.00114998 0.000864394 0.0145224)
(-5.23352e-06 2.76342e-05 0.112132)
(1.51945e-05 2.45973e-05 0.112214)
(6.24449e-06 1.12344e-05 0.112293)
(1.39886e-05 1.10291e-05 0.112266)
(1.26277e-05 -1.89924e-05 0.112156)
(-5.39227e-05 -3.33728e-05 0.112145)
(-1.62756e-05 6.21951e-05 0.11255)
(-2.28157e-05 1.48153e-05 0.113615)
(0.00026144 -8.23664e-05 0.113495)
(-0.000562998 -0.00055935 0.112654)
(0.000458181 0.00058052 0.070746)
(-0.000708342 -0.00566273 0.0266169)
(-1.26444e-05 -0.000124283 0.111926)
(-3.22334e-05 -0.00012674 0.112084)
(-4.84391e-05 -8.05633e-05 0.112271)
(-6.96933e-05 -9.43156e-05 0.112514)
(-0.000103951 2.58808e-05 0.112979)
(5.2754e-05 3.25153e-06 0.114066)
(6.52349e-05 -0.000114787 0.113484)
(-0.000180208 -0.000352054 0.112519)
(-0.000253364 0.000349405 0.0890101)
(0.000582174 0.00046101 0.0707845)
(-0.0112607 -0.0112235 0.0329874)
(-8.10361e-06 0.00010709 0.112218)
(5.5524e-05 0.000102323 0.11245)
(3.18726e-05 7.14611e-05 0.113286)
(0.000120961 9.57689e-05 0.11453)
(0.000174817 -8.84813e-05 0.113956)
(-0.000118494 -0.000300238 0.112289)
(-5.55086e-05 0.000340527 0.0879338)
(0.000406336 0.000387691 0.0740992)
(-0.00348502 -0.00109584 0.0386966)
(-0.00563494 -0.000712478 0.0266316)
(-1.48548e-05 -0.000209889 0.112779)
(-6.09341e-05 -0.000241771 0.113186)
(-4.71641e-05 -0.000124536 0.115958)
(-0.000181952 -0.00039957 0.113494)
(-0.000215122 0.000267246 0.0889315)
(0.000385944 0.000329923 0.0724128)
(-0.00223851 -0.00153003 0.0360769)
(0.00192671 0.000670761 0.0320475)
(0.00086395 0.00115093 0.0145234)
(-3.50305e-05 0.000240238 0.0886644)
(8.94129e-05 0.000250475 0.0892915)
(-0.000116937 0.000149223 0.0942006)
(0.000350272 0.000476393 0.0755373)
(-0.00208603 -0.00134785 0.0389092)
(0.00284519 0.000790153 0.032353)
(0.00278142 0.00317938 0.0188186)
(-1.9285e-05 0.00150907 0.0295184)
(-0.000120713 0.0015179 0.0298718)
(-0.00207869 0.000146329 0.0281735)
(-0.00324984 -0.0080149 0.0250276)
(0.00342058 0.0020989 0.0120724)
(-1.26552e-05 -1.25883e-05 0.112674)
(-1.07895e-05 -1.24726e-05 0.112644)
(-3.53537e-05 -1.2107e-05 0.1126)
(-2.51203e-05 -1.07962e-05 0.11255)
(-5.32241e-05 -1.0939e-05 0.112505)
(-2.79908e-05 -8.81691e-06 0.112453)
(-6.9667e-05 -1.0465e-05 0.112407)
(-1.50127e-05 -6.98201e-06 0.112342)
(-8.81748e-05 -1.11144e-05 0.11227)
(2.35709e-05 -6.04582e-06 0.112131)
(-0.000128209 -1.26524e-05 0.111927)
(0.000104792 -1.01455e-05 0.112215)
(-0.000214455 -1.52686e-05 0.112778)
(0.000237406 -3.4367e-05 0.0886598)
(0.00151053 -1.85688e-05 0.029528)
(-1.24751e-05 -1.07268e-05 0.112644)
(-9.99006e-06 -9.94961e-06 0.112621)
(-3.35113e-05 -1.06273e-05 0.112583)
(-2.39346e-05 -8.30156e-06 0.112535)
(-5.1209e-05 -1.09998e-05 0.112492)
(-2.75891e-05 -6.14569e-06 0.112441)
(-6.76717e-05 -1.31328e-05 0.112398)
(-1.58988e-05 -6.05076e-07 0.112344)
(-8.75115e-05 -1.93668e-05 0.112299)
(2.08557e-05 1.46252e-05 0.112212)
(-0.000131916 -3.37205e-05 0.112084)
(9.95254e-05 5.67636e-05 0.112447)
(-0.000243674 -6.35798e-05 0.113184)
(0.000247834 9.06048e-05 0.0892871)
(0.00151946 -0.000120892 0.0298788)
(-1.21219e-05 -3.53045e-05 0.112601)
(-1.06896e-05 -3.35065e-05 0.112585)
(-3.3711e-05 -3.36221e-05 0.112554)
(-2.54675e-05 -2.88336e-05 0.11251)
(-5.10516e-05 -3.17363e-05 0.112466)
(-3.01271e-05 -2.21228e-05 0.112417)
(-6.40276e-05 -3.19839e-05 0.112379)
(-2.15135e-05 -1.23192e-05 0.112339)
(-7.2646e-05 -3.70162e-05 0.112325)
(6.81476e-06 4.94032e-06 0.112292)
(-8.27888e-05 -4.91989e-05 0.112271)
(6.77192e-05 2.94839e-05 0.113283)
(-0.000129518 -4.59133e-05 0.115955)
(0.000147766 -0.000116627 0.0941966)
(0.000146963 -0.0020794 0.0281795)
(-1.08146e-05 -2.50944e-05 0.11255)
(-8.31118e-06 -2.39319e-05 0.112537)
(-2.88506e-05 -2.54386e-05 0.112512)
(-2.20259e-05 -2.1986e-05 0.11247)
(-4.44428e-05 -2.62857e-05 0.112425)
(-2.7748e-05 -1.84576e-05 0.112373)
(-5.76698e-05 -2.87845e-05 0.112334)
(-2.10328e-05 -1.04458e-05 0.1123)
(-6.99944e-05 -3.75435e-05 0.112295)
(7.96856e-06 1.16547e-05 0.112263)
(-0.000100651 -7.2676e-05 0.112513)
(9.45796e-05 0.000117523 0.114524)
(-0.000398778 -0.000186423 0.113493)
(0.000471546 0.000349053 0.0755328)
(-0.00801523 -0.00325088 0.0250327)
(-1.09702e-05 -5.31696e-05 0.112505)
(-1.10506e-05 -5.11573e-05 0.112493)
(-3.1787e-05 -5.10279e-05 0.112468)
(-2.63339e-05 -4.44246e-05 0.112426)
(-4.74995e-05 -4.7439e-05 0.112376)
(-3.24811e-05 -3.38544e-05 0.112315)
(-5.5806e-05 -4.78514e-05 0.112263)
(-3.01625e-05 -1.82573e-05 0.112216)
(-5.00048e-05 -5.62885e-05 0.112178)
(-2.41315e-05 1.12783e-05 0.112152)
(2.26235e-05 -0.00010667 0.112975)
(-9.36966e-05 0.000176156 0.113951)
(0.000264846 -0.000223648 0.0889292)
(-0.00134635 -0.00208678 0.0389161)
(0.00209974 0.00342061 0.012076)
(-8.82911e-06 -2.79423e-05 0.112453)
(-6.19378e-06 -2.75442e-05 0.112441)
(-2.21632e-05 -3.00393e-05 0.112418)
(-1.84737e-05 -2.76715e-05 0.112374)
(-3.38804e-05 -3.23701e-05 0.112316)
(-2.80327e-05 -2.79358e-05 0.112242)
(-4.1902e-05 -3.19929e-05 0.112168)
(-2.91376e-05 -2.74638e-05 0.112088)
(-3.81704e-05 -2.84399e-05 0.111988)
(-3.65715e-05 -5.57816e-05 0.112137)
(-4.4958e-07 5.27448e-05 0.114061)
(-0.000307944 -0.000120883 0.112281)
(0.000327514 0.000385472 0.0724085)
(0.000791137 0.00284552 0.0323586)
(-1.04763e-05 -6.95971e-05 0.112407)
(-1.31417e-05 -6.7606e-05 0.112399)
(-3.19927e-05 -6.39223e-05 0.11238)
(-2.88035e-05 -5.7572e-05 0.112335)
(-4.79006e-05 -5.56881e-05 0.112265)
(-3.21188e-05 -4.17967e-05 0.11217)
(-5.54188e-05 -5.51571e-05 0.112064)
(-2.60206e-05 -2.63451e-05 0.111918)
(-7.30331e-05 -4.64545e-05 0.111796)
(5.96986e-05 -1.39228e-05 0.112538)
(-0.000118381 6.31128e-05 0.113474)
(0.000336168 -6.26742e-05 0.0879282)
(-0.00152941 -0.00223748 0.0360832)
(0.00318032 0.00278178 0.0188212)
(-6.9692e-06 -1.49788e-05 0.112342)
(-6.18504e-07 -1.58511e-05 0.112345)
(-1.23235e-05 -2.14414e-05 0.11234)
(-1.04373e-05 -2.09625e-05 0.112302)
(-1.82635e-05 -3.00368e-05 0.112219)
(-2.74387e-05 -2.91008e-05 0.112092)
(-2.64833e-05 -2.57826e-05 0.111923)
(-1.8402e-05 -1.83913e-05 0.111677)
(-2.17285e-05 -0.000101718 0.111715)
(1.32704e-05 -3.05301e-05 0.113595)
(-0.000366876 -0.00018808 0.112505)
(0.000383632 0.000401627 0.0740929)
(0.00067308 0.00192735 0.032054)
(-1.11131e-05 -8.81306e-05 0.11227)
(-1.93356e-05 -8.74759e-05 0.1123)
(-3.70035e-05 -7.25761e-05 0.112327)
(-3.75051e-05 -6.99122e-05 0.112297)
(-5.6363e-05 -4.98832e-05 0.112182)
(-2.84635e-05 -3.81058e-05 0.111994)
(-4.67782e-05 -7.26539e-05 0.111805)
(-0.000101958 -2.19178e-05 0.111725)
(-8.20891e-05 -8.08243e-05 0.112507)
(-9.14324e-05 0.00025683 0.11348)
(0.000342572 -0.000257804 0.0890113)
(-0.00109372 -0.00347309 0.0387004)
(0.00115048 0.000864321 0.0145254)
(-6.03058e-06 2.35883e-05 0.112131)
(1.4641e-05 2.08943e-05 0.112213)
(4.98173e-06 6.88208e-06 0.112293)
(1.17151e-05 8.02972e-06 0.112265)
(1.12612e-05 -2.3956e-05 0.112155)
(-5.5483e-05 -3.65352e-05 0.112143)
(-1.4207e-05 5.99819e-05 0.112548)
(-2.94818e-05 1.31843e-05 0.113612)
(0.000257084 -9.01179e-05 0.113491)
(-0.000560905 -0.000559798 0.112649)
(0.000455138 0.000580118 0.0707431)
(-0.000708801 -0.00566361 0.0266227)
(-1.26252e-05 -0.000128172 0.111927)
(-3.36262e-05 -0.000131853 0.112085)
(-4.91632e-05 -8.27333e-05 0.112272)
(-7.2532e-05 -0.000100579 0.112514)
(-0.000106764 2.26637e-05 0.112978)
(5.29174e-05 -3.33765e-07 0.114064)
(6.29888e-05 -0.000118553 0.11348)
(-0.000187205 -0.000366086 0.112515)
(-0.000258035 0.000344007 0.0890065)
(0.000578223 0.000455175 0.0707792)
(-0.0112546 -0.0112349 0.0329948)
(-1.00755e-05 0.000104788 0.112215)
(5.67994e-05 9.95337e-05 0.112448)
(2.95292e-05 6.7728e-05 0.113283)
(0.000117575 9.46073e-05 0.114525)
(0.000176214 -9.37036e-05 0.113952)
(-0.00012064 -0.000307688 0.112282)
(-6.22138e-05 0.000336124 0.0879294)
(0.000402388 0.000383936 0.0740953)
(-0.00348304 -0.00109365 0.0387036)
(-0.00563454 -0.000713029 0.0266382)
(-1.52347e-05 -0.000214453 0.112778)
(-6.34918e-05 -0.000243598 0.113183)
(-4.58575e-05 -0.000129443 0.115954)
(-0.000186277 -0.000398772 0.113493)
(-0.000223515 0.000264859 0.0889293)
(0.000385537 0.000327605 0.0724083)
(-0.00223746 -0.00152945 0.0360834)
(0.00192704 0.000672982 0.032054)
(0.000863547 0.00115161 0.0145265)
(-3.42935e-05 0.000237431 0.0886591)
(9.06882e-05 0.000247813 0.0892864)
(-0.000116649 0.0001478 0.0941959)
(0.000349086 0.000471612 0.0755326)
(-0.00208677 -0.00134638 0.0389162)
(0.00284551 0.000791153 0.0323586)
(0.00278181 0.00318043 0.0188212)
(-1.92713e-05 0.00151019 0.0295256)
(-0.000120747 0.00151934 0.0298784)
(-0.00207932 0.00014697 0.0281791)
(-0.00325083 -0.00801533 0.0250327)
(0.00342066 0.00209973 0.012076)
(-1.46937e-05 -1.45837e-05 0.112665)
(-1.22863e-05 -1.36874e-05 0.112635)
(-3.84068e-05 -1.30995e-05 0.112592)
(-2.70689e-05 -1.17158e-05 0.112543)
(-5.61888e-05 -1.16437e-05 0.112501)
(-3.00655e-05 -9.43037e-06 0.112449)
(-7.30993e-05 -1.08356e-05 0.112407)
(-1.79179e-05 -7.41421e-06 0.11234)
(-9.22628e-05 -1.13006e-05 0.112273)
(2.05421e-05 -6.56151e-06 0.11213)
(-0.000131752 -1.25416e-05 0.11193)
(0.000102138 -1.17699e-05 0.112212)
(-0.000218469 -1.51105e-05 0.112777)
(0.000233773 -3.38065e-05 0.0886566)
(0.00151282 -1.91158e-05 0.0295353)
(-1.36936e-05 -1.22301e-05 0.112635)
(-1.10235e-05 -1.09758e-05 0.112612)
(-3.63335e-05 -1.15271e-05 0.112576)
(-2.57231e-05 -8.65538e-06 0.112529)
(-5.38564e-05 -1.15874e-05 0.112488)
(-2.94482e-05 -6.29871e-06 0.112437)
(-7.10837e-05 -1.37663e-05 0.112398)
(-1.87123e-05 -1.04818e-06 0.112342)
(-9.17671e-05 -2.01851e-05 0.112301)
(1.80306e-05 1.47347e-05 0.112211)
(-0.000136589 -3.52485e-05 0.112086)
(9.6653e-05 5.78863e-05 0.112445)
(-0.000245568 -6.62026e-05 0.113183)
(0.000244414 9.21432e-05 0.089283)
(0.00152136 -0.00012067 0.029887)
(-1.31134e-05 -3.83283e-05 0.112593)
(-1.15824e-05 -3.63017e-05 0.112577)
(-3.60856e-05 -3.59557e-05 0.112548)
(-2.70867e-05 -3.05284e-05 0.112504)
(-5.38026e-05 -3.34771e-05 0.112463)
(-3.22358e-05 -2.33746e-05 0.112414)
(-6.77358e-05 -3.35487e-05 0.112379)
(-2.46198e-05 -1.33786e-05 0.112338)
(-7.62133e-05 -3.8162e-05 0.112328)
(2.93145e-06 3.91583e-06 0.112292)
(-8.54496e-05 -4.98113e-05 0.112273)
(6.36463e-05 2.71622e-05 0.113279)
(-0.000133285 -4.35985e-05 0.115952)
(0.000145778 -0.000116471 0.0941922)
(0.00014733 -0.0020802 0.0281861)
(-1.17048e-05 -2.70301e-05 0.112544)
(-8.66279e-06 -2.57451e-05 0.112531)
(-3.05749e-05 -2.70732e-05 0.112506)
(-2.32108e-05 -2.31607e-05 0.112465)
(-4.66287e-05 -2.7602e-05 0.112422)
(-2.94026e-05 -1.93816e-05 0.11237)
(-6.08525e-05 -3.02772e-05 0.112334)
(-2.34107e-05 -1.13566e-05 0.112299)
(-7.42076e-05 -3.92173e-05 0.112298)
(5.60815e-06 1.0119e-05 0.112262)
(-0.000106704 -7.57452e-05 0.112515)
(9.4178e-05 0.00011522 0.114521)
(-0.000398154 -0.000189777 0.113492)
(0.000466088 0.000347724 0.0755279)
(-0.00801555 -0.00325164 0.0250397)
(-1.16664e-05 -5.61267e-05 0.112501)
(-1.16582e-05 -5.38375e-05 0.112488)
(-3.35335e-05 -5.37818e-05 0.112465)
(-2.76383e-05 -4.66045e-05 0.112423)
(-4.9987e-05 -4.99194e-05 0.112375)
(-3.47288e-05 -3.5738e-05 0.112314)
(-5.9445e-05 -5.04605e-05 0.112264)
(-3.33845e-05 -1.9649e-05 0.112217)
(-5.41125e-05 -5.90227e-05 0.112181)
(-2.93024e-05 1.01555e-05 0.112153)
(1.93051e-05 -0.000110252 0.112975)
(-9.80889e-05 0.000176837 0.113949)
(0.000261815 -0.000233872 0.0889284)
(-0.0013449 -0.00208729 0.0389254)
(0.00210059 0.00342062 0.01208)
(-9.43726e-06 -3.00173e-05 0.112449)
(-6.35741e-06 -2.94099e-05 0.112437)
(-2.34035e-05 -3.21312e-05 0.112415)
(-1.94002e-05 -2.93222e-05 0.112371)
(-3.57722e-05 -3.46186e-05 0.112315)
(-2.97945e-05 -2.96771e-05 0.112241)
(-4.45429e-05 -3.44207e-05 0.112169)
(-3.15393e-05 -2.90988e-05 0.112088)
(-4.19719e-05 -3.13919e-05 0.111989)
(-3.96154e-05 -5.77059e-05 0.112137)
(-4.81629e-06 5.24199e-05 0.114059)
(-0.000316119 -0.000122703 0.112276)
(0.000325722 0.000384077 0.0724059)
(0.000792478 0.00284596 0.0323659)
(-1.0833e-05 -7.30367e-05 0.112407)
(-1.37774e-05 -7.10295e-05 0.112399)
(-3.35494e-05 -6.7633e-05 0.11238)
(-3.03006e-05 -6.07629e-05 0.112336)
(-5.05034e-05 -5.93291e-05 0.112266)
(-3.45498e-05 -4.44169e-05 0.112171)
(-5.89306e-05 -5.86547e-05 0.112066)
(-2.96692e-05 -2.77863e-05 0.111919)
(-7.72897e-05 -4.99029e-05 0.111797)
(5.73151e-05 -1.33052e-05 0.112537)
(-0.000121528 6.03616e-05 0.113472)
(0.000331652 -6.63308e-05 0.0879262)
(-0.00152793 -0.00223608 0.0360923)
(0.00318119 0.00278251 0.018825)
(-7.39204e-06 -1.78967e-05 0.11234)
(-1.06809e-06 -1.86767e-05 0.112343)
(-1.33672e-05 -2.45541e-05 0.11234)
(-1.13471e-05 -2.33452e-05 0.112301)
(-1.96295e-05 -3.32629e-05 0.112219)
(-2.90747e-05 -3.1481e-05 0.112093)
(-2.79456e-05 -2.9424e-05 0.111924)
(-2.07003e-05 -2.05642e-05 0.111676)
(-2.33438e-05 -0.000103096 0.111715)
(1.1033e-05 -3.51921e-05 0.113591)
(-0.000376182 -0.000192186 0.112502)
(0.000380699 0.000399365 0.0740909)
(0.000674968 0.00192749 0.032061)
(-1.12911e-05 -9.22264e-05 0.112273)
(-2.01498e-05 -9.17201e-05 0.112302)
(-3.8135e-05 -7.61398e-05 0.112329)
(-3.918e-05 -7.41229e-05 0.1123)
(-5.90568e-05 -5.40083e-05 0.112185)
(-3.13979e-05 -4.19234e-05 0.111995)
(-5.01684e-05 -7.7044e-05 0.111807)
(-0.000103403 -2.31649e-05 0.111726)
(-8.87168e-05 -8.79338e-05 0.112509)
(-9.65369e-05 0.000254716 0.113479)
(0.000340057 -0.00026193 0.08901)
(-0.00109286 -0.00347218 0.0387092)
(0.00115076 0.000864617 0.014529)
(-6.52488e-06 2.0547e-05 0.11213)
(1.47561e-05 1.80795e-05 0.112212)
(3.96373e-06 2.98e-06 0.112293)
(1.0164e-05 5.66455e-06 0.112265)
(1.01593e-05 -2.91813e-05 0.112157)
(-5.75376e-05 -3.95797e-05 0.112142)
(-1.33378e-05 5.7494e-05 0.112547)
(-3.47719e-05 1.11617e-05 0.113608)
(0.000254656 -9.60527e-05 0.113491)
(-0.000560397 -0.000559132 0.112645)
(0.000451332 0.00057739 0.0707397)
(-0.000708685 -0.00566472 0.0266291)
(-1.25113e-05 -0.000131718 0.11193)
(-3.51548e-05 -0.000136537 0.112087)
(-4.97744e-05 -8.54079e-05 0.112274)
(-7.5632e-05 -0.000106652 0.112516)
(-0.000110308 1.93372e-05 0.112978)
(5.24592e-05 -4.72753e-06 0.114063)
(6.03145e-05 -0.000121612 0.113478)
(-0.00019203 -0.000376156 0.112512)
(-0.00026146 0.000340645 0.0890068)
(0.000576984 0.000450162 0.0707762)
(-0.0112617 -0.0112337 0.0330036)
(-1.17021e-05 0.000102111 0.112212)
(5.79181e-05 9.66371e-05 0.112446)
(2.72058e-05 6.36495e-05 0.113279)
(0.000115262 9.42119e-05 0.114521)
(0.000176872 -9.80829e-05 0.11395)
(-0.000122607 -0.00031595 0.112277)
(-6.63115e-05 0.000331648 0.0879271)
(0.000399456 0.000380754 0.0740932)
(-0.00348194 -0.00109246 0.0387122)
(-0.00563569 -0.000713669 0.026645)
(-1.51159e-05 -0.000218522 0.112776)
(-6.61007e-05 -0.000245495 0.113182)
(-4.35103e-05 -0.00013322 0.115951)
(-0.000189644 -0.00039813 0.113492)
(-0.000233795 0.000261835 0.0889285)
(0.000384108 0.000325787 0.0724057)
(-0.00223613 -0.001528 0.0360925)
(0.00192727 0.000674944 0.0320609)
(0.000863802 0.00115195 0.0145301)
(-3.37555e-05 0.000233758 0.0886559)
(9.22556e-05 0.000244369 0.0892822)
(-0.00011648 0.000145801 0.0941915)
(0.000347758 0.000466148 0.0755277)
(-0.00208729 -0.00134491 0.0389254)
(0.00284594 0.000792488 0.0323659)
(0.00278253 0.00318131 0.018825)
(-1.97982e-05 0.00151245 0.029533)
(-0.000120533 0.00152123 0.0298866)
(-0.00208014 0.000147337 0.0281858)
(-0.00325157 -0.00801565 0.0250397)
(0.00342067 0.00210059 0.01208)
(-1.68455e-05 -1.66991e-05 0.112643)
(-1.45026e-05 -1.47768e-05 0.112612)
(-4.08846e-05 -1.40251e-05 0.112572)
(-2.78077e-05 -1.2318e-05 0.112528)
(-5.85894e-05 -1.22951e-05 0.112489)
(-2.97156e-05 -9.81718e-06 0.112441)
(-7.47228e-05 -1.12686e-05 0.112402)
(-1.79089e-05 -7.79927e-06 0.112337)
(-9.4336e-05 -1.14878e-05 0.112275)
(1.91647e-05 -6.98077e-06 0.112128)
(-0.000134507 -1.25992e-05 0.111935)
(9.86432e-05 -1.28817e-05 0.11221)
(-0.000220227 -1.3973e-05 0.112776)
(0.000229957 -3.38432e-05 0.0886556)
(0.00151545 -1.91024e-05 0.0295449)
(-1.47741e-05 -1.44393e-05 0.112613)
(-1.20784e-05 -1.19879e-05 0.112591)
(-3.83132e-05 -1.18772e-05 0.112557)
(-2.61927e-05 -8.82238e-06 0.112515)
(-5.60608e-05 -1.15034e-05 0.112477)
(-2.8974e-05 -5.80443e-06 0.11243)
(-7.27414e-05 -1.40111e-05 0.112394)
(-1.85953e-05 4.41545e-08 0.112339)
(-9.38545e-05 -2.09309e-05 0.112304)
(1.66546e-05 1.58069e-05 0.11221)
(-0.000139942 -3.70324e-05 0.112091)
(9.43247e-05 5.94268e-05 0.112444)
(-0.000246872 -6.83654e-05 0.113184)
(0.000240088 9.30837e-05 0.0892807)
(0.00152378 -0.000120645 0.0298972)
(-1.40106e-05 -4.07903e-05 0.112573)
(-1.19392e-05 -3.82816e-05 0.112559)
(-3.76975e-05 -3.7518e-05 0.112531)
(-2.73508e-05 -3.1728e-05 0.112492)
(-5.55124e-05 -3.4514e-05 0.112454)
(-3.21925e-05 -2.38854e-05 0.112408)
(-6.87374e-05 -3.44839e-05 0.112376)
(-2.51308e-05 -1.31366e-05 0.112337)
(-7.83398e-05 -3.91634e-05 0.112331)
(3.36039e-07 3.4567e-06 0.112292)
(-8.78915e-05 -5.00244e-05 0.112276)
(5.93498e-05 2.49305e-05 0.113278)
(-0.000135954 -4.14291e-05 0.11595)
(0.000143418 -0.000116698 0.0941887)
(0.000147874 -0.00208086 0.0281942)
(-1.22892e-05 -2.77587e-05 0.112528)
(-8.84133e-06 -2.62509e-05 0.112517)
(-3.17772e-05 -2.73233e-05 0.112494)
(-2.31327e-05 -2.3055e-05 0.112456)
(-4.8112e-05 -2.76133e-05 0.112415)
(-2.87858e-05 -1.87686e-05 0.112366)
(-6.17074e-05 -3.06095e-05 0.112333)
(-2.33383e-05 -1.16253e-05 0.112298)
(-7.6985e-05 -4.07194e-05 0.112301)
(4.9214e-06 9.74297e-06 0.112262)
(-0.000111939 -7.88737e-05 0.112519)
(9.36853e-05 0.000114242 0.114519)
(-0.000397558 -0.000192584 0.113492)
(0.000459759 0.000346109 0.0755234)
(-0.00801587 -0.00325307 0.0250475)
(-1.23107e-05 -5.85267e-05 0.112489)
(-1.15759e-05 -5.60424e-05 0.112477)
(-3.45551e-05 -5.54727e-05 0.112456)
(-2.76676e-05 -4.80787e-05 0.112417)
(-5.11705e-05 -5.10889e-05 0.112371)
(-3.49588e-05 -3.60431e-05 0.112312)
(-6.12591e-05 -5.18911e-05 0.112265)
(-3.49871e-05 -1.9808e-05 0.112218)
(-5.62505e-05 -6.17833e-05 0.112184)
(-3.33982e-05 1.02806e-05 0.112155)
(1.64153e-05 -0.000114863 0.112978)