/*--------------------------------*- C++ -*----------------------------------*\
| =========                 |                                                 |
| \\      /  F ield         | OpenFOAM: The Open Source CFD Toolbox           |
|  \\    /   O peration     | Version:  2.1.1                                 |
|   \\  /    A nd           | Web:      www.OpenFOAM.org                      |
|    \\/     M anipulation  |                                                 |
\*---------------------------------------------------------------------------*/
FoamFile
{
    version     2.0;
    format      ascii;
    class       volScalarField;
    location    "0.003";
    object      p;
}
// * * * * * * * * * * * * * * * * * * * * * * * * * * * * * * * * * * * * * //

dimensions      [0 2 -2 0 0 0 0];

internalField   nonuniform List<scalar> 
10229
(
0.0225679
0.022972
0.0243472
0.0200563
0.0200863
0.0199716
0.0201608
0.028596
0.0229595
0.0198261
0.0198296
0.019867
0.0198236
0.0199402
0.0200768
0.0305569
0.0231083
0.0199718
0.0199734
0.019949
0.0199789
0.0199096
0.0199033
0.0199904
0.0200905
0.0283963
0.0252187
0.0198398
0.0198434
0.0198593
0.0198674
0.0198943
0.0199268
0.0198661
0.0198978
0.0199419
0.0201799
0.0409088
0.0198968
0.0199016
0.0198966
0.0199091
0.0199018
0.0199098
0.019939
0.0199229
0.0199587
0.0197865
0.0201771
0.0386072
0.0198126
0.0198192
0.019828
0.019844
0.019855
0.019883
0.0198721
0.0199072
0.0199182
0.0199591
0.0199422
0.0326593
0.0198233
0.0198294
0.019833
0.019847
0.0198533
0.0198702
0.0198823
0.0198998
0.0199088
0.0199237
0.0198984
0.0200913
0.0299909
0.0197616
0.0197704
0.0197781
0.0197973
0.0198079
0.0198382
0.0198431
0.0198863
0.0198761
0.0199399
0.019867
0.019991
0.0311172
0.0230698
0.0197537
0.0197609
0.0197678
0.019787
0.0197981
0.0198254
0.0198378
0.019871
0.0198802
0.0199093
0.0199274
0.0199041
0.0200774
0.0281692
0.0197104
0.0197184
0.0197271
0.0197503
0.0197629
0.0197981
0.0198077
0.0198531
0.0198532
0.0199033
0.0198954
0.0199099
0.0199403
0.0305159
0.0196969
0.019705
0.0197137
0.0197375
0.0197505
0.0197875
0.0197979
0.0198466
0.0198425
0.0199088
0.0198674
0.0199789
0.019823
0.0201619
0.0360503
0.0196696
0.0196786
0.0196878
0.0197139
0.0197277
0.0197689
0.0197788
0.0198326
0.0198265
0.0198954
0.0198588
0.019949
0.0198673
0.0199723
0.0318782
0.0196606
0.0196698
0.019679
0.0197058
0.0197195
0.0197624
0.0197714
0.01983
0.019818
0.0199007
0.0198429
0.0199729
0.0198303
0.020087
0.0316531
0.0196514
0.0196609
0.0196702
0.0196978
0.0197116
0.0197556
0.0197643
0.0198244
0.0198126
0.0198969
0.0198401
0.0199722
0.0198265
0.0200574
0.0309943
0.021519
0.0219238
0.0232994
0.0190068
0.019036
0.0189226
0.0191119
0.0275494
0.0219115
0.0187731
0.0187713
0.0188156
0.0187723
0.0188915
0.0190285
0.0295098
0.0220603
0.0189185
0.0189272
0.018896
0.0189283
0.0188597
0.0188525
0.0189403
0.019043
0.0273488
0.024172
0.0187812
0.0187861
0.0188024
0.0188099
0.0188379
0.018872
0.0188126
0.0188468
0.0188921
0.0191322
0.0398522
0.0188334
0.0188395
0.0188355
0.0188497
0.0188433
0.0188498
0.018884
0.0188686
0.0189101
0.0187359
0.0191283
0.0375591
0.0187422
0.0187511
0.0187622
0.0187794
0.0187895
0.0188136
0.0188132
0.0188528
0.0188644
0.0189106
0.0188923
0.0316125
0.0187475
0.0187547
0.0187599
0.0187764
0.0187847
0.0188038
0.0188223
0.0188416
0.0188546
0.0188703
0.018848
0.0190444
0.0289437
0.018679
0.0186873
0.0186971
0.0187197
0.0187333
0.018768
0.0187765
0.018825
0.0188189
0.0188872
0.0188145
0.0189414
0.0300698
0.0220221
0.0186636
0.0186717
0.0186808
0.0187034
0.0187184
0.018751
0.0187689
0.0188081
0.0188275
0.0188538
0.0188732
0.0188535
0.0190289
0.0271215
0.018612
0.0186217
0.018633
0.0186601
0.0186771
0.0187185
0.0187336
0.0187856
0.0187916
0.0188448
0.0188385
0.0188601
0.0188916
0.0294686
0.0185926
0.0186027
0.0186141
0.0186423
0.0186603
0.0187035
0.0187194
0.0187749
0.0187743
0.018848
0.0188098
0.0189285
0.0187726
0.0191122
0.0350049
0.0185599
0.0185707
0.0185831
0.0186142
0.0186334
0.0186811
0.0186969
0.0187576
0.0187549
0.0188327
0.0188019
0.0188959
0.0188159
0.0189229
0.0308315
0.0185471
0.0185584
0.0185711
0.0186033
0.0186226
0.0186725
0.0186875
0.0187528
0.018745
0.0188373
0.0187854
0.0189274
0.0187705
0.0190361
0.0306053
0.0185363
0.0185476
0.0185605
0.0185936
0.0186133
0.0186646
0.0186797
0.0187473
0.0187403
0.0188327
0.0187812
0.0189188
0.0187733
0.0190075
0.0299464
0.0204759
0.0208805
0.0222561
0.0179625
0.0179914
0.017878
0.0180681
0.0265072
0.0208681
0.0177239
0.0177228
0.0177687
0.0177233
0.0178465
0.0179836
0.0284671
0.0210165
0.0178675
0.017877
0.0178449
0.0178812
0.0178114
0.0178055
0.0178938
0.0179994
0.0263054
0.0231278
0.0177235
0.0177285
0.0177468
0.0177545
0.0177852
0.0178205
0.0177633
0.0177989
0.017845
0.0180815
0.0387845
0.0177701
0.0177767
0.0177737
0.0177908
0.0177871
0.017795
0.0178348
0.0178186
0.0178641
0.0176888
0.0180893
0.0365197
0.017668
0.0176767
0.0176901
0.017711
0.0177302
0.0177593
0.0177584
0.0178007
0.0178134
0.0178653
0.0178469
0.0305705
0.0176684
0.0176761
0.0176834
0.0177037
0.0177168
0.0177406
0.0177624
0.0177851
0.0178026
0.0178208
0.0178008
0.0180011
0.0279011
0.0175906
0.0176001
0.0176126
0.0176389
0.0176568
0.017697
0.0177101
0.0177637
0.0177611
0.0178381
0.0177658
0.0178952
0.0290256
0.0209781
0.0175677
0.0175775
0.0175892
0.0176159
0.0176356
0.0176744
0.0176975
0.0177416
0.0177605
0.0177957
0.0178215
0.0178066
0.0179842
0.0260789
0.0175075
0.0175189
0.0175331
0.0175649
0.0175874
0.0176356
0.0176569
0.017716
0.0177249
0.0177864
0.0177857
0.0178119
0.0178469
0.0284262
0.0174816
0.0174933
0.0175078
0.0175417
0.0175653
0.0176161
0.0176389
0.017704
0.0177141
0.017791
0.0177547
0.0178814
0.0177236
0.0180687
0.0339634
0.0174417
0.0174546
0.0174708
0.0175078
0.0175334
0.0175892
0.0176125
0.017683
0.0176903
0.0177732
0.0177466
0.0178447
0.017769
0.0178781
0.0297891
0.0174244
0.0174382
0.0174549
0.0174937
0.0175195
0.0175778
0.0176001
0.0176754
0.0176758
0.0177759
0.0177283
0.0178769
0.0177229
0.017992
0.0295628
0.0174104
0.0174245
0.0174419
0.0174818
0.0175082
0.0175681
0.0175911
0.0176679
0.0176675
0.0177697
0.0177239
0.0178677
0.0177243
0.0179635
0.0289031
0.0194384
0.0198426
0.0212181
0.0169231
0.0169521
0.0168382
0.0170292
0.02547
0.0198295
0.0166791
0.016678
0.0167262
0.0166782
0.0168052
0.0169435
0.027429
0.0199773
0.0168201
0.0168305
0.0167978
0.0168379
0.016767
0.0167626
0.0168514
0.0169593
0.0252667
0.0220896
0.0166676
0.016673
0.0166934
0.0167017
0.0167375
0.0167713
0.0167168
0.0167549
0.0168036
0.0170516
0.037803
0.0167089
0.0167162
0.0167137
0.0167337
0.0167319
0.0167446
0.0167841
0.0167711
0.0168222
0.0166462
0.0170402
0.0354837
0.0165972
0.0166059
0.0166205
0.0166434
0.0166636
0.0167001
0.0167031
0.0167498
0.0167653
0.0168227
0.0168039
0.0295328
0.0165878
0.0165966
0.0166059
0.0166296
0.0166461
0.0166757
0.0167024
0.0167305
0.016753
0.0167739
0.0167572
0.0169613
0.0268631
0.0164979
0.016509
0.0165242
0.0165548
0.0165778
0.0166244
0.0166432
0.0167039
0.0167064
0.0167871
0.0167195
0.0168528
0.0279867
0.0199392
0.0164663
0.0164779
0.0164924
0.0165243
0.0165494
0.0165955
0.0166249
0.0166771
0.0167021
0.0167466
0.0167733
0.0167641
0.0169441
0.0250412
0.0163955
0.0164088
0.0164267
0.0164644
0.016493
0.0165493
0.0165781
0.0166467
0.0166636
0.0167323
0.0167373
0.0167673
0.0168054
0.0273877
0.0163617
0.0163759
0.0163944
0.0164345
0.0164646
0.0165246
0.0165552
0.0166296
0.0166437
0.0167339
0.0167015
0.0168379
0.0166784
0.0170296
0.0329277
0.0163143
0.0163299
0.0163503
0.016394
0.0164269
0.0164925
0.016524
0.0166053
0.0166206
0.0167132
0.0166935
0.0167978
0.0167267
0.0168385
0.0287526
0.0162925
0.0163088
0.0163301
0.0163762
0.0164095
0.0164781
0.0165092
0.0165965
0.0166057
0.0167161
0.0166733
0.0168308
0.0166782
0.0169528
0.0285253
0.0162742
0.0162915
0.0163142
0.0163618
0.0163963
0.0164665
0.0164984
0.0165872
0.0165971
0.0167088
0.0166683
0.0168202
0.0166797
0.0169234
0.0278652
0.0184063
0.0188108
0.0201863
0.0158889
0.0159186
0.0158037
0.0159962
0.0244391
0.0187969
0.015639
0.0156374
0.0156884
0.0156377
0.0157689
0.0159078
0.0263966
0.018944
0.0157769
0.0157883
0.015755
0.0157991
0.0157265
0.0157253
0.0158138
0.0159243
0.0242332
0.021056
0.0156137
0.0156194
0.0156423
0.0156505
0.0156905
0.0157283
0.0156753
0.0157153
0.0157635
0.0159997
0.0366891
0.0156486
0.0156568
0.015655
0.0156787
0.0156784
0.0156954
0.0157373
0.0157271
0.0157828
0.0156077
0.0160206
0.0344567
0.0155229
0.0155328
0.0155502
0.0155758
0.0156002
0.0156412
0.0156435
0.0156976
0.0157202
0.0157862
0.015768
0.028502
0.0155044
0.0155149
0.0155261
0.0155543
0.0155751
0.0156106
0.0156422
0.0156783
0.015712
0.0157327
0.0157183
0.0159265
0.0258304
0.0154007
0.0154133
0.0154317
0.0154674
0.0154961
0.0155504
0.0155758
0.0156466
0.0156594
0.0157429
0.0156778
0.0158151
0.0269541
0.0189057
0.0153589
0.0153723
0.0153906
0.0154284
0.0154595
0.0155142
0.0155513
0.0156135
0.0156461
0.0156984
0.0157296
0.0157264
0.0159079
0.0240087
0.0152758
0.0152917
0.0153137
0.0153577
0.0153932
0.0154594
0.0154968
0.0155762
0.0156012
0.0156795
0.0156905
0.0157262
0.0157687
0.0263554
0.0152328
0.0152497
0.0152729
0.0153198
0.0153579
0.0154287
0.0154678
0.0155542
0.015576
0.0156783
0.0156502
0.0157986
0.0156376
0.0159964
0.0318979
0.0151766
0.0151955
0.0152211
0.0152725
0.0153137
0.0153905
0.0154318
0.0155257
0.01555
0.0156544
0.0156423
0.0157544
0.0156887
0.0158036
0.0277213
0.0151484
0.0151685
0.0151957
0.0152499
0.0152922
0.0153727
0.0154138
0.0155148
0.0155328
0.0156567
0.0156194
0.0157884
0.0156375
0.0159182
0.0274932
0.0151262
0.0151476
0.0151765
0.0152326
0.0152763
0.0153589
0.0154009
0.015504
0.0155232
0.0156478
0.015614
0.0157768
0.0156398
0.0158885
0.0268332
0.0173807
0.0177857
0.0191613
0.0148608
0.0148912
0.0147752
0.0149703
0.0234149
0.0177704
0.0146044
0.0146017
0.0146566
0.0146033
0.0147388
0.0148779
0.0253711
0.0179171
0.0147381
0.0147507
0.0147164
0.0147643
0.0146909
0.0146937
0.0147819
0.0148957
0.0232065
0.0200306
0.0145615
0.0145674
0.0145939
0.0146021
0.0146484
0.0146896
0.014639
0.0146814
0.0147335
0.014999
0.0358084
0.0145887
0.0145986
0.0145976
0.0146261
0.0146277
0.0146505
0.0146983
0.0146926
0.0147531
0.0145745
0.0149678
0.0334322
0.0144472
0.0144581
0.0144786
0.0145076
0.0145383
0.0145873
0.0146002
0.0146665
0.0146786
0.01475
0.014732
0.0274757
0.014417
0.0144292
0.0144429
0.0144768
0.0145029
0.014547
0.0145864
0.0146284
0.0146553
0.0146917
0.0146833
0.0148985
0.0248052
0.0142981
0.0143126
0.0143348
0.0143763
0.0144117
0.0144749
0.0145075
0.0145865
0.0146002
0.0146991
0.0146408
0.0147825
0.0259277
0.0178792
0.0142442
0.0142598
0.0142821
0.0143262
0.0143649
0.0144291
0.0144756
0.0145479
0.0145886
0.0146517
0.0146897
0.014694
0.0148776
0.0229835
0.0141493
0.0141671
0.0141933
0.0142443
0.014288
0.0143651
0.0144119
0.0145032
0.0145388
0.0146279
0.0146474
0.0146901
0.014738
0.0253308
0.0140962
0.0141152
0.0141433
0.0141978
0.014245
0.0143266
0.0143767
0.0144773
0.0145081
0.0146253
0.0146011
0.0147641
0.0146022
0.0149702
0.0308758
0.0140298
0.0140515
0.0140829
0.0141428
0.0141933
0.0142817
0.014335
0.0144428
0.0144781
0.0145965
0.0145933
0.0147154
0.0146562
0.0147745
0.0266972
0.0139944
0.0140179
0.0140516
0.0141147
0.0141669
0.0142599
0.0143132
0.0144292
0.014458
0.0145981
0.0145671
0.01475
0.0146015
0.0148908
0.0264685
0.0139681
0.0139936
0.014029
0.0140943
0.0141484
0.0142437
0.0142982
0.0144168
0.0144473
0.0145878
0.0145616
0.0147372
0.014605
0.014861
0.025808
0.0163632
0.0167682
0.0181438
0.0138395
0.0138707
0.0137528
0.013952
0.0223986
0.0167516
0.0135758
0.0135713
0.0136307
0.0135716
0.013715
0.0138551
0.0243537
0.016898
0.0137029
0.0137172
0.0136823
0.0137378
0.013662
0.0136697
0.0137564
0.0138727
0.0221866
0.0190098
0.013509
0.0135145
0.0135487
0.0135615
0.0136127
0.0136563
0.013612
0.0136471
0.0136971
0.0139336
0.0345724
0.0135273
0.0135393
0.0135394
0.0135751
0.0135795
0.0136081
0.0136608
0.0136555
0.0137211
0.0135456
0.0139875
0.0324238
0.0133701
0.0133819
0.0134055
0.0134393
0.013476
0.0135333
0.0135493
0.0136192
0.0136417
0.0137286
0.0137108
0.0264609
0.0133247
0.0133389
0.0133557
0.0133957
0.013428
0.0134807
0.0135287
0.0135795
0.0136199
0.0136627
0.0136589
0.0138782
0.0237879
0.0131898
0.0132066
0.0132328
0.0132807
0.0133231
0.0133966
0.0134378
0.0135289
0.0135502
0.0136605
0.0136051
0.0137551
0.0249092
0.0168614
0.0131221
0.0131402
0.0131671
0.0132182
0.0132651
0.0133395
0.0133969
0.013481
0.0135338
0.0136081
0.0136551
0.013667
0.0138543
0.0219671
0.0130142
0.0130348
0.0130659
0.0131246
0.0131772
0.0132651
0.013323
0.013428
0.0134761
0.0135787
0.0136106
0.0136604
0.0137143
0.0243142
0.0129505
0.0129724
0.0130057
0.0130686
0.0131252
0.0132183
0.0132811
0.0133961
0.0134395
0.0135743
0.0135597
0.0137367
0.0135711
0.0139515
0.0298624
0.0128751
0.0128995
0.0129366
0.0130052
0.0130656
0.0131666
0.0132329
0.0133554
0.0134053
0.0135386
0.013548
0.0136812
0.0136304
0.013752
0.0256822
0.0128321
0.0128588
0.0128992
0.0129715
0.0130346
0.0131406
0.0132073
0.0133392
0.0133819
0.0135389
0.0135143
0.0137165
0.0135709
0.0138704
0.0254521
0.0128014
0.0128305
0.0128735
0.0129482
0.0130134
0.0131219
0.0131901
0.0133243
0.0133693
0.0135255
0.0135074
0.0137003
0.0135746
0.0138386
0.0247915
0.0153547
0.0157597
0.0171352
0.0128253
0.0128576
0.0127375
0.0129406
0.0213915
0.0157415
0.012554
0.0125474
0.0126115
0.0125485
0.0126969
0.0128388
0.0233449
0.0158875
0.0126725
0.0126889
0.012651
0.012711
0.0126371
0.012648
0.012734
0.0128576
0.0211753
0.0180022
0.0124654
0.0124708
0.0125024
0.0125094
0.0125817
0.0126281
0.0125797
0.0126238
0.0126773
0.0129905
0.0339145
0.0124648
0.0124787
0.012479
0.0125193
0.0125314
0.012568
0.0126245
0.0126281
0.0126848
0.0125223
0.012917
0.0314148
0.0122896
0.0123031
0.0123297
0.0123696
0.0124112
0.0124777
0.0125009
0.01258
0.0126083
0.0127239
0.0126818
0.0254496
0.0122271
0.0122436
0.0122639
0.0123104
0.0123496
0.0124121
0.0124698
0.0125314
0.0125824
0.0126345
0.0126371
0.0128635
0.0227791
0.0120763
0.0120951
0.012125
0.0121798
0.0122297
0.0123139
0.0123649
0.0124697
0.0125018
0.0126251
0.0125819
0.0127351
0.0238997
0.0158515
0.0119938
0.0120142
0.0120453
0.0121038
0.0121593
0.0122448
0.0123138
0.012412
0.0124776
0.012567
0.0126252
0.0126487
0.0128387
0.020959
0.0118717
0.0118953
0.0119314
0.011998
0.0120594
0.0121587
0.0122293
0.0123491
0.0124103
0.0125295
0.0125782
0.0126352
0.012696
0.0233057
0.0117969
0.0118219
0.0118609
0.0119318
0.0119979
0.0121035
0.0121797
0.0123099
0.0123691
0.0125186
0.0125093
0.0127101
0.0125478
0.0129402
0.0288596
0.0117128
0.0117402
0.0117833
0.0118601
0.0119308
0.0120447
0.0121244
0.0122629
0.0123287
0.0124774
0.0125013
0.0126494
0.0126107
0.0127364
0.0246767
0.011665
0.0116935
0.01174
0.0118213
0.0118953
0.0120142
0.0120952
0.0122433
0.012302
0.0124772
0.0124697
0.0126877
0.0125465
0.0128563
0.0244441
0.0116339
0.0116634
0.0117112
0.0117951
0.0118712
0.0119928
0.0120756
0.0122259
0.0122877
0.012462
0.0124637
0.0126705
0.0125525
0.0128237
0.0237842
0.014357
0.0147621
0.0161368
0.0118181
0.0118522
0.0117294
0.011937
0.0203942
0.0147409
0.0115392
0.0115313
0.011599
0.0115332
0.0116845
0.01183
0.0223451
0.014886
0.0116442
0.0116634
0.0116242
0.0116919
0.0116143
0.0116312
0.0117183
0.0118514
0.0201731
0.0169983
0.0114203
0.0114268
0.0114617
0.0114784
0.0115379
0.0115998
0.0115581
0.0116122
0.0116498
0.0118864
0.0324105
0.0113991
0.0114154
0.0114185
0.0114655
0.0114799
0.0115271
0.0115895
0.0116056
0.011683
0.0115007
0.0120037
0.030431
0.011204
0.0112199
0.0112496
0.011296
0.0113432
0.0114205
0.0114532
0.0115436
0.0115756
0.0116947
0.0116689
0.0244529
0.0111226
0.0111417
0.0111658
0.0112193
0.011266
0.0113398
0.0114073
0.0114827
0.0115449
0.0116099
0.0116159
0.0118536
0.0217793
0.0109552
0.0109764
0.0110102
0.0110722
0.0111299
0.0112258
0.0112882
0.011407
0.0114533
0.0115893
0.0115578
0.0117171
0.0228988
0.014851
0.0108587
0.0108813
0.0109164
0.0109823
0.0110464
0.011144
0.0112257
0.0113396
0.0114201
0.011526
0.0115986
0.011632
0.0118298
0.0199612
0.0107246
0.0107499
0.0107901
0.0108638
0.0109341
0.0110458
0.0111295
0.0112653
0.0113424
0.0114784
0.0115363
0.011613
0.0116835
0.0223077
0.010639
0.0106663
0.01071
0.0107881
0.0108638
0.010982
0.0110719
0.011219
0.0112958
0.0114647
0.0114777
0.0116912
0.0115328
0.0119366
0.0278689
0.0105489
0.0105778
0.0106239
0.0107086
0.0107893
0.0109153
0.0110092
0.0111649
0.0112486
0.0114172
0.0114608
0.0116233
0.0115984
0.0117282
0.0236814
0.0105025
0.0105308
0.0105775
0.0106656
0.0107494
0.0108804
0.010976
0.0111412
0.0112188
0.0114138
0.0114257
0.0116623
0.0115307
0.0118512
0.0234472
0.0104723
0.0105011
0.0105479
0.0106374
0.0107229
0.0108566
0.010954
0.0111215
0.0112023
0.011396
0.0114177
0.0116422
0.0115385
0.0118167
0.0227874
0.0133719
0.0137766
0.0151497
0.0108175
0.0108546
0.0107283
0.0109422
0.0194083
0.0137509
0.0105324
0.0105232
0.0105937
0.0105252
0.0106774
0.0108298
0.0213557
0.0138945
0.0106152
0.0106383
0.0105989
0.0106755
0.0105982
0.010622
0.0107069
0.010851
0.0191819
0.0160151
0.0103731
0.0103817
0.0104186
0.010442
0.0105001
0.0105771
0.0105381
0.0106036
0.0106561
0.011033
0.0321785
0.0103281
0.0103473
0.0103534
0.0104077
0.010427
0.010485
0.0105553
0.010588
0.0106802
0.0104966
0.0108711
0.0294342
0.0101125
0.0101306
0.0101631
0.0102171
0.0102698
0.0103602
0.010401
0.0105089
0.0105439
0.0106731
0.0106326
0.0234535
0.0100112
0.0100327
0.0100605
0.0101215
0.0101758
0.0102621
0.0103404
0.0104317
0.010508
0.0105854
0.0106045
0.0108494
0.0207894
0.00982688
0.00985068
0.00988827
0.0099576
0.0100228
0.010131
0.0102049
0.0103399
0.0103995
0.0105525
0.0105355
0.0107041
0.0219078
0.0138609
0.00971721
0.00974227
0.00978122
0.00985413
0.00992633
0.0100362
0.0101308
0.0102616
0.0103592
0.0104832
0.0105749
0.0106207
0.0108291
0.0189742
0.00957383
0.00960109
0.00964452
0.0097244
0.0098025
0.00992612
0.0100223
0.0101753
0.0102693
0.010426
0.0104985
0.0105971
0.0106765
0.0213208
0.0094839
0.00951147
0.00955665
0.00964006
0.00972437
0.009854
0.00995726
0.0101215
0.010217
0.0104071
0.0104416
0.0106749
0.010525
0.0109415
0.0268913
0.00939639
0.00942432
0.00946905
0.00955531
0.00964385
0.0097804
0.00988774
0.0100596
0.0101622
0.0103525
0.0104177
0.010598
0.0105931
0.0107268
0.0227
0.00935248
0.00937966
0.00942441
0.00951093
0.00960062
0.0097419
0.0098508
0.0100324
0.0101303
0.0103467
0.0103814
0.0106382
0.010523
0.0108538
0.0224639
0.00932369
0.00935138
0.00939568
0.00948248
0.00957184
0.00971531
0.00982552
0.0100096
0.0101109
0.0103261
0.010371
0.0106137
0.0105319
0.0108164
0.0218037
0.0123988
0.0128046
0.0141751
0.00982409
0.00986472
0.00973357
0.0099564
0.0184344
0.0127719
0.00953116
0.00952212
0.00959277
0.00952469
0.00967324
0.00983703
0.0203765
0.0129126
0.00958588
0.00961243
0.00957376
0.00965984
0.00958497
0.00961464
0.00970145
0.00985776
0.0181971
0.015027
0.00932111
0.00933284
0.0093707
0.00940386
0.00945847
0.00955692
0.00952262
0.00961891
0.00960287
0.00986085
0.0301916
0.00924962
0.009272
0.00928113
0.00934329
0.00936921
0.00943949
0.00952014
0.00957108
0.00965873
0.00949364
0.0100288
0.0284781
0.00901249
0.00903337
0.00906837
0.00913079
0.00918798
0.00929341
0.00934164
0.00946824
0.0095117
0.00967014
0.00965264
0.0224829
0.00889313
0.00891677
0.00894757
0.00901586
0.00907716
0.00917626
0.009266
0.00937582
0.00946725
0.00956113
0.00957925
0.00984657
0.0198113
0.00869501
0.00872032
0.0087601
0.00883578
0.00890692
0.00902749
0.00911243
0.00926553
0.0093393
0.00951178
0.00950589
0.00969364
0.0209273
0.0128821
0.00857474
0.00860153
0.00864268
0.00872091
0.0087994
0.00892064
0.00902744
0.00917577
0.009292
0.00943642
0.00955253
0.00961188
0.00983605
0.0179993
0.00842817
0.00845532
0.00849868
0.00858237
0.00866576
0.00879917
0.00890664
0.0090768
0.00918726
0.00936802
0.00945717
0.00958378
0.00967195
0.0203452
0.00834477
0.00837072
0.00841281
0.00849522
0.00858213
0.00872074
0.00883583
0.00901605
0.00913086
0.00934335
0.00940377
0.00965954
0.00952435
0.00995579
0.0259304
0.00826315
0.00828917
0.00833001
0.00841221
0.00849803
0.00864193
0.0087594
0.00894663
0.00906778
0.00928047
0.00937004
0.0095728
0.00959174
0.00973217
0.0217329
0.00822418
0.00824927
0.00828961
0.00837047
0.00845509
0.00860119
0.00871981
0.00891589
0.00903296
0.00927164
0.00933276
0.00961249
0.00952185
0.00986403
0.0214929
0.00819747
0.00822349
0.00826283
0.00834357
0.00842697
0.00857328
0.00869292
0.00889057
0.00901057
0.00924847
0.00932048
0.00958566
0.0095311
0.00982335
0.0208332
0.0114416
0.0118478
0.0132144
0.0088367
0.00888147
0.00874513
0.00897693
0.0174738
0.0118037
0.00853282
0.00852445
0.00859315
0.00853251
0.0086672
0.00884824
0.0194062
0.0119381
0.00855457
0.00858395
0.00854632
0.00863997
0.00857058
0.00860591
0.00869082
0.00885719
0.0172205
0.0140611
0.00826232
0.00827693
0.00831428
0.00835829
0.00841107
0.00852883
0.00849049
0.00859301
0.00862242
0.00906191
0.0304553
0.00816269
0.00818755
0.00819943
0.00826947
0.00830202
0.00838489
0.00847276
0.00854437
0.00865925
0.00850066
0.00885605
0.0275136
0.00790306
0.00792681
0.00796335
0.00803429
0.008095
0.00821594
0.00827106
0.00841974
0.00846866
0.00865078
0.00860378
0.0215037
0.00776791
0.00779387
0.00782687
0.00790153
0.00796843
0.00808025
0.0081808
0.00831058
0.00841745
0.00853859
0.00858644
0.0088532
0.0188452
0.00756028
0.00758739
0.0076278
0.00770831
0.007783
0.00791484
0.00800851
0.00818017
0.00826897
0.0084686
0.00848497
0.00868747
0.01996
0.0119153
0.0074406
0.00746626
0.00750583
0.00758625
0.00766822
0.00779805
0.00791458
0.0080799
0.00821468
0.00838268
0.00852632
0.00860498
0.00884877
0.0170385
0.00730486
0.0073294
0.00736782
0.00744724
0.00752842
0.00766783
0.00778281
0.00796812
0.00809422
0.00830105
0.00841006
0.00857036
0.00866722
0.0193841
0.0072325
0.00725565
0.00729212
0.00736793
0.00744752
0.00758642
0.00770863
0.00790164
0.00803447
0.00826947
0.00835802
0.00863962
0.00853166
0.00897614
0.0249892
0.00716057
0.00718353
0.0072179
0.00729148
0.00736752
0.00750554
0.0076273
0.0078264
0.00796303
0.00819898
0.00831364
0.00854526
0.00859138
0.00874345
0.0207807
0.00712809
0.00715015
0.00718387
0.00725528
0.0073294
0.00746632
0.00758786
0.00779438
0.00792765
0.00818829
0.00827743
0.00858413
0.00852434
0.008881
0.0205375
0.00710394
0.0071274
0.0071602
0.00723112
0.00730333
0.00743936
0.0075595
0.00776718
0.00790242
0.00816197
0.00826142
0.00855322
0.00853208
0.00883563
0.0198775
0.0105017
0.010908
0.0122689
0.00785054
0.0078995
0.00775946
0.00799802
0.0165277
0.0108458
0.00752777
0.00752275
0.00758601
0.0075454
0.00764617
0.00785637
0.0184434
0.0109678
0.0075122
0.00754469
0.00750863
0.00760818
0.00754542
0.00758952
0.00767246
0.00784999
0.0162485
0.0130908
0.00718775
0.00720539
0.00724051
0.00729624
0.00734705
0.00748295
0.00744941
0.0075734
0.00757595
0.00784723
0.0282501
0.00706157
0.00708842
0.00710155
0.00717898
0.00721677
0.00731366
0.00740915
0.00749991
0.00762592
0.00749532
0.00805074
0.026589
0.00678233
0.00680754
0.00684323
0.00692195
0.00698404
0.0071202
0.0071805
0.00735277
0.00740624
0.00763839
0.0075944
0.020549
0.00663712
0.00666407
0.00669724
0.00677618
0.00684562
0.00696873
0.00707751
0.00722721
0.00735223
0.00750071
0.00757081
0.00784937
0.0178895
0.00643124
0.00645669
0.00649341
0.00657483
0.00664946
0.00678915
0.00688754
0.0070769
0.00717932
0.00740728
0.00744647
0.00767163
0.0190071
0.0109599
0.00632939
0.00635193
0.0063853
0.0064591
0.00653491
0.00666686
0.00678852
0.00696785
0.00711859
0.0073119
0.0074816
0.00759035
0.00786004
0.0160901
0.00621128
0.00623211
0.00626296
0.00633326
0.00640206
0.00653477
0.00664936
0.00684494
0.00698264
0.00721553
0.00734601
0.00754723
0.0076551
0.0184376
0.00615538
0.00617459
0.00620311
0.00626797
0.00633341
0.00645946
0.00657507
0.00677619
0.00692166
0.00717858
0.00729602
0.00760615
0.00753623
0.0079962
0.0240686
0.00609561
0.00611429
0.00614063
0.00620252
0.00626267
0.00638483
0.0064928
0.00669652
0.0068425
0.00710092
0.00723946
0.0075063
0.00758175
0.00775718
0.0198468
0.0060712
0.00608925
0.00611501
0.00617462
0.0062324
0.00635233
0.00645735
0.00666462
0.00680816
0.00708915
0.00720587
0.00754485
0.00752241
0.00789929
0.0195975
0.00605073
0.00606997
0.00609495
0.00615402
0.00620982
0.00632825
0.00643052
0.00663596
0.00678116
0.00706078
0.00718678
0.00751103
0.00752741
0.00784919
0.018938
0.00958343
0.00999124
0.0113437
0.00686255
0.00691797
0.00677178
0.00701498
0.0156027
0.00990093
0.00651431
0.0065127
0.00656197
0.00653832
0.00662019
0.00685926
0.0174922
0.00999823
0.00645816
0.00649404
0.00645708
0.00656144
0.00650784
0.0065552
0.00663698
0.00682239
0.0152832
0.0121434
0.006095
0.00611629
0.00614675
0.00621615
0.00626091
0.00642012
0.00638805
0.00653712
0.00654987
0.00704595
0.0285344
0.005948
0.00597705
0.00598897
0.00607265
0.00611214
0.00622332
0.00632481
0.00644158
0.00659819
0.0064961
0.00685845
0.0256765
0.00565485
0.00568188
0.00571444
0.00579884
0.00585732
0.00600815
0.00606935
0.00626872
0.00632195
0.00658765
0.0065286
0.019595
0.00552036
0.00554441
0.00557099
0.00564885
0.00571584
0.00584695
0.00595835
0.00612687
0.00626651
0.00643951
0.00654104
0.00682423
0.0169522
0.00534015
0.00536164
0.00538839
0.00546077
0.00552205
0.00566008
0.0057556
0.00595805
0.00606796
0.00632396
0.00638861
0.00663761
0.0180779
0.0100155
0.00526582
0.00528397
0.00530735
0.0053694
0.00542807
0.00554732
0.0056598
0.0058461
0.00600661
0.00622206
0.00641921
0.00655594
0.00686104
0.0151584
0.0051717
0.005188
0.00520868
0.00526519
0.00531414
0.00542778
0.00552138
0.00571495
0.00585584
0.00611045
0.00625946
0.00650815
0.00662097
0.0175103
0.00513526
0.0051498
0.00516874
0.00521966
0.0052655
0.00536954
0.00546069
0.00564866
0.0057981
0.0060722
0.00621573
0.00656133
0.00653752
0.0070156
0.0231813
0.00508931
0.00510354
0.00512032
0.00516834
0.0052086
0.00530706
0.00538819
0.00557033
0.00571392
0.00598856
0.00614594
0.00645579
0.0065606
0.00677075
0.0189376
0.00507459
0.00508777
0.00510427
0.00515006
0.00518844
0.00528452
0.00536227
0.0055448
0.00568258
0.0059778
0.00611674
0.0064946
0.00651298
0.00691895
0.01868
0.00505882
0.0050731
0.00508896
0.00513443
0.00517082
0.00526486
0.00533912
0.00551875
0.00565318
0.00594665
0.00609334
0.00645633
0.00651351
0.0068608
0.0180239
0.00868066
0.00909439
0.0104328
0.00585305
0.0059218
0.00576508
0.00600264
0.0147025
0.00896175
0.0054826
0.0054852
0.00551995
0.00551298
0.00554448
0.00581642
0.016546
0.00900785
0.00540417
0.00544453
0.00540156
0.00551058
0.00544996
0.00549077
0.00554589
0.0057333
0.0143095
0.0111856
0.00500266
0.00502666
0.00504804
0.00513099
0.0051578
0.00534423
0.0053005
0.00547281
0.00542596
0.00585737
0.026676
0.00485138
0.00488117
0.00488773
0.00497465
0.00500561
0.00512685
0.00522259
0.00536257
0.0055237
0.00545215
0.00596063
0.024807
0.00456144
0.00458515
0.00460599
0.00469062
0.00473811
0.00490154
0.00494983
0.00517076
0.00520482
0.00553005
0.00543928
0.0186719
0.0044635
0.00448299
0.00449769
0.0045653
0.00461391
0.00474176
0.004845
0.0050257
0.0051685
0.00536195
0.00546951
0.00573468
0.0160367
0.00431462
0.00433134
0.00434611
0.00440645
0.00444518
0.00456762
0.00464089
0.00484479
0.00494824
0.00522122
0.00529813
0.00554544
0.0171839
0.00906858
0.00427153
0.00428515
0.00429788
0.00434622
0.00438311
0.00448212
0.00456704
0.00474054
0.00489912
0.00512515
0.00534201
0.00549055
0.00581685
0.0142389
0.00420147
0.00421318
0.00422358
0.00426608
0.00429349
0.00438292
0.00444435
0.00461279
0.00473613
0.00500398
0.00515622
0.00544966
0.00554467
0.0166191
0.00418461
0.00419477
0.00420385
0.00424065
0.00426624
0.00434593
0.00440627
0.00456493
0.00468972
0.00497413
0.00513043
0.00551151
0.00551391
0.00600472
0.0223338
0.00415334
0.00416264
0.00416954
0.00420306
0.00422271
0.00429687
0.00434529
0.00449661
0.00460473
0.00488647
0.005047
0.00540092
0.00551989
0.00576531
0.0180541
0.00414809
0.00415637
0.00416303
0.00419468
0.00421333
0.00428524
0.00433201
0.00448389
0.00458599
0.00488225
0.00502765
0.005446
0.00548681
0.0059246
0.0177895
0.0041372
0.00414645
0.00415201
0.00418328
0.00420018
0.00426992
0.00431354
0.00446252
0.00456009
0.00484969
0.00500047
0.00540185
0.00548148
0.00585101
0.0171423
0.00776731
0.00819511
0.00951688
0.00463642
0.00472886
0.00454141
0.00482357
0.013791
0.00800388
0.00418877
0.00418859
0.00419561
0.00420049
0.00419592
0.00457046
0.0155828
0.00793455
0.00408759
0.00412852
0.0040643
0.00417774
0.00409434
0.0041324
0.00417711
0.00442672
0.0132752
0.0102224
0.00363985
0.00366295
0.00366703
0.00376036
0.0037599
0.00398948
0.00392594
0.00413924
0.00406312
0.0047235
0.026153
0.00351706
0.0035377
0.00352223
0.00360302
0.00361865
0.00375474
0.00384351
0.00402613
0.00421788
0.00416882
0.00481354
0.0240593
0.00327239
0.00328849
0.00328875
0.00335994
0.0033745
0.0035383
0.00356442
0.00381269
0.00381481
0.004224
0.00407305
0.017745
0.00323035
0.00324205
0.00323919
0.00328945
0.00330835
0.00341544
0.0034881
0.00367025
0.00380898
0.00402387
0.00413225
0.00442623
0.0151471
0.00312725
0.00313741
0.00313707
0.00317934
0.00318715
0.00328235
0.00331234
0.00348755
0.00356225
0.00384133
0.00392136
0.00417517
0.0163374
0.00812235
0.00312192
0.00312962
0.00312953
0.00316025
0.00317029
0.00323879
0.00328156
0.00341475
0.00353574
0.00375271
0.00398661
0.00413174
0.0045701
0.0132983
0.00307969
0.00308624
0.00308497
0.00311054
0.00311225
0.00316981
0.00318642
0.00330729
0.00337249
0.0036171
0.00375811
0.00409404
0.00419552
0.0157328
0.00308313
0.00308843
0.00308728
0.0031085
0.00311071
0.0031601
0.00317881
0.00328906
0.0033596
0.00360297
0.00376046
0.00417929
0.00420238
0.00482715
0.0215015
0.00306607
0.00307086
0.00306828
0.00308652
0.00308422
0.00312851
0.00313579
0.00323825
0.00328762
0.00352133
0.00366656
0.00406427
0.00419664
0.00454264
0.017131
0.00307007
0.00307354
0.00307085
0.00308801
0.00308589
0.00312893
0.00313714
0.0032422
0.00328876
0.00353879
0.00366442
0.00413133
0.00419159
0.00473452
0.0169156
0.00306387
0.00306799
0.00306419
0.00308088
0.00307775
0.00311907
0.00312441
0.00322752
0.0032696
0.00351418
0.00363714
0.00408449
0.00418738
0.00463383
0.016295
0.00720986
0.00772315
0.00910014
0.0044082
0.00455834
0.004358
0.0045164
0.0136181
0.00750507
0.00380892
0.00384575
0.00386948
0.00398622
0.00374851