/*--------------------------------*- C++ -*----------------------------------*\
| =========                 |                                                 |
| \\      /  F ield         | OpenFOAM: The Open Source CFD Toolbox           |
|  \\    /   O peration     | Version:  2.1.1                                 |
|   \\  /    A nd           | Web:      www.OpenFOAM.org                      |
|    \\/     M anipulation  |                                                 |
\*---------------------------------------------------------------------------*/
FoamFile
{
    version     2.0;
    format      ascii;
    class       surfaceScalarField;
    location    "0.003";
    object      phi;
}
// * * * * * * * * * * * * * * * * * * * * * * * * * * * * * * * * * * * * * //

dimensions      [0 3 -1 0 0 0 0];

internalField   nonuniform List<scalar> 
29298
(
-5.88529e-13
-1.43456e-11
5.65402e-11
-4.16064e-11
1.4081e-12
-2.03586e-12
-1.41946e-11
4.9791e-11
-3.49686e-11
1.96605e-12
-8.45564e-12
1.52204e-11
-8.73082e-12
1.87306e-13
-1.34598e-13
8.72728e-10
6.20175e-11
6.28603e-11
-6.20194e-11
-6.2864e-11
-8.72781e-10
1.69844e-16
-2.0565e-14
8.79032e-10
6.47573e-11
6.61135e-11
-6.45987e-11
-6.60148e-11
-8.79081e-10
8.9643e-13
-2.58961e-13
9.74955e-10
5.75181e-11
4.01322e-11
-5.74557e-11
-4.07869e-11
-9.75002e-10
5.78526e-11
-2.47321e-13
7.62208e-10
4.27263e-11
4.83486e-11
-4.2388e-11
-4.82419e-11
4.45122e-11
-5.66977e-11
-4.49179e-11
-7.62259e-10
6.50745e-12
1.24012e-11
-1.3524e-11
1.16773e-10
-6.43044e-11
-2.54747e-12
-8.46509e-13
-9.66797e-12
4.24127e-11
-2.93507e-11
-3.11328e-13
1.78473e-13
1.1257e-09
-1.12571e-09
-6.52882e-13
3.29485e-13
1.13972e-09
-1.13973e-09
-8.92721e-13
1.7493e-14
1.1866e-09
-1.18664e-09
-2.09472e-12
9.76608e-13
1.16297e-09
-1.16299e-09
7.7215e-13
-1.33196e-12
9.01956e-10
4.66195e-11
5.50713e-11
-4.79599e-11
-5.52235e-11
-9.01997e-10
6.50578e-11
-1.80758e-13
7.2236e-10
5.79739e-11
6.16528e-11
-5.75294e-11
-6.09062e-11
4.47507e-11
-6.46772e-11
-4.53082e-11
-7.22421e-10
1.63094e-11
1.40328e-11
-1.4471e-11
1.02255e-10
-5.30687e-11
-1.87065e-12
-3.10803e-12
-1.13166e-11
5.16269e-11
-3.53316e-11
2.29139e-13
-4.54827e-14
1.12889e-09
-1.1289e-09
5.96093e-13
-6.09405e-15
1.13708e-09
-1.13712e-09
7.29678e-13
-1.14539e-13
1.15446e-09
-1.15446e-09
1.89249e-12
-1.48922e-13
1.1694e-09
-1.16944e-09
4.54076e-13
1.32224e-13
1.15656e-09
-1.15658e-09
-7.28803e-13
1.04039e-12
1.13194e-09
-1.13198e-09
1.76786e-12
-1.35696e-12
8.8234e-10
4.70266e-11
5.89566e-11
-4.8179e-11
-5.89435e-11
-8.8234e-10
5.84235e-11
-1.80769e-13
7.4699e-10
5.84901e-11
6.28664e-11
-5.796e-11
-6.19442e-11
4.38432e-11
-5.72518e-11
-4.44588e-11
-7.47051e-10
1.14644e-11
6.03567e-12
-1.43864e-11
1.27883e-10
-7.2574e-11
2.65456e-12
-1.23433e-11
2.3507e-11
-1.38183e-11
-1.65633e-13
9.79325e-14
1.13053e-09
-1.13052e-09
-3.07841e-13
1.27236e-13
1.1349e-09
-1.13489e-09
-4.37109e-13
1.22271e-14
1.14049e-09
-1.14048e-09
-6.68173e-13
9.00246e-14
1.14424e-09
-1.14425e-09
-1.62629e-13
-3.60931e-13
1.14685e-09
-1.14686e-09
9.26895e-13
-3.53148e-14
1.15483e-09
-1.15485e-09
-4.16206e-13
2.80827e-14
1.14606e-09
-1.1461e-09
-1.7927e-12
1.22263e-12
1.13627e-09
-1.1363e-09
1.22662e-12
-1.7652e-12
8.81237e-10
4.52832e-11
5.28496e-11
-4.63189e-11
-5.30334e-11
-8.81272e-10
4.33188e-11
9.88405e-13
7.19568e-10
5.68203e-11
5.05891e-11
-5.63336e-11
-5.08154e-11
3.38541e-11
-4.23626e-11
-3.48097e-11
-7.1959e-10
1.06903e-11
4.51914e-11
-1.25635e-11
1.06264e-13
-3.34143e-14
1.13551e-09
-1.13549e-09
2.35147e-13
-1.47746e-14
1.13752e-09
-1.1375e-09
2.48811e-13
-1.49179e-14
1.13971e-09
-1.1397e-09
3.31806e-13
3.15667e-15
1.13951e-09
-1.13951e-09
-9.20023e-14
5.63843e-14
1.13678e-09
-1.13678e-09
-2.16133e-13
1.05271e-13
1.13445e-09
-1.13447e-09
-6.11108e-14
-1.32024e-13
1.13617e-09
-1.13616e-09
1.29398e-12
-1.02463e-13
1.14378e-09
-1.14381e-09
-1.01059e-12
5.61556e-13
1.13163e-09
-1.13165e-09
-9.98532e-13
1.00887e-12
1.12298e-09
-1.12302e-09
5.06035e-11
-1.23287e-12
7.20321e-10
3.3763e-11
4.33171e-11
-3.47169e-11
-4.23479e-11
5.68383e-11
-5.08322e-11
-5.63558e-11
-7.20357e-10
1.8911e-11
4.7293e-11
-1.56011e-11
-8.4193e-14
1.38801e-14
1.13856e-09
-1.13852e-09
-1.51657e-13
2.26971e-14
1.1392e-09
-1.13917e-09
-1.99227e-13
7.63267e-15
1.13992e-09
-1.13989e-09
-2.48006e-13
2.73697e-14
1.13923e-09
-1.13921e-09
-2.19869e-13
1.08114e-14
1.13659e-09
-1.13657e-09
-1.67442e-13
2.11963e-14
1.13232e-09
-1.13229e-09
-4.69296e-13
1.84975e-13
1.12769e-09
-1.12771e-09
-5.76729e-13
5.9001e-15
1.12357e-09
-1.12357e-09
-5.6871e-13
5.67979e-13
1.12688e-09
-1.1269e-09
1.76209e-12
-1.30284e-12
1.13218e-09
-1.1322e-09
5.30013e-11
1.78235e-12
8.81733e-10
4.53101e-11
-5.31822e-11
-4.6348e-11
-8.81768e-10
-6.88319e-12
1.02031e-11
2.95575e-13
9.06847e-11
-4.12995e-11
1.97442e-14
-3.92749e-14
1.14031e-09
-1.14029e-09
5.37961e-14
-3.60674e-14
1.1403e-09
-1.14028e-09
4.668e-14
-8.52339e-15
1.14022e-09
-1.14019e-09
5.84728e-14
-6.59362e-15
1.13925e-09
-1.13922e-09
-1.54382e-14
5.99657e-14
1.13711e-09
-1.13709e-09
-4.8504e-14
3.5818e-14
1.13396e-09
-1.13394e-09
-1.32278e-14
1.37587e-13
1.12994e-09
-1.12993e-09
-1.28542e-14
5.18444e-16
1.12505e-09
-1.12504e-09
9.45151e-14
4.59989e-13
1.12397e-09
-1.12397e-09
-1.23206e-12
5.32126e-14
1.14416e-09
-1.1442e-09
1.69157e-13
4.09886e-13
1.13647e-09
-1.1365e-09
6.28653e-11
-1.76629e-12
7.47022e-10
4.38237e-11
5.8416e-11
-4.44425e-11
-5.72468e-11
5.84857e-11
-6.19446e-11
-5.79609e-11
-7.47082e-10
5.8142e-12
1.08397e-11
-4.47267e-12
1.07405e-10
-5.67205e-11
-4.46027e-14
-3.32301e-14
1.14169e-09
-1.14165e-09
-8.34378e-14
-3.12116e-14
1.14143e-09
-1.14139e-09
-1.12306e-13
-1.19833e-14
1.14099e-09
-1.14096e-09
-1.35004e-13
-1.71664e-14
1.13991e-09
-1.13988e-09
-1.41652e-13
3.5253e-14
1.1381e-09
-1.13807e-09
-1.37269e-13
4.75919e-15
1.13578e-09
-1.13576e-09
-1.50315e-13
1.29166e-13
1.13321e-09
-1.13319e-09
-2.06583e-13
3.88892e-14
1.13012e-09
-1.1301e-09
1.23823e-13
1.40974e-13
1.12788e-09
-1.12789e-09
-3.60593e-14
2.07107e-13
1.13637e-09
-1.13636e-09
1.34675e-12
-9.32369e-13
1.14616e-09
-1.14621e-09
5.89552e-11
7.20859e-13
8.82349e-10
4.702e-11
-5.89451e-11
-4.81764e-11
-8.82346e-10
5.53979e-12
1.26932e-11
-6.9749e-12
9.11399e-11
-4.34446e-11
-2.91612e-12
-4.90014e-12
2.65624e-11
-1.87461e-11
4.67201e-15
-6.29178e-14
1.14279e-09
-1.14279e-09
2.17901e-14
-6.05436e-14
1.14246e-09
-1.14245e-09
2.00119e-14
-2.73686e-14
1.1419e-09
-1.14189e-09
2.25561e-14
-3.72583e-14
1.14082e-09
-1.1408e-09
-5.07371e-15
3.94569e-14
1.13938e-09
-1.13935e-09
-1.57318e-14
-7.24158e-15
1.13767e-09
-1.13765e-09
-4.74202e-14
1.30166e-13
1.13583e-09
-1.1358e-09
-2.53642e-14
2.4226e-15
1.13402e-09
-1.134e-09
-1.12763e-13
2.0751e-13
1.13241e-09
-1.13239e-09
2.73511e-14
8.53159e-14
1.13451e-09
-1.13453e-09
-1.05027e-12
1.56895e-13
1.15484e-09
-1.15486e-09
1.71157e-13
-4.64016e-13
1.13188e-09
-1.13192e-09
6.16504e-11
-7.70156e-13
7.22307e-10
4.47562e-11
6.50562e-11
-4.53144e-11
-6.46809e-11
5.79698e-11
-6.0908e-11
-5.75316e-11
-7.22362e-10
1.14191e-11
7.99466e-12
-8.4271e-12
1.19821e-10
-6.91583e-11
-1.86243e-14
-6.23666e-14
1.14392e-09
-1.14391e-09
-2.51034e-14
-6.27375e-14
1.14359e-09
-1.14358e-09
-3.32567e-14
-3.3356e-14
1.14298e-09
-1.14296e-09
-3.88865e-14
-4.81922e-14
1.14197e-09
-1.14195e-09
-5.13473e-14
2.47691e-14
1.14079e-09
-1.14076e-09
-4.71103e-14
-3.83487e-14
1.13939e-09
-1.13936e-09
-7.10945e-14
1.20904e-13
1.1381e-09
-1.13807e-09
-1.89158e-14
-7.10362e-14
1.13713e-09
-1.13711e-09
-6.75417e-14
2.39591e-13
1.13661e-09
-1.13659e-09
3.53768e-13
-3.44668e-13
1.13679e-09
-1.13678e-09
-1.37475e-13
6.59535e-13
1.1468e-09
-1.14681e-09
1.32265e-12
-1.90026e-12
1.15644e-09
-1.15646e-09
5.50699e-11
2.08791e-12
9.01845e-10
4.66108e-11
-5.52246e-11
-4.79553e-11
-9.01881e-10
5.84192e-12
1.00423e-11
-7.03213e-12
9.05744e-11
-4.43569e-11
9.22152e-15
-6.4685e-14
1.145e-09
-1.14502e-09
2.49774e-14
-6.66751e-14
1.14467e-09
-1.14469e-09
3.24755e-14
-3.69717e-14
1.14402e-09
-1.14402e-09
3.29049e-14
-4.98869e-14
1.14315e-09
-1.14315e-09
2.2998e-14
1.68709e-14
1.14204e-09
-1.14203e-09
3.94729e-15
-3.76943e-14
1.14083e-09
-1.14081e-09
-2.82471e-15
9.91634e-14
1.13991e-09
-1.13988e-09
-3.35572e-14
-6.12477e-14
1.13924e-09
-1.13922e-09
-1.00753e-14
1.90263e-13
1.13919e-09
-1.13917e-09
-9.4271e-14
-2.62469e-13
1.13943e-09
-1.13943e-09
1.42958e-13
4.27813e-13
1.14407e-09
-1.14407e-09
-9.81657e-13
-7.39841e-13
1.16916e-09
-1.16919e-09
2.4079e-13
8.81308e-13
1.16267e-09
-1.16268e-09
4.83462e-11
-8.99595e-13
7.62043e-10
4.45235e-11
5.78563e-11
-4.493e-11
-5.67045e-11
4.2721e-11
-4.82411e-11
-4.23859e-11
-7.62088e-10
3.43306e-12
6.95374e-12
6.21664e-11
-2.42067e-11
1.80348e-15
-5.13783e-14
1.14616e-09
-1.14619e-09
1.24519e-14
-5.38526e-14
1.14576e-09
-1.14579e-09
1.97097e-14
-3.15412e-14
1.14508e-09
-1.14509e-09
1.68751e-14
-4.38121e-14
1.14413e-09
-1.14413e-09
1.28612e-14
6.86913e-15
1.143e-09
-1.14299e-09
1.26681e-15
-3.91651e-14
1.14191e-09
-1.14189e-09
-4.54601e-16
7.01149e-14
1.14098e-09
-1.14095e-09
-1.55708e-14
-6.94742e-14
1.1402e-09
-1.14018e-09
7.03881e-15
1.42042e-13
1.13986e-09
-1.13983e-09
-1.8216e-14
-2.51776e-13
1.1396e-09
-1.13958e-09
1.03448e-13
2.9901e-13
1.14026e-09
-1.14026e-09
-2.57972e-14
-6.09979e-13
1.1541e-09
-1.1541e-09
2.43486e-13
6.42352e-13
1.18606e-09
-1.18609e-09
4.01207e-11
-1.22798e-14
9.74457e-10
5.74678e-11
-4.07767e-11
-5.74151e-11
-9.74495e-10
-7.7022e-12
-1.00437e-12
9.10539e-11
-4.22261e-11
1.47959e-14
-3.29876e-14
1.1473e-09
-1.14734e-09
3.40226e-14
-3.34344e-14
1.14677e-09
-1.1468e-09
4.85627e-14
-2.10336e-14
1.14587e-09
-1.14589e-09
4.69251e-14
-2.6916e-14
1.14473e-09
-1.14474e-09
4.78411e-14
1.55182e-15
1.1436e-09
-1.14359e-09
2.00401e-14
-2.15676e-14
1.14247e-09
-1.14246e-09
2.49409e-14
3.4913e-14
1.14142e-09
-1.14139e-09
-2.8e-14
-3.52834e-14
1.14028e-09
-1.14026e-09
1.0508e-14
7.44767e-14
1.13915e-09
-1.13911e-09
-1.30241e-13
-1.22216e-13
1.13741e-09
-1.1374e-09
1.42661e-15
1.56937e-13
1.13471e-09
-1.1347e-09
-3.34308e-13
-2.40784e-13
1.13674e-09
-1.13677e-09
6.65366e-15
3.04052e-13
1.13907e-09
-1.13907e-09
6.60366e-11
-1.98371e-13
8.78266e-10
6.46746e-11
-6.59465e-11
-6.45241e-11
-8.78311e-10
4.3709e-12
1.30483e-11
-1.51237e-12
1.02097e-10
-5.19662e-11
1.35989e-14
1.14818e-09
-1.14824e-09
3.25286e-14
1.14733e-09
-1.14737e-09
4.7606e-14
1.1462e-09
-1.14622e-09
4.5853e-14
1.14504e-09
-1.14506e-09
4.8821e-14
1.14394e-09
-1.14393e-09
2.32083e-14
1.14281e-09
-1.1428e-09
3.30805e-14
1.14168e-09
-1.14165e-09
-2.08246e-14
1.1403e-09
-1.14028e-09
2.67805e-14
1.13852e-09
-1.13848e-09
-1.03002e-13
1.13544e-09
-1.13543e-09
3.98365e-14
1.1304e-09
-1.13038e-09
-1.86747e-13
1.1287e-09
-1.12871e-09
1.23443e-13
1.12539e-09
-1.12539e-09
6.27964e-11
8.72383e-10
6.20093e-11
-6.28068e-11
-6.20192e-11
-8.72429e-10
-9.56012e-13
1.43554e-11
1.08609e-12
9.68524e-11
-4.85408e-11
-4.16099e-11
-5.88494e-13
-1.43496e-11
5.65468e-11
-3.49715e-11
1.40837e-12
-2.03602e-12
-1.4198e-11
4.97971e-11
-8.73248e-12
1.9663e-12
-8.45755e-12
1.52237e-11
1.90078e-13
-1.3379e-13
8.72666e-10
6.20308e-11
6.2874e-11
-6.20306e-11
-6.28754e-11
4.98851e-16
-2.3889e-14
8.78985e-10
6.47706e-11
6.61272e-11
-6.46111e-11
-6.6028e-11
9.00479e-13
-2.65529e-13
9.74909e-10
5.75291e-11
4.01422e-11
-5.74684e-11
-4.07928e-11
5.78627e-11
-2.44269e-13
7.62159e-10
4.27341e-11
4.83583e-11
-4.23966e-11
-4.82504e-11
4.45235e-11
-5.67122e-11
-4.49255e-11
-6.43115e-11
6.50942e-12
1.24041e-11
-1.35299e-11
1.1679e-10
-2.9353e-11
-2.54728e-12
-8.46945e-13
-9.67113e-12
4.24183e-11
-3.06366e-13
1.54626e-13
1.12571e-09
-6.56003e-13
3.39064e-13
1.1397e-09
-8.97908e-13
6.77036e-15
1.18657e-09
-2.10148e-12
9.53752e-13
1.16297e-09
7.6621e-13
-1.35453e-12
9.01918e-10
4.66309e-11
5.50857e-11
-4.79644e-11
-5.52283e-11
6.5071e-11
-2.28288e-13
7.22324e-10
5.79861e-11
6.16641e-11
-5.75389e-11
-6.09173e-11
4.47641e-11
-6.469e-11
-4.53118e-11
-5.30748e-11
1.63154e-11
1.40357e-11
-1.44768e-11
1.02271e-10
-3.53335e-11
-1.87017e-12
-3.10845e-12
-1.13206e-11
5.16328e-11
2.39761e-13
-8.93226e-14
1.12889e-09
6.14431e-13
-3.53197e-14
1.13708e-09
7.59129e-13
-1.49491e-13
1.15447e-09
1.92911e-12
-1.72953e-13
1.16936e-09
4.76806e-13
1.16345e-13
1.15654e-09
-7.30546e-13
1.03654e-12
1.13188e-09
1.84203e-12
-1.4061e-12
8.82311e-10
4.70364e-11
5.89666e-11
-4.81853e-11
-5.89561e-11
5.84355e-11
-1.49785e-13
7.46954e-10
5.85043e-11
6.28785e-11
-5.79686e-11
-6.19554e-11
4.38552e-11
-5.72632e-11
-4.44632e-11
-7.25821e-11
1.14677e-11
6.0388e-12
-1.43913e-11
1.27901e-10
-1.38195e-11
2.65516e-12
-1.23462e-11
2.35105e-11
-1.61441e-13
3.12633e-14
1.13057e-09
-2.96204e-13
6.89551e-14
1.13493e-09
-4.23844e-13
-4.67153e-14
1.14051e-09
-6.57855e-13
4.16997e-14
1.14426e-09
-1.48541e-13
-3.97304e-13
1.14685e-09
9.56775e-13
-6.83991e-14
1.15483e-09
-4.2753e-13
4.02307e-15
1.14603e-09
-1.80534e-12
1.24086e-12
1.13625e-09
1.21681e-12
-1.787e-12
8.81213e-10
4.5295e-11
5.28601e-11
-4.63237e-11
-5.30423e-11
4.33308e-11
9.76894e-13
7.19548e-10
5.68297e-11
5.05964e-11
-5.63453e-11
-5.08264e-11
3.38627e-11
-4.23723e-11
-3.48178e-11
-1.2551e-11
1.06879e-11
4.5194e-11
1.14372e-13
-1.17351e-13
1.13553e-09
2.54407e-13
-9.69287e-14
1.13754e-09
2.68052e-13
-8.79181e-14
1.13974e-09
3.60532e-13
-6.67127e-14
1.13953e-09
-7.41052e-14
1.45329e-14
1.13681e-09
-1.96832e-13
6.08625e-14
1.13444e-09
-4.94149e-14
-1.55967e-13
1.13618e-09
1.36458e-12
-1.43391e-13
1.14375e-09
-1.00004e-12
5.76007e-13
1.13163e-09
-9.86253e-13
9.96777e-13
1.12294e-09
5.06122e-11
-1.22507e-12
7.20295e-10
3.37664e-11
4.33224e-11
-3.47209e-11
-4.23521e-11
5.68479e-11
-5.08434e-11
-5.63671e-11
-1.56012e-11
1.89136e-11
4.73002e-11
-8.23223e-14
-9.16224e-14
1.1386e-09
-1.50577e-13
-7.67015e-14
1.13925e-09
-2.00603e-13
-8.29178e-14
1.13996e-09
-2.55285e-13
-5.52367e-14
1.13927e-09
-2.18258e-13
-5.57023e-14
1.13662e-09
-1.43899e-13
-4.59546e-14
1.13236e-09
-4.56453e-13
1.53106e-13
1.12769e-09
-5.82279e-13
-3.69855e-14
1.12359e-09
-5.84294e-13
5.71889e-13
1.12689e-09
1.78326e-12
-1.37128e-12
1.13218e-09
5.30113e-11
1.79287e-12
8.8171e-10
4.53215e-11
-5.3191e-11
-4.63525e-11
-4.13065e-11
-6.88032e-12
1.02056e-11
2.9035e-13
9.07022e-11
3.37976e-14
-1.59668e-13
1.14033e-09
8.26796e-14
-1.49673e-13
1.14032e-09
8.56872e-14
-1.12784e-13
1.14024e-09
1.06614e-13
-1.03885e-13
1.13927e-09
3.59823e-14
-1.88152e-14
1.13714e-09
1.2554e-15
-3.56454e-14
1.13398e-09
3.4367e-14
8.7081e-14
1.12997e-09
2.87787e-14
-4.57344e-14
1.12506e-09
1.33055e-13
4.47012e-13
1.12398e-09
-1.25028e-12
4.07607e-14
1.14414e-09
1.37512e-13
4.19412e-13
1.13646e-09
6.2878e-11
-1.84262e-12
7.46988e-10
4.38356e-11
5.84266e-11
-4.44469e-11
-5.72574e-11
5.85e-11
-6.19561e-11
-5.79681e-11
-5.67263e-11
5.81434e-12
1.08433e-11
-4.47409e-12
1.0742e-10
-3.15057e-14
-1.6166e-13
1.14171e-09
-4.88485e-14
-1.55926e-13
1.14145e-09
-6.35435e-14
-1.27245e-13
1.14102e-09
-7.70585e-14
-1.22495e-13
1.13994e-09
-7.99945e-14
-5.28119e-14
1.13813e-09
-7.88706e-14
-7.35662e-14
1.13582e-09
-9.90532e-14
6.95934e-14
1.13324e-09
-1.64835e-13
-1.43386e-14
1.13015e-09
1.4564e-13
1.31302e-13
1.12789e-09
-1.29399e-14
1.8336e-13
1.13638e-09
1.39292e-12
-9.63274e-13
1.14614e-09
5.89647e-11
7.21702e-13
8.82319e-10
4.70301e-11
-5.89575e-11
-4.81825e-11
-4.34513e-11
5.5413e-12
1.26977e-11
-6.97946e-12
9.11581e-11
-1.87471e-11
-2.91705e-12
-4.90131e-12
2.65655e-11
3.00652e-14
-1.89722e-13
1.14278e-09
6.83927e-14
-1.85011e-13
1.14245e-09
8.36777e-14
-1.42366e-13
1.1419e-09
9.88265e-14
-1.42623e-13
1.14083e-09
7.49919e-14
-5.07248e-14
1.1394e-09
6.28963e-14
-8.62906e-14
1.1377e-09
2.44892e-14
6.90891e-14
1.13587e-09
2.96963e-14
-4.65913e-14
1.13405e-09
-6.04754e-14
1.74331e-13
1.13245e-09
5.97442e-14
6.16166e-14
1.13451e-09
-1.04772e-12
1.43512e-13
1.15484e-09
2.172e-13
-4.85849e-13
1.13183e-09
6.16622e-11
-7.66941e-13
7.22274e-10
4.47694e-11
6.50699e-11
-4.53179e-11
-6.46928e-11
5.79828e-11
-6.09183e-11
-5.75394e-11
-6.9164e-11
1.14202e-11
7.99803e-12
-8.42871e-12
1.19837e-10
1.00144e-14
-1.82785e-13
1.14389e-09
2.83342e-14
-1.79862e-13
1.14356e-09
4.03395e-14
-1.41116e-13
1.14296e-09
4.75806e-14
-1.47416e-13
1.14197e-09
3.91377e-14
-6.10463e-14
1.14081e-09
4.12527e-14
-1.12669e-13
1.13941e-09
7.60689e-15
6.41485e-14
1.13814e-09
4.45668e-14
-1.17999e-13
1.13716e-09
-2.3377e-14
2.02899e-13
1.13664e-09
3.86695e-13
-3.71521e-13
1.13682e-09
-1.24328e-13
6.47322e-13
1.14681e-09
1.34009e-12
-1.93487e-12
1.15642e-09
5.50835e-11
2.09109e-12
9.0181e-10
4.6622e-11
-5.523e-11
-4.79602e-11
-4.43653e-11
5.84338e-12
1.00468e-11
-7.03482e-12
9.05924e-11
4.1516e-14
-1.66901e-13
1.14493e-09
8.77912e-14
-1.63538e-13
1.14461e-09
1.1803e-13
-1.27208e-13
1.14397e-09
1.33806e-13
-1.3297e-13
1.14312e-09
1.30257e-13
-5.52129e-14
1.14204e-09
1.1097e-13
-9.89174e-14
1.14084e-09
9.41326e-14
4.99777e-14
1.13994e-09
5.08051e-14
-9.9246e-14
1.13926e-09
5.74703e-14
1.59622e-13
1.13923e-09
-4.78775e-14
-2.81207e-13
1.13945e-09
1.6341e-13
4.13687e-13
1.14409e-09
-9.62327e-13
-7.67863e-13
1.16912e-09
2.30151e-13
8.86734e-13
1.16268e-09
4.8355e-11
-9.01523e-13
7.61995e-10
4.45339e-11
5.78652e-11
-4.49381e-11
-5.6719e-11
4.27284e-11
-4.82503e-11
-4.23958e-11
-2.42104e-11
3.43235e-12
6.95745e-12
6.21775e-11
3.94563e-14
-1.25368e-13
1.14607e-09
8.20913e-14
-1.2404e-13
1.14568e-09
1.12383e-13
-9.67455e-14
1.14502e-09
1.26258e-13
-1.04112e-13
1.14408e-09
1.29459e-13
-4.45884e-14
1.14299e-09
1.16385e-13
-8.37345e-14
1.14191e-09
1.0333e-13
3.42939e-14
1.14101e-09
7.84398e-14
-9.67081e-14
1.14022e-09
7.56516e-14
1.22393e-13
1.1399e-09
3.79632e-14
-2.70452e-13
1.13962e-09
1.374e-13
2.88389e-13
1.14029e-09
-1.57149e-14
-6.28129e-13
1.15412e-09
2.4981e-13
6.45569e-13
1.18604e-09
4.01308e-11
-1.0299e-14
9.7442e-10
5.74803e-11
-4.07827e-11
-5.7426e-11
-4.2234e-11
-7.70442e-12
-1.0028e-12
9.10712e-11
5.54855e-14
-6.98097e-14
1.14718e-09
1.07912e-13
-7.0486e-14
1.14666e-09
1.47773e-13
-5.40381e-14
1.14579e-09
1.65456e-13
-5.7519e-14
1.14466e-09
1.73492e-13
-2.52088e-14
1.14357e-09
1.4528e-13
-4.46183e-14
1.14246e-09
1.40739e-13
1.62245e-14
1.14144e-09
7.39481e-14
-4.95072e-14
1.1403e-09
8.92497e-14
6.46409e-14
1.13919e-09
-7.25361e-14
-1.30056e-13
1.13744e-09
2.94318e-14
1.53283e-13
1.13474e-09
-3.47192e-13
-2.48419e-13
1.13673e-09
1.19555e-14
2.96846e-13
1.13906e-09
6.6051e-11
-2.00484e-13
8.78227e-10
6.46889e-11
-6.59589e-11
-6.45357e-11
-5.19746e-11
4.37052e-12
1.30518e-11
-1.51261e-12
1.02115e-10
5.50805e-14
1.14806e-09
1.10784e-13
1.14721e-09
1.50232e-13
1.14611e-09
1.67101e-13
1.14498e-09
1.77856e-13
1.14391e-09
1.52262e-13
1.14279e-09
1.52184e-13
1.1417e-09
8.51977e-14
1.14032e-09
1.09184e-13
1.13856e-09
-3.90717e-14
1.13547e-09
8.0516e-14
1.13044e-09
-1.64463e-13
1.1287e-09
1.22174e-13
1.12541e-09
6.28102e-11
8.72328e-10
6.20232e-11
-6.28174e-11
-6.20304e-11
-4.85494e-11
-9.5471e-13
1.43595e-11
1.08472e-12
9.68707e-11
-4.16138e-11
-5.88612e-13
-1.43539e-11
5.65552e-11
-3.49747e-11
1.40857e-12
-2.03634e-12
-1.42024e-11
4.98048e-11
-8.73438e-12
1.96647e-12
-8.45996e-12
1.52279e-11
2.01217e-13
-1.84951e-13
8.72641e-10
6.20465e-11
6.28893e-11
-6.20434e-11
-6.28886e-11
9.60706e-15
-3.37347e-14
8.7895e-10
6.47866e-11
6.61411e-11
-6.46252e-11
-6.60441e-11
9.01526e-13
-2.63327e-13
9.74867e-10
5.75412e-11
4.01539e-11
-5.74831e-11
-4.08001e-11
5.78723e-11
-2.40875e-13
7.62115e-10
4.27428e-11
4.83697e-11
-4.24078e-11
-4.82613e-11
4.45359e-11
-5.67313e-11
-4.49354e-11
-6.43203e-11
6.51304e-12
1.24055e-11
-1.3538e-11
1.16812e-10
-2.93559e-11
-2.54786e-12
-8.47166e-13
-9.67458e-12
4.24255e-11
-3.13446e-13
1.1911e-13
1.12571e-09
-6.53883e-13
2.94668e-13
1.13971e-09
-8.96612e-13
-8.25037e-15
1.18656e-09
-2.05771e-12
9.17854e-13
1.16297e-09
7.65635e-13
-1.37571e-12
9.01927e-10
4.66441e-11
5.51023e-11
-4.79702e-11
-5.52353e-11
6.5086e-11
-2.35861e-13
7.22282e-10
5.80004e-11
6.16775e-11
-5.75501e-11
-6.09314e-11
4.47799e-11
-6.47061e-11
-4.53168e-11
-5.30833e-11
1.63217e-11
1.40392e-11
-1.44839e-11
1.02292e-10
-3.53367e-11
-1.86998e-12
-3.10898e-12
-1.13249e-11
5.16406e-11
2.64125e-13
-1.61008e-13
1.1289e-09
6.34011e-13
-9.26521e-14
1.1371e-09
8.44594e-13
-2.11664e-13
1.15447e-09
1.97025e-12
-2.11252e-13
1.16936e-09
5.0621e-13
9.05442e-14
1.15653e-09
-7.26296e-13
1.03264e-12
1.13184e-09
1.87242e-12
-1.4563e-12
8.82298e-10
4.7049e-11
5.89792e-11
-4.81912e-11
-5.89692e-11
5.84479e-11
-1.5512e-13
7.46943e-10
5.85198e-11
6.28917e-11
-5.798e-11
-6.19719e-11
4.38707e-11
-5.72767e-11
-4.44686e-11
-7.25915e-11
1.14711e-11
6.04088e-12
-1.43973e-11
1.27924e-10
-1.38215e-11
2.65506e-12
-1.23486e-11
2.3515e-11
-1.56512e-13
-7.25152e-14
1.13063e-09
-2.84807e-13
-2.41939e-14
1.13499e-09
-4.10656e-13
-1.4032e-13
1.14056e-09
-6.45807e-13
-2.82875e-14
1.14431e-09
-1.3457e-13
-4.50072e-13
1.14688e-09
9.9394e-13
-1.14214e-13
1.15485e-09
-4.28345e-13
-3.2954e-14
1.14603e-09
-1.80968e-12
1.2477e-12
1.13623e-09
1.21202e-12
-1.81134e-12
8.81205e-10
4.53085e-11
5.28717e-11
-4.63295e-11
-5.30532e-11
4.33489e-11
9.62356e-13
7.1952e-10
5.68407e-11
5.06053e-11
-5.63596e-11
-5.08416e-11
3.38721e-11
-4.23691e-11
-3.48218e-11
-1.254e-11
1.06819e-11
4.52072e-11
1.2781e-13
-2.46048e-13
1.13557e-09
2.83343e-13
-2.19225e-13
1.13758e-09
2.98579e-13
-1.98533e-13
1.13978e-09
4.0196e-13
-1.67601e-13
1.13956e-09
-3.33385e-14
-6.21651e-14
1.13685e-09
-1.63627e-13
-1.11853e-14
1.13447e-09
-2.42943e-14
-2.01179e-13
1.13621e-09
1.41926e-12
-1.93567e-13
1.14375e-09
-9.846e-13
5.82619e-13
1.13164e-09
-9.80133e-13
9.82325e-13
1.12292e-09
5.06237e-11
-1.21592e-12
7.20284e-10
3.3772e-11
4.3327e-11
-3.47322e-11
-4.23705e-11
5.68609e-11
-5.08535e-11
-5.63799e-11
-1.56025e-11
1.89161e-11
4.731e-11
-6.31282e-14
-2.52562e-13
1.13866e-09
-1.13289e-13
-2.31072e-13
1.13931e-09
-1.47815e-13
-2.26046e-13
1.14003e-09
-1.95697e-13
-1.83638e-13
1.13934e-09
-1.70977e-13
-1.56876e-13
1.13669e-09
-9.89813e-14
-1.34245e-13
1.13241e-09
-4.33084e-13
8.89541e-14
1.12774e-09
-5.74874e-13
-9.6298e-14
1.12363e-09
-5.92145e-13
5.62935e-13
1.12692e-09
1.80473e-12
-1.42622e-12
1.13219e-09
5.30223e-11
1.79636e-12
8.81704e-10
4.53353e-11
-5.3202e-11
-4.63579e-11
-4.13155e-11
-6.87893e-12
1.02075e-11
2.84287e-13
9.0723e-11
5.68332e-14
-3.37324e-13
1.14035e-09
1.26548e-13
-3.22261e-13
1.14034e-09
1.44625e-13
-2.71539e-13
1.14027e-09
1.77792e-13
-2.50191e-13
1.1393e-09
1.12509e-13
-1.3928e-13
1.13719e-09
7.95933e-14
-1.44626e-13
1.13402e-09
1.02999e-13
9.61311e-15
1.13003e-09
8.63172e-14
-1.14488e-13
1.12509e-09
1.83295e-13
4.24949e-13
1.12403e-09
-1.25659e-12
1.49719e-14
1.14413e-09
1.41741e-13
4.19228e-13
1.13644e-09
6.28919e-11
-1.87507e-12
7.46979e-10
4.38511e-11
5.84384e-11
-4.44519e-11
-5.72709e-11
5.85166e-11
-6.19711e-11
-5.79792e-11
-5.67329e-11
5.81512e-12
1.08473e-11
-4.47487e-12
1.07438e-10
-3.12309e-15
-3.53773e-13
1.14172e-09
3.86363e-15
-3.4331e-13
1.14146e-09
9.86552e-15
-3.00021e-13
1.14104e-09
9.55915e-15
-2.81271e-13
1.13997e-09
1.17224e-14
-1.87588e-13
1.13818e-09
9.33933e-15
-1.92715e-13
1.13587e-09
-2.18069e-14
-1.95234e-14
1.1333e-09
-9.9504e-14
-9.06071e-14
1.13021e-09
1.87376e-13
9.32257e-14
1.12793e-09
2.28749e-14
1.50515e-13
1.13641e-09
1.44316e-12
-1.00098e-12
1.14614e-09
5.89775e-11
7.17728e-13
8.82311e-10
4.70427e-11
-5.89706e-11
-4.81881e-11
-4.3461e-11
5.54294e-12
1.27023e-11
-6.9846e-12
9.11795e-11
-1.87489e-11
-2.91782e-12
-4.90289e-12
2.65696e-11
6.54407e-14
-3.81408e-13
1.14273e-09
1.37491e-13
-3.71268e-13
1.14241e-09
1.78142e-13
-3.14132e-13
1.14188e-09
2.10916e-13
-3.01739e-13
1.14081e-09
1.94029e-13
-1.86964e-13
1.13942e-09
1.82103e-13
-2.05304e-13
1.13772e-09
1.34785e-13
-2.25779e-14
1.13592e-09
1.24861e-13
-1.2414e-13
1.13409e-09
2.94371e-15
1.69538e-13
1.1325e-09
1.04416e-13
2.10836e-14
1.13453e-09
-1.04315e-12
1.2914e-13
1.15486e-09
2.24636e-13
-5.14853e-13
1.13179e-09
6.16757e-11
-7.68557e-13
7.22234e-10
4.47853e-11
6.50851e-11
-4.53224e-11
-6.47088e-11
5.79983e-11
-6.09314e-11
-5.7551e-11
-6.91722e-11
1.14203e-11
8.00042e-12
-8.43038e-12
1.19857e-10
5.06803e-14
-3.63094e-13
1.1438e-09
1.06833e-13
-3.53225e-13
1.14349e-09
1.47991e-13
-3.0216e-13
1.14291e-09
1.74787e-13
-2.96285e-13
1.14193e-09
1.75222e-13
-1.88329e-13
1.1408e-09
1.76159e-13
-2.23534e-13
1.13943e-09
1.28323e-13
-2.24749e-14
1.13819e-09
1.49883e-13
-1.91912e-13
1.1372e-09
4.92489e-14
2.09714e-13
1.1367e-09
4.38352e-13
-4.1453e-13
1.13687e-09
-9.96838e-14
6.33363e-13
1.14684e-09
1.35972e-12
-1.97502e-12
1.15642e-09
5.50997e-11
2.04449e-12
9.01824e-10
4.66361e-11
-5.52368e-11
-4.79657e-11
-4.43747e-11
5.84447e-12
1.00522e-11
-7.03557e-12
9.06144e-11
9.15051e-14
-3.16408e-13
1.14478e-09
1.80962e-13
-3.08186e-13
1.14448e-09
2.43191e-13
-2.62751e-13
1.14387e-09
2.83594e-13
-2.56763e-13
1.14304e-09
2.90626e-13
-1.61478e-13
1.142e-09
2.70355e-13
-1.91101e-13
1.14082e-09
2.40017e-13
-2.33143e-14
1.13997e-09
1.74413e-13
-1.56097e-13
1.13929e-09
1.63261e-13
1.51564e-13
1.1393e-09
2.08261e-14
-3.11915e-13
1.13948e-09
2.00778e-13
4.00585e-13
1.14414e-09
-9.25888e-13
-8.52182e-13
1.16912e-09
2.29482e-13
8.85209e-13
1.16268e-09
4.83672e-11
-9.01509e-13
7.61957e-10
4.45462e-11
5.78741e-11
-4.49474e-11
-5.67373e-11
4.27382e-11
-4.82609e-11
-4.24062e-11
-2.42141e-11
3.43333e-12
6.95928e-12
6.21895e-11
9.34837e-14
-2.35036e-13
1.14589e-09
1.8225e-13
-2.30612e-13
1.14552e-09
2.48692e-13
-1.95771e-13
1.14488e-09
2.88481e-13
-1.94426e-13
1.14398e-09
3.02225e-13
-1.21495e-13
1.14293e-09
2.88907e-13
-1.50407e-13
1.14188e-09
2.61414e-13
-1.7566e-14
1.14104e-09
2.16793e-13
-1.45723e-13
1.14025e-09
1.89659e-13
1.08746e-13
1.13997e-09
1.32166e-13
-2.9725e-13
1.13967e-09
1.99415e-13
2.7703e-13
1.14035e-09
-3.62932e-16
-6.47549e-13
1.15411e-09
2.49531e-13
6.43949e-13
1.18603e-09
4.01424e-11
-1.76716e-14
9.74382e-10
5.74922e-11
-4.07902e-11
-5.74402e-11
-4.22415e-11
-7.70461e-12
-1.00227e-12
9.1091e-11
1.12859e-13
-1.29967e-13
1.14694e-09
2.16377e-13
-1.26676e-13
1.14645e-09
2.95172e-13
-1.0589e-13
1.14561e-09
3.41479e-13
-1.0445e-13
1.14453e-09
3.60924e-13
-6.59364e-14
1.1435e-09
3.33558e-13
-7.89925e-14
1.14241e-09
3.13602e-13
-1.09082e-14
1.14146e-09
2.24718e-13
-7.62718e-14
1.14032e-09
2.13891e-13
5.57875e-14
1.13925e-09
1.96297e-14
-1.42606e-13
1.13748e-09
8.71986e-14
1.47783e-13
1.1348e-09
-3.01833e-13
-2.76544e-13
1.13675e-09
2.46012e-14
3.04367e-13
1.13908e-09
6.60671e-11
-2.10902e-13
8.78191e-10
6.47058e-11
-6.59731e-11
-6.45494e-11
-5.19841e-11
4.3711e-12
1.30565e-11
-1.51313e-12
1.02138e-10
1.17277e-13
1.14781e-09
2.23097e-13
1.14698e-09
3.02116e-13
1.14593e-09
3.48045e-13
1.14483e-09
3.70856e-13
1.14383e-09
3.45074e-13
1.14275e-09
3.29657e-13
1.14171e-09
2.44119e-13
1.14034e-09
2.37971e-13
1.13862e-09
6.29405e-14
1.13551e-09
1.52236e-13
1.1305e-09
-1.28067e-13
1.12872e-09
1.73776e-13
1.12541e-09
6.28262e-11
8.72307e-10
6.20385e-11
-6.28302e-11
-6.20424e-11
-4.856e-11
-9.55566e-13
1.43637e-11
1.08568e-12
9.6893e-11
-4.16185e-11
-5.88162e-13
-1.43585e-11
5.6566e-11
-3.49792e-11
1.4085e-12
-2.03639e-12
-1.42075e-11
4.98146e-11
-8.73672e-12
1.96637e-12
-8.46242e-12
1.52328e-11
2.12225e-13
-2.23973e-13
8.7264e-10
6.20647e-11
6.29077e-11
-6.20589e-11
-6.29044e-11
2.02198e-14
-5.53657e-14
8.78935e-10
6.48058e-11
6.61585e-11
-6.4641e-11
-6.60626e-11
9.01921e-13
-2.69026e-13
9.7484e-10
5.75559e-11
4.01676e-11
-5.74997e-11
-4.08085e-11
5.78833e-11
-2.36407e-13
7.62077e-10
4.27532e-11
4.83832e-11
-4.24208e-11
-4.82741e-11
4.45514e-11
-5.67538e-11
-4.49466e-11
-6.43314e-11
6.51682e-12
1.24065e-11
-1.3547e-11
1.16839e-10
-2.93592e-11
-2.54805e-12
-8.47532e-13
-9.679e-12
4.24338e-11
-3.17549e-13
6.0199e-14
1.12574e-09
-6.44442e-13
2.28818e-13
1.13976e-09
-8.83266e-13
-4.48494e-14
1.18657e-09
-2.0125e-12
8.72429e-13
1.16299e-09
8.32139e-13
-1.41279e-12
9.01936e-10
4.66592e-11
5.51212e-11
-4.79773e-11
-5.52451e-11
6.51024e-11
-2.25889e-13
7.22288e-10
5.80183e-11
6.16938e-11
-5.75639e-11
-6.09479e-11
4.47985e-11
-6.47279e-11
-4.53241e-11
-5.30945e-11
1.63295e-11
1.40431e-11
-1.44932e-11
1.02317e-10
-3.53407e-11
-1.86994e-12
-3.1093e-12
-1.13298e-11
5.16498e-11
2.85e-13
-2.66778e-13
1.12893e-09
6.57609e-13
-1.85841e-13
1.13714e-09
8.8805e-13
-3.04287e-13
1.1545e-09
2.02277e-12
-2.85063e-13
1.16938e-09
5.40887e-13
3.78442e-14
1.15656e-09
-7.10698e-13
1.02648e-12
1.13184e-09
1.9089e-12
-1.51362e-12
8.82311e-10
4.70651e-11
5.89944e-11
-4.81964e-11
-5.89845e-11
5.84608e-11
-1.21096e-13
7.46933e-10
5.85379e-11
6.29067e-11
-5.79951e-11
-6.19908e-11
4.38876e-11
-5.72954e-11
-4.4476e-11
-7.26039e-11
1.14748e-11
6.04203e-12
-1.44052e-11
1.27952e-10
-1.38236e-11
2.65542e-12
-1.23523e-11
2.35204e-11
-1.50911e-13
-2.30198e-13
1.13073e-09
-2.70446e-13
-1.69959e-13
1.13509e-09
-3.9345e-13
-2.76893e-13
1.14066e-09
-6.33172e-13
-1.40348e-13
1.14441e-09
-1.29718e-13
-5.38881e-13
1.14696e-09
1.03943e-12
-1.87272e-13
1.1549e-09
-4.22475e-13
-8.566e-14
1.14606e-09
-1.80094e-12
1.24037e-12
1.13624e-09
1.20488e-12
-1.83608e-12
8.81227e-10
4.53246e-11
5.28851e-11
-4.63363e-11
-5.30665e-11
4.33474e-11
9.68376e-13
7.19521e-10
5.68555e-11
5.06194e-11
-5.63743e-11
-5.08535e-11
3.38759e-11
-4.2399e-11
-3.48379e-11
-1.25716e-11
1.07045e-11
4.52156e-11
1.52217e-13
-4.43437e-13
1.13561e-09
3.30477e-13
-4.06099e-13
1.13763e-09
3.52142e-13
-3.69989e-13
1.13985e-09
4.69806e-13
-3.23095e-13
1.13963e-09
2.25319e-14
-1.7843e-13
1.13694e-09
-1.24922e-13
-1.13082e-13
1.13455e-09
1.46956e-14
-2.80655e-13
1.13626e-09
1.48699e-12
-2.61199e-13
1.14378e-09
-9.67137e-13
5.83135e-13
1.13167e-09
-9.68458e-13
9.61886e-13
1.12293e-09
5.06324e-11
-1.21789e-12
7.20259e-10
3.37843e-11
4.3352e-11
-3.47359e-11
-4.23636e-11
5.68724e-11
-5.08723e-11
-5.63969e-11
-1.56078e-11
1.89192e-11
4.73205e-11
-5.56117e-14
-4.88352e-13
1.13875e-09
-9.49292e-14
-4.58939e-13
1.1394e-09
-1.15459e-13
-4.39521e-13
1.14011e-09
-1.57525e-13
-3.76259e-13
1.13943e-09
-1.04197e-13
-3.20531e-13
1.13677e-09
-3.06556e-14
-2.71259e-13
1.13249e-09
-3.9872e-13
-1.00563e-14
1.12784e-09
-5.56035e-13
-1.83319e-13
1.12371e-09
-5.91186e-13
5.39017e-13
1.127e-09
1.83357e-12
-1.49573e-12
1.13223e-09
5.30362e-11
1.78589e-12
8.81725e-10
4.53512e-11
-5.32152e-11
-4.63646e-11
-4.13264e-11
-6.87801e-12
1.02121e-11
2.78995e-13
9.07483e-11
9.8324e-14
-6.0078e-13
1.14035e-09
2.10206e-13