/*--------------------------------*- C++ -*----------------------------------*\
| =========                 |                                                 |
| \\      /  F ield         | OpenFOAM: The Open Source CFD Toolbox           |
|  \\    /   O peration     | Version:  2.1.1                                 |
|   \\  /    A nd           | Web:      www.OpenFOAM.org                      |
|    \\/     M anipulation  |                                                 |
\*---------------------------------------------------------------------------*/
FoamFile
{
    version     2.0;
    format      ascii;
    class       volScalarField;
    location    "0.002";
    object      p;
}
// * * * * * * * * * * * * * * * * * * * * * * * * * * * * * * * * * * * * * //

dimensions      [0 2 -2 0 0 0 0];

internalField   nonuniform List<scalar> 
10179
(
0.13506
0.135042
0.135077
0.13516
0.135305
0.135499
0.135767
0.136079
0.13651
0.136962
0.137712
0.138519
0.140899
0.1456
0.161091
0.135043
0.135024
0.135057
0.135134
0.135274
0.135465
0.13573
0.136041
0.136479
0.136955
0.137768
0.138738
0.141286
0.145546
0.159641
0.135077
0.135055
0.135092
0.135165
0.135298
0.135488
0.135755
0.136069
0.136513
0.137028
0.137908
0.139113
0.141853
0.146148
0.151333
0.13516
0.135133
0.135167
0.135245
0.13537
0.135552
0.135807
0.136105
0.136521
0.137014
0.137858
0.139305
0.141986
0.144798
0.128253
0.135305
0.135273
0.135297
0.135364
0.135502
0.135681
0.135926
0.136217
0.136644
0.137194
0.138253
0.140425
0.143967
0.149109
0.120945
0.135498
0.135463
0.135484
0.135546
0.135672
0.135834
0.136078
0.136365
0.136805
0.137442
0.13888
0.141845
0.146626
0.152806
0.135766
0.135727
0.13575
0.1358
0.135919
0.136074
0.136345
0.136686
0.137285
0.138295
0.140641
0.144762
0.153178
0.139719
0.136076
0.136036
0.136062
0.136097
0.136209
0.136359
0.136683
0.137104
0.137896
0.139298
0.142411
0.147994
0.153772
0.136507
0.136471
0.136504
0.136511
0.136635
0.136797
0.137278
0.137893
0.139203
0.141303
0.145755
0.1545
0.133756
0.136957
0.136945
0.137016
0.137001
0.137181
0.13743
0.138284
0.139289
0.141295
0.144474
0.151631
0.159698
0.137705
0.137755
0.137892
0.137841
0.138237
0.138864
0.140624
0.142394
0.145734
0.151654
0.160892
0.138512
0.138723
0.139094
0.139284
0.140404
0.141825
0.144739
0.147965
0.15446
0.159662
0.140891
0.141273
0.141831
0.141953
0.14394
0.146603
0.153154
0.153741
0.133716
0.145594
0.145547
0.146192
0.144725
0.149077
0.152781
0.139695
0.161062
0.159605
0.151304
0.128213
0.120911
0.0882113
0.0882658
0.0883892
0.0885576
0.0888259
0.0891262
0.0895975
0.0900564
0.0908877
0.0915322
0.0931659
0.093806
0.0977278
0.0955134
0.132908
0.0882661
0.0883229
0.0884485
0.0886156
0.0888854
0.0891899
0.0896615
0.0901278
0.0909523
0.0916125
0.0931959
0.0938219
0.097558
0.09499
0.130277
0.088389
0.0884467
0.0885816
0.0887532
0.0890324
0.0893544
0.0898532
0.0903658
0.0912485
0.0920401
0.0937215
0.0945828
0.0982377
0.0957777
0.122342
0.0885577
0.0886151
0.0887548
0.0889362
0.0892225
0.0895493
0.0900475
0.0905717
0.0914183
0.0922565
0.0936183
0.094799
0.0963788
0.0970069
0.120371
0.088826
0.0888841
0.0890304
0.0892168
0.089541
0.0898961
0.090454
0.0910614
0.0920773
0.0931727
0.0950025
0.0969684
0.0991429
0.128843
0.107439
0.0891261
0.0891878
0.0893515
0.0895445
0.0898914
0.0902424
0.0908294
0.0914328
0.0924234
0.0934335
0.0951115
0.0964774
0.0988261
0.125611
0.0895975
0.0896586
0.08985
0.0900429
0.09045
0.0908278
0.0915429
0.0922402
0.093518
0.0948913
0.0974255
0.0994018
0.137982
0.115893
0.0900567
0.0901234
0.0903617
0.0905661
0.0910561
0.0914287
0.0922363
0.0928538
0.0940285
0.0952545
0.0968458
0.0993049
0.130068
0.0908883
0.0909468
0.0912437
0.0914118
0.0920713
0.0924185
0.0935127
0.09403
0.095925
0.0970275
0.100069
0.136108
0.117967
0.0915334
0.0916049
0.0920339
0.0922466
0.0931629
0.0934236
0.0948798
0.0952476
0.0970165
0.0973307
0.0974308
0.133007
0.0931666
0.0931868
0.0937128
0.0936058
0.0949903
0.0951007
0.0974115
0.0968441
0.100054
0.0974981
0.142039
0.0938106
0.0938067
0.0945726
0.09478
0.0969514
0.0964589
0.0993797
0.0992816
0.136074
0.132967
0.0977267
0.0975435
0.098218
0.096355
0.0991236
0.0988069
0.137961
0.130044
0.117934
0.0955279
0.0949579
0.0957641
0.0969753
0.12882
0.125589
0.115872
0.132879
0.130248
0.122314
0.120342
0.107412
0.105564
0.105611
0.105716
0.105858
0.106076
0.10631
0.106656
0.10695
0.107449
0.107652
0.108318
0.107779
0.108372
0.105018
0.119401
0.105611
0.105659
0.105764
0.105906
0.106124
0.106359
0.106703
0.107001
0.107488
0.107709
0.108322
0.107849
0.10821
0.104931
0.119287
0.105716
0.105764
0.105873
0.106017
0.106239
0.106481
0.106834
0.107153
0.107661
0.107948
0.108589
0.108331
0.108735
0.106071
0.117006
0.105858
0.105906
0.106017
0.106161
0.106384
0.106624
0.106967
0.107285
0.107741
0.108044
0.108439
0.108295
0.107801
0.104973
0.119836
0.106076
0.106123
0.106238
0.106382
0.106615
0.106859
0.107215
0.107545
0.10802
0.108311
0.108673
0.108288
0.106897
0.124806
0.111761
0.10631
0.106357
0.106479
0.106621
0.106857
0.10709
0.107436
0.107747
0.108157
0.108384
0.108495
0.107916
0.104681
0.118088
0.106656
0.106701
0.106831
0.106963
0.107212
0.107434
0.107793
0.108088
0.108487
0.108616
0.108594
0.106677
0.128321
0.11244
0.10695
0.106997
0.107149
0.107279
0.10754
0.107743
0.108085
0.10836
0.108643
0.108726
0.108449
0.105489
0.120733
0.107448
0.107483
0.107656
0.107735
0.108014
0.108152
0.108481
0.108644
0.108761
0.10877
0.107052
0.129225
0.116006
0.107652
0.107702
0.107941
0.108034
0.108302
0.108374
0.108606
0.108721
0.108768
0.108718
0.106616
0.124415
0.108317
0.108313
0.10858
0.108427
0.108661
0.108483
0.108581
0.108441
0.10705
0.106628
0.134428
0.107781
0.107835
0.10832
0.108279
0.108273
0.1079
0.10666
0.105473
0.129217
0.124415
0.108368
0.108195
0.108719
0.107782
0.106881
0.104665
0.128306
0.120717
0.115983
0.105025
0.104907
0.106057
0.10495
0.124789
0.11807
0.112423
0.119383
0.119271
0.116986
0.119813
0.111741
0.104678
0.10472
0.104818
0.104947
0.105147
0.105356
0.105669
0.105933
0.106375
0.106592
0.107127
0.106955
0.107218
0.106157
0.117021
0.10472
0.104763
0.104861
0.10499
0.10519
0.1054
0.105711
0.105977
0.106408
0.106634
0.10713
0.106961
0.107141
0.105989
0.117294
0.104818
0.104861
0.104961
0.105091
0.105295
0.10551
0.10583
0.106112
0.106559
0.106817
0.107333
0.107194
0.107419
0.106276
0.115419
0.104947
0.10499
0.105091
0.105221
0.105424
0.105638
0.105948
0.106231
0.106639
0.106913
0.107264
0.107222
0.106916
0.106212
0.11805
0.105147
0.105189
0.105294
0.105423
0.105635
0.105852
0.106175
0.106468
0.106896
0.107156
0.107528
0.107182
0.107089
0.122478
0.111582
0.105356
0.105398
0.105508
0.105636
0.10585
0.10606
0.106374
0.106652
0.107031
0.107262
0.10746
0.107169
0.10639
0.115553
0.105669
0.105709
0.105827
0.105946
0.106173
0.106373
0.106696
0.106964
0.10732
0.107507
0.107464
0.107123
0.125205
0.110989
0.105933
0.105974
0.106108
0.106227
0.106464
0.106649
0.106962
0.107184
0.107472
0.107554
0.107508
0.106925
0.117353
0.106375
0.106404
0.106554
0.106633
0.106891
0.107027
0.107316
0.107476
0.107688
0.107579
0.107327
0.125286
0.113558
0.106592
0.106628
0.106812
0.106905
0.107148
0.107254
0.107499
0.107551
0.107574
0.107239
0.107401
0.120757
0.107127
0.107123
0.107326
0.107254
0.107518
0.10745
0.107454
0.107501
0.107319
0.107431
0.130104
0.106958
0.106949
0.107186
0.107209
0.10717
0.107155
0.107108
0.106911
0.125285
0.120771
0.107216
0.10713
0.107407
0.106902
0.107078
0.106375
0.125193
0.117342
0.113545
0.106168
0.105963
0.106266
0.106195
0.122466
0.115539
0.110974
0.117013
0.117284
0.115408
0.118033
0.111566
0.10409
0.104125
0.104207
0.104312
0.104474
0.104634
0.104865
0.105032
0.105291
0.105338
0.105494
0.105174
0.105062
0.104345
0.115291
0.104125
0.104161
0.104242
0.104347
0.104508
0.104666
0.104893
0.10506
0.105306
0.105354
0.105473
0.105162
0.104993
0.104285
0.11558
0.104207
0.104242
0.104324
0.104429
0.10459
0.104749
0.104977
0.105146
0.105394
0.105441
0.105563
0.105238
0.105112
0.104343
0.113838
0.104312
0.104347
0.104428
0.10453
0.104687
0.104841
0.105055
0.105215
0.105418
0.10546
0.105456
0.1052
0.104718
0.104432
0.116578
0.104474
0.104507
0.104589
0.104687
0.104844
0.104991
0.1052
0.105347
0.105539
0.105527
0.105533
0.105064
0.104816
0.12085
0.110484
0.104634
0.104665
0.104748
0.104839
0.10499
0.105121
0.105308
0.105424
0.105558
0.105506
0.105413
0.104927
0.104631
0.113911
0.104865
0.104892
0.104976
0.105053
0.105198
0.105307
0.105469
0.105555
0.105626
0.105551
0.105272
0.104879
0.122919
0.109728
0.105032
0.105057
0.105144
0.105211
0.105344
0.105422
0.105554
0.105584
0.105604
0.105462
0.105173
0.104957
0.115448
0.105291
0.105303
0.105391
0.105414
0.105535
0.105555
0.105624
0.105605
0.105586
0.105382
0.105066
0.123112
0.111766
0.105338
0.105348
0.105436
0.105454
0.105521
0.1055
0.105546
0.10546
0.105377
0.104952
0.105285
0.11872
0.105494
0.105467
0.105557
0.105448
0.105526
0.105406
0.105265
0.105169
0.105053
0.105145
0.127376
0.105175
0.105153
0.105232
0.10519
0.105055
0.104917
0.104868
0.104945
0.123103
0.118717
0.10506
0.104985
0.105103
0.104707
0.104807
0.10462
0.122911
0.115441
0.111758
0.104347
0.104273
0.104335
0.10442
0.120842
0.113901
0.109717
0.115289
0.115575
0.11383
0.116566
0.110473
0.103555
0.103582
0.103644
0.103721
0.103837
0.103944
0.10409
0.104174
0.104285
0.104227
0.104191
0.103916
0.103671
0.103279
0.114089
0.103582
0.103609
0.10367
0.103746
0.10386
0.103966
0.104108
0.104188
0.104288
0.104227
0.104168
0.103903
0.103619
0.103257
0.114403
0.103644
0.10367
0.103731
0.103805
0.103918
0.10402
0.104158
0.104234
0.104329
0.104253
0.104207
0.103913
0.103703
0.103252
0.112664
0.103721
0.103746
0.103805
0.103875
0.103982
0.104077
0.1042
0.104263
0.10432
0.104244
0.104122
0.103891
0.103447
0.103349
0.115417
0.103837
0.10386
0.103917
0.103982
0.104083
0.104166
0.104274
0.104316
0.104351
0.104235
0.104126
0.103739
0.103504
0.119659
0.109431
0.103944
0.103965
0.10402
0.104076
0.104165
0.104231
0.104315
0.104325
0.104323
0.104189
0.104052
0.103638
0.103467
0.112809
0.104091
0.104106
0.104157
0.104198
0.104273
0.104314
0.104362
0.104347
0.104291
0.104161
0.103871
0.103574
0.12144
0.108614
0.104174
0.104186
0.104232
0.10426
0.104314
0.104324
0.104346
0.104299
0.104228
0.104066
0.103804
0.10367
0.114166
0.104285
0.104285
0.104327
0.104317
0.104348
0.104321
0.104289
0.10423
0.104121
0.103965
0.103649
0.121696
0.110453
0.104228
0.104224
0.10425
0.104239
0.10423
0.104184
0.104158
0.104066
0.103973
0.103591
0.103754
0.117258
0.104191
0.104163
0.104203
0.104116
0.10412
0.104047
0.103866
0.1038
0.103664
0.104
0.125673
0.103916
0.103897
0.103908
0.103884
0.103733
0.103631
0.103567
0.103665
0.121714
0.117323
0.10367
0.103612
0.103697
0.103439
0.103497
0.10346
0.121436
0.114164
0.110453
0.103278
0.103249
0.103245
0.103341
0.119654
0.112803
0.108607
0.114086
0.1144
0.112659
0.115409
0.109424
0.102777
0.102795
0.102836
0.102885
0.102954
0.103009
0.103073
0.103083
0.103074
0.102972
0.102847
0.102663
0.102402
0.102303
0.113041
0.102795
0.102813
0.102853
0.1029
0.102967
0.10302
0.103079
0.103086
0.103067
0.102967
0.102827
0.102655
0.10237
0.102299
0.113369
0.102836
0.102853
0.102892
0.102936
0.103
0.103047
0.103101
0.103098
0.103076
0.102962
0.102843
0.102632
0.102444
0.102247
0.111583
0.102885
0.1029
0.102936
0.102975
0.103031
0.10307
0.103109
0.103094
0.103051
0.102943
0.102782
0.102635
0.102288
0.10239
0.114342
0.102954
0.102967
0.102999
0.103031
0.103079
0.103104
0.103127
0.103092
0.10304
0.102903
0.102769
0.102498
0.102384
0.118564
0.108435
0.103009
0.103019
0.103046
0.103069
0.103103
0.103112
0.103115
0.103062
0.103001
0.102855
0.102738
0.102454
0.102433
0.111747
0.103073
0.103078
0.1031
0.103108
0.103126
0.103115
0.10309
0.103034
0.102932
0.102818
0.102572
0.102451
0.120238
0.107573
0.103083
0.103084
0.103096
0.103092
0.103091
0.103061
0.103033
0.102961
0.102873
0.10274
0.102567
0.102567
0.113007
0.103074
0.103065
0.103074
0.103049
0.103038
0.102999
0.102931
0.102874
0.102766
0.102682
0.102474
0.120476
0.10932
0.102972
0.102964
0.10296
0.10294
0.1029
0.102852
0.102817
0.102741
0.102679
0.102369
0.102842
0.116057
0.102846
0.102823
0.10284
0.102778
0.102765
0.102735
0.10257
0.102571
0.102472
0.102641
0.124335
0.102662
0.102651
0.102628
0.10263
0.102493
0.102449
0.102447
0.102566
0.120494
0.116068
0.102401
0.102364
0.102439
0.102283
0.10238
0.102428
0.120237
0.113008
0.109324
0.102302
0.102292
0.102241
0.102386
0.118563
0.111743
0.107569
0.113038
0.113368
0.111579
0.114338
0.108431
0.101909
0.10192
0.101942
0.101966
0.101996
0.102009
0.102012
0.10197
0.101897
0.101794
0.101633
0.101521
0.101257
0.101295
0.112024
0.10192
0.10193
0.101951
0.101973
0.102001
0.102011
0.102009
0.101965
0.101888
0.101787
0.101619
0.10152
0.101237
0.101307
0.112357
0.101942
0.101951
0.101971
0.101989
0.102013
0.102018
0.10201
0.101957
0.101882
0.101768
0.101625
0.10148
0.1013
0.101226
0.110536
0.101966
0.101973
0.101989
0.102003
0.102019
0.102016
0.101996
0.101938
0.101854
0.101748
0.101582
0.101495
0.101185
0.101392
0.113302
0.101996
0.102
0.102013
0.102019
0.102026
0.10201
0.101977
0.101911
0.101823
0.101696
0.101562
0.101365
0.101293
0.117505
0.107449
0.102009
0.102011
0.102017
0.102015
0.10201
0.101981
0.101941
0.101867
0.101784
0.101651
0.101553
0.101331
0.101394
0.110703
0.102012
0.102009
0.102009
0.101995
0.101976
0.101941
0.101884
0.101818
0.101703
0.101616
0.101396
0.101361
0.119119
0.106559
0.10197
0.101964
0.101956
0.101937
0.10191
0.101867
0.101817
0.101741
0.101655
0.101545
0.101407
0.101482
0.111904
0.101897
0.101886
0.101881
0.101853
0.101822
0.101783
0.101703
0.101656
0.101557
0.101504
0.101342
0.119341
0.108254
0.101793
0.101785
0.101766
0.101745
0.101694
0.10165
0.101615
0.101546
0.101509
0.101225
0.101569
0.114908
0.101632
0.101616
0.101623
0.101579
0.10156
0.101551
0.101395
0.101408
0.101356
0.101685
0.123122
0.10152
0.101516
0.101477
0.101492
0.101362
0.101328
0.101359
0.101482
0.119362
0.114938
0.101256
0.101232
0.101295
0.101184
0.101291
0.101392
0.11912
0.111906
0.108259
0.101294
0.101301
0.101214
0.101397
0.117508
0.110702
0.106557
0.112021
0.112356
0.110531
0.113301
0.107451
0.100949
0.100953
0.100959
0.100962
0.10096
0.100943
0.1009
0.100839
0.100742
0.100657
0.100495
0.100443
0.100193
0.100298
0.11102
0.100953
0.100955
0.100961
0.100963
0.100959
0.100938
0.100893
0.100831
0.100733
0.100652
0.100486
0.100446
0.100178
0.100318
0.111354
0.100959
0.100961
0.100965
0.100963
0.100955
0.10093
0.100881
0.100815
0.100721
0.100627
0.10049
0.1004
0.100236
0.100218
0.109514
0.100962
0.100963
0.100963
0.100957
0.100943
0.10091
0.100858
0.100792
0.100697
0.100612
0.10046
0.100424
0.100144
0.100402
0.11228
0.10096
0.100958
0.100955
0.100943
0.100921
0.100882
0.100825
0.100755
0.100661
0.10056
0.100441
0.100303
0.100248
0.116466
0.106462
0.100943
0.100938
0.100929
0.10091
0.100881
0.100838
0.100784
0.100711
0.10063
0.100523
0.100448
0.100272
0.100372
0.109677
0.1009
0.100892
0.10088
0.100858
0.100824
0.100784
0.100717
0.100659
0.100552
0.100495
0.100303
0.100313
0.118041
0.105553
0.100839
0.10083
0.100814
0.100791
0.100754
0.100711
0.100659
0.100593
0.100518
0.100435
0.100321
0.100431
0.11084
0.100741
0.100732
0.10072
0.100696
0.10066
0.10063
0.100551
0.100519
0.100434
0.100414
0.100277
0.118254
0.107215
0.100656
0.10065
0.100626
0.100611
0.100559
0.100522
0.100494
0.100435
0.100413
0.100151
0.10057
0.113818
0.100495
0.100484
0.100488
0.100459
0.10044
0.100447
0.100302
0.100321
0.100277
0.100532
0.121969
0.100442
0.100444
0.100398
0.100422
0.100301
0.10027
0.100312
0.100431
0.118274
0.113851
0.100192
0.100176
0.100233
0.100142
0.100247
0.10037
0.118043
0.110843
0.107221
0.100296
0.100315
0.100216
0.1004
0.116468
0.109677
0.105552
0.111017
0.111355
0.109513
0.112279
0.106462
0.0999041
0.0999022
0.0998962
0.099884
0.099859
0.0998203
0.0997587
0.0996992
0.0996015
0.0995433
0.0993967
0.099391
0.0991621
0.0993098
0.110022
0.099902
0.0998994
0.0998928
0.0998793
0.0998526
0.0998123
0.0997508
0.0996922
0.0995949
0.0995403
0.0993909
0.0993974
0.0991514
0.0993346
0.110356
0.0998961
0.0998928
0.0998847
0.0998684
0.0998385
0.099796
0.0997351
0.0996733
0.0995829
0.0995153
0.0993944
0.0993482
0.0992054
0.0992285
0.108507
0.0998839
0.0998792
0.0998685
0.0998487
0.0998147
0.0997717
0.099712
0.0996527
0.0995646
0.0995068
0.099376
0.0993815
0.099129
0.0994154
0.111272
0.0998589
0.0998525
0.0998385
0.099815
0.0997788
0.099736
0.0996753
0.0996155
0.0995307
0.0994581
0.0993604
0.099265
0.0992307
0.115442
0.105476
0.0998202
0.0998119
0.0997957
0.0997714
0.0997358
0.0996937
0.0996393
0.099579
0.0995107
0.0994309
0.0993791
0.0992413
0.0993649
0.108664
0.0997586
0.0997503
0.0997347
0.0997117
0.0996751
0.0996395
0.0995765
0.0995329
0.0994403
0.0994102
0.0992445
0.0992856
0.116991
0.104555
0.099699
0.0996914
0.0996728
0.0996521
0.0996151
0.0995789
0.0995328
0.0994823
0.0994221
0.0993634
0.0992721
0.0994071
0.109802
0.0996012
0.0995941
0.0995823
0.0995639
0.0995301
0.0995104
0.0994402
0.0994225
0.0993519
0.0993554
0.0992368
0.117197
0.106194
0.0995429
0.0995393
0.0995145
0.0995058
0.0994573
0.0994304
0.09941
0.0993639
0.0993559
0.0991152
0.0995064
0.112766
0.0993961
0.0993898
0.0993934
0.0993749
0.0993595
0.0993784
0.0992442
0.0992721
0.0992376
0.0995216
0.120872
0.0993903
0.099396
0.099347
0.0993802
0.099264
0.0992405
0.0992852
0.0994071
0.117215
0.112791
0.0991611
0.0991499
0.099204
0.0991277
0.0992299
0.0993641
0.116994
0.109805
0.1062
0.0993088
0.0993329
0.0992271
0.099414
0.115443
0.108664
0.104555
0.110019
0.110358
0.108507
0.111271
0.105476
0.0987943
0.0987887
0.0987743
0.0987517
0.0987123
0.0986695
0.0986085
0.0985621
0.0984784
0.0984489
0.0983263
0.0983585
0.0981532
0.0983315
0.109028
0.0987885
0.0987826
0.0987674
0.098744
0.0987039
0.0986619
0.098602
0.098557
0.0984746
0.0984482
0.098324
0.0983667
0.0981465
0.0983573
0.109362
0.0987743
0.0987676
0.0987515
0.0987259
0.0986862
0.0986445
0.098587
0.0985402
0.098465
0.0984258
0.0983288
0.098317
0.0981984
0.0982515
0.10751
0.0987517
0.098744
0.0987264
0.0987
0.0986616
0.0986225
0.0985685
0.0985251
0.098454
0.0984241
0.098319
0.0983526
0.0981337
0.0984363
0.110274
0.0987122
0.0987038
0.0986862
0.0986617
0.0986255
0.098589
0.0985362
0.0984931
0.098426
0.0983809
0.0983101
0.0982507
0.0982322
0.11443
0.104497
0.0986694
0.0986616
0.0986444
0.0986223
0.0985889
0.0985552
0.0985102
0.0984677
0.098417
0.098365
0.0983368
0.0982327
0.0983727
0.107661
0.0986084
0.0986017
0.0985868
0.0985684
0.0985361
0.0985103
0.0984585
0.0984316
0.098359
0.0983515
0.0982138
0.0982788
0.115963
0.103566
0.0985619
0.0985566
0.0985399
0.0985248
0.0984929
0.0984678
0.0984316
0.0983991
0.098355
0.0983204
0.0982461
0.0983929
0.10878
0.0984781
0.0984742
0.0984647
0.0984537
0.0984258
0.0984171
0.098359
0.0983553
0.0983017
0.0983207
0.0982217
0.116152
0.105185
0.0984485
0.0984475
0.0984254
0.0984237
0.0983806
0.098365
0.0983515
0.0983208
0.0983202
0.098106
0.09851
0.11173
0.0983257
0.0983234
0.0983283
0.0983186
0.0983098
0.0983367
0.0982139
0.0982464
0.0982197
0.0984837
0.1198
0.0983578
0.0983659
0.0983165
0.0983523
0.0982501
0.0982324
0.0982787
0.0983933
0.11617
0.111753
0.0981524
0.0981457
0.0981978
0.0981333
0.098232
0.0983724
0.115966
0.108783
0.105191
0.0983308
0.0983564
0.0982507
0.0984357
0.114432
0.107662
0.103567
0.109025
0.109365
0.107511
0.110274
0.104497
0.0976348
0.0976265
0.0976068
0.0975783
0.0975382
0.0975027
0.0974531
0.0974258
0.0973645
0.0973647
0.0972737
0.0973399
0.0971612
0.0973657
0.108037
0.0976263
0.0976178
0.0975978
0.0975694
0.0975307
0.0974965
0.0974489
0.097423
0.0973637
0.0973662
0.0972755
0.0973494
0.0971603
0.0973904
0.108371
0.0976067
0.0975981
0.0975777
0.0975506
0.0975145
0.0974825
0.0974375
0.0974107
0.0973586
0.0973496
0.0972844
0.0973079
0.0972134
0.0972927
0.106523
0.0975782
0.0975694
0.097551
0.0975275
0.0974949
0.0974662
0.0974264
0.0974028
0.0973561
0.0973547
0.0972849
0.0973526
0.0971634
0.0974704
0.109287
0.0975381
0.0975307
0.0975145
0.097495
0.0974655
0.0974408
0.0974027
0.0973796
0.0973368
0.0973189
0.0972781
0.0972382
0.0972517
0.113428
0.103526
0.0975025
0.0974963
0.0974824
0.0974661
0.0974408
0.0974196
0.0973894
0.0973679
0.0973396
0.097316
0.0973122
0.097234
0.0973913
0.106667
0.0974529
0.0974488
0.0974375
0.0974264
0.0974028
0.0973896
0.0973538
0.0973454
0.0972974
0.0973094
0.0972027
0.0972757
0.114947
0.102585
0.0974256
0.0974228
0.0974107
0.0974029
0.0973797
0.0973681
0.0973455
0.0973338
0.0973077
0.0972987
0.0972406
0.097399
0.10777
0.0973642
0.0973636
0.0973585
0.0973562
0.0973369
0.0973399
0.0972977
0.0973082
0.097275
0.0973034
0.0972235
0.115112
0.104187
0.0973643
0.097366
0.0973496
0.0973548
0.0973191
0.0973163
0.0973099
0.0972996
0.0973052
0.0971247
0.0974782
0.1107
0.0972732
0.0972753
0.0972844
0.0972851
0.0972784
0.0973127
0.0972033
0.0972416
0.0972286
0.0975282
0.118745
0.0973394
0.0973492
0.0973079
0.0973527
0.0972385
0.0972345
0.0972762
0.0973999
0.115132
0.110735
0.0971605
0.0971602
0.0972133
0.0971636
0.097252
0.0973918
0.114951
0.107774
0.104193
0.0973652
0.0973901
0.0972926
0.0974704
0.113431
0.106668
0.102586
0.108035
0.108375
0.106526
0.109288
0.103527
0.0964361
0.0964262
0.096404
0.0963782
0.0963462
0.0963231
0.0962911
0.0962855
0.0962523
0.0962828
0.0962304
0.0963312
0.0961826
0.0964182
0.107049
0.096426
0.0964164
0.0963948
0.0963709
0.096341
0.0963194
0.0962895
0.0962852
0.0962547
0.0962867
0.0962367
0.0963413
0.0961902
0.0964401
0.107384
0.0964038
0.0963951
0.0963766
0.096356
0.0963293
0.0963104
0.096284
0.0962794
0.0962561
0.0962791
0.0962527
0.0963146
0.0962489
0.0963619
0.105548
0.096378
0.096371
0.0963562
0.0963395
0.0963174
0.0963023
0.0962812
0.0962799
0.0962629
0.0962911
0.096265
0.0963574
0.0962185
0.0965274
0.108314
0.096346
0.096341
0.0963293
0.0963174
0.0962986
0.0962881
0.0962692
0.0962683
0.0962545
0.0962653
0.096262
0.0962469
0.0962915
0.112439
0.102571
0.0963229
0.0963194
0.0963105
0.0963024
0.0962882
0.0962819
0.0962703
0.096272
0.0962706
0.0962768
0.0963027
0.0962499
0.0964316
0.105682
0.0962909
0.0962895
0.096284
0.0962814
0.0962694
0.0962706
0.0962548
0.0962663
0.0962477
0.0962787
0.0962086
0.0962823
0.113943
0.101616
0.0962853
0.0962853
0.0962796
0.0962803
0.0962686
0.0962724
0.0962665
0.0962783
0.0962741
0.0962936
0.0962546
0.0964207
0.106771
0.096252
0.0962549
0.0962563
0.0962633
0.096255
0.0962712
0.0962482
0.0962746
0.0962661
0.0963068
0.0962566
0.114071
0.103199
0.0962826
0.0962869
0.0962795
0.0962917
0.0962662
0.0962777
0.0962795
0.0962941
0.0963061
0.0961718
0.0965528
0.109688
0.09623
0.0962371
0.0962531
0.0962658
0.096263
0.0963039
0.0962098
0.0962552
0.0962517
0.096502
0.117677
0.0963308
0.0963416
0.0963151
0.0963582
0.096248
0.0962513
0.0962838
0.0964218
0.114088
0.109705
0.0961821
0.0961907
0.0962495
0.0962194
0.0962926
0.096433
0.113947
0.106776
0.103206
0.0964178
0.0964405
0.0963624
0.0965282
0.112442
0.105684
0.101618
0.107047
0.107388
0.105551
0.108315
0.102572
0.0952077
0.095197
0.0951783
0.0951604
0.0951403
0.0951309
0.0951192
0.0951365
0.0951345
0.0951965
0.0951886
0.0953295
0.0952158
0.0954974
0.106062
0.095197
0.095188
0.0951715
0.0951558
0.0951378
0.0951302
0.0951206
0.095139
0.0951403
0.0952029
0.0951998
0.0953408
0.0952321
0.0955185
0.106395
0.0951782
0.0951717
0.0951591
0.0951467
0.0951323
0.0951274
0.0951223
0.0951413
0.0951507
0.0952083
0.0952283
0.0953391
0.0953102
0.0954765
0.104586
0.0951602
0.0951559
0.0951467
0.0951387
0.0951287
0.0951283
0.0951286
0.095151
0.0951673
0.0952274
0.0952559
0.0953743
0.0953095
0.0956271
0.107359
0.0951401
0.0951378
0.0951323
0.0951287
0.0951223
0.0951271
0.0951302
0.0951527
0.0951719
0.0952143
0.0952578
0.0952714
0.0953607
0.111463
0.101642
0.0951308
0.0951303
0.0951275
0.0951285
0.0951272
0.0951371
0.0951468
0.0951733
0.0952032
0.0952419
0.0953056
0.0952789
0.0955022
0.10471
0.0951189
0.0951208
0.0951226
0.0951289
0.0951306
0.0951471
0.095154
0.0951874
0.0952027
0.0952554
0.0952303
0.0953012
0.112954
0.100665
0.0951363
0.0951394
0.0951417
0.0951516
0.0951533
0.0951739
0.0951877
0.0952255
0.0952494
0.0953011
0.0952891
0.0954578
0.105784
0.0951342
0.0951408
0.0951511
0.095168
0.0951727
0.0952041
0.0952036
0.0952501
0.0952721
0.095329
0.0953129
0.113009
0.102223
0.0951963
0.0952036
0.0952091
0.0952287
0.0952158
0.0952434
0.0952569
0.0953025
0.0953296
0.0952615
0.0956137
0.108661
0.0951882
0.0952006
0.0952292
0.0952574
0.0952593
0.0953078
0.0952326
0.0952914
0.0953117
0.0955785
0.116583
0.0953291
0.0953419
0.0953402
0.0953759
0.0952732
0.0952812
0.0953038
0.0954609
0.113028
0.108677
0.0952154
0.0952331
0.0953114
0.0953112
0.0953625
0.0955046
0.11296
0.105789
0.102231
0.0954972
0.0955197
0.0954776
0.0956288
0.111468
0.104713
0.100669
0.10606
0.1064
0.10459
0.107361
0.101644
0.0939578
0.09395
0.0939381
0.0939293
0.0939221
0.0939254
0.0939341
0.093974
0.0940016
0.0940968
0.0941372
0.094335
0.094254
0.0946188
0.10507
0.0939499
0.0939438
0.0939345
0.0939275
0.0939223
0.0939272
0.0939386
0.0939791
0.094011
0.0941059
0.0941526
0.0943505
0.0942824
0.0946449
0.105397
0.093938
0.0939346
0.0939283
0.0939247
0.093923
0.0939316
0.0939483
0.0939907
0.0940328
0.0941287
0.0942035
0.0943823
0.0944042
0.0946701
0.103639
0.0939291
0.0939275
0.0939248
0.0939253
0.0939281
0.0939411
0.0939639
0.0940092
0.0940596
0.0941559
0.0942528
0.0944091
0.0944504
0.0948093
0.106426
0.0939219
0.0939223
0.093923
0.093928
0.0939335
0.0939537
0.0939799
0.0940255
0.0940791
0.0941573
0.094261
0.0943103
0.0944745
0.110508
0.100757
0.0939252
0.0939274
0.0939318
0.0939415
0.0939539
0.0939802
0.0940124
0.0940641
0.0941295
0.0942036
0.0943201
0.0943204
0.0946219
0.103753
0.0939338
0.093939
0.0939486
0.0939644
0.0939803
0.0940128
0.0940439
0.0941009
0.0941549
0.0942355
0.0942678
0.0943381
0.111989
0.0997494
0.0939739
0.0939796
0.0939913
0.0940101
0.0940263
0.0940649
0.0941014
0.0941684
0.0942279
0.0943196
0.0943486
0.0945133
0.104812
0.0940012
0.0940118
0.0940334
0.0940606
0.0940801
0.0941306
0.0941561
0.094229
0.0942891
0.0943725
0.0944016
0.111896
0.10126
0.0940967
0.094107
0.0941299
0.0941578
0.0941596
0.0942056
0.0942375
0.0943225
0.0943775
0.0944108
0.0946826
0.107584
0.094137
0.0941539
0.0942048
0.0942548
0.0942633
0.0943236
0.0942716
0.0943551
0.0944214
0.0948188
0.115403
0.0943349
0.0943523
0.094384
0.0944114
0.094313
0.0943235
0.0943422
0.0945197
0.111923
0.107641
0.0942537
0.0942843
0.094406
0.0944529
0.0944772
0.0946255
0.111996
0.10482
0.101271
0.0946184
0.0946472
0.094672
0.0948119
0.110513
0.103757
0.0997538
0.105069
0.105403
0.103643
0.106429
0.10076
0.0926969
0.0926932
0.0926879
0.0926875
0.0926913
0.092704
0.0927321
0.0927974
0.0928474
0.0930001
0.0930453
0.0933564
0.0932595
0.0938076
0.104057
0.092693
0.09269
0.0926872
0.0926881
0.0926941
0.0927081
0.0927396
0.0928043
0.0928614
0.0930077
0.0930724
0.0933652
0.0933053
0.0938433
0.10436
0.0926878
0.0926873
0.092687
0.0926913
0.0927006
0.0927192
0.0927583
0.0928254
0.0929017
0.0930458
0.0931644
0.0934442
0.0935142
0.0940064
0.102691
0.0926873
0.0926881
0.0926914
0.0926991
0.0927131
0.0927364
0.092783
0.0928507
0.0929443
0.0930719
0.0932471
0.0934558
0.0936483
0.0941497
0.105512
0.0926911
0.0926941
0.0927006
0.0927129
0.0927273
0.0927623
0.0928129
0.0928802
0.0929782
0.0930802
0.0932559
0.0933394
0.0936368
0.109585
0.0999448
0.0927038
0.0927084
0.0927195
0.0927371
0.0927627
0.0928053
0.0928608
0.092937
0.0930469
0.0931498
0.0933618
0.093353
0.0938254
0.102811
0.0927318
0.0927401
0.0927588
0.0927836
0.0928136
0.0928612
0.0929155
0.0929977
0.0930932
0.0932118
0.0933093
0.0933898
0.111062
0.0989032
0.0927973
0.0928051
0.0928261
0.0928518
0.0928813
0.092938
0.0929983
0.0930988
0.0931996
0.0933515
0.0934412
0.0936055
0.103867
0.0928473
0.0928624
0.0929028
0.0929458
0.0929798
0.0930487
0.0930947
0.0932006
0.0933128
0.0934434
0.0935686
0.110615
0.100311
0.0930002
0.0930091
0.0930472
0.093074
0.0930825
0.0931524
0.0932145
0.0933536
0.0934434
0.0936457
0.0941216
0.10645
0.0930452
0.0930742
0.0931662
0.0932497
0.0932588
0.0933655
0.093313
0.0934436
0.0935551
0.0940047
0.113924
0.0933562
0.0933676
0.0934463
0.0934589
0.0933429
0.0933569
0.093395
0.0936143
0.110649
0.106461
0.0932591
0.0933082
0.0935169
0.0936516
0.0936404
0.09383
0.11107
0.103876
0.100324
0.0938071
0.0938472
0.0940094
0.0941535
0.109591
0.102816
0.0989087
0.104056
0.104368
0.102696
0.105516
0.0999491
0.0914317
0.0914309
0.0914303
0.0914382
0.0914512
0.0914823
0.0915179
0.0916028
0.0916651
0.0918641
0.0919181
0.0923565
0.092216
0.0930896
0.103005
0.0914307
0.0914295
0.0914321
0.091441
0.0914563
0.0914881
0.0915271
0.0916097
0.0916814
0.091867
0.0919512
0.0923517
0.0922879
0.0931232
0.10323
0.0914303
0.0914321
0.0914377
0.0914493
0.0914696
0.0915049
0.0915552
0.0916395
0.0917433
0.0919274
0.092105
0.0925087
0.0926709
0.0935822
0.101726
0.091438
0.091441
0.0914493
0.091464
0.0914894
0.0915277
0.0915862
0.0916683
0.0917965
0.0919484
0.0922257
0.0924889
0.0929578
0.0937678
0.104596
0.091451
0.0914564
0.0914697
0.0914895
0.0915201
0.0915635
0.0916292
0.0917096
0.0918459
0.0919688
0.0922371
0.0923513
0.0928371
0.108722
0.0992415
0.0914821
0.0914883
0.0915051
0.0915281
0.0915637
0.0916158
0.0916895
0.091784
0.0919348
0.0920639
0.0923907
0.0923693
0.0931589
0.101888
0.0915177
0.0915276
0.0915556
0.0915869
0.0916298
0.09169
0.0917648
0.0918667
0.0920029
0.0921562
0.0923561
0.0924457
0.110209
0.098247
0.0916027
0.0916105
0.0916403
0.0916695
0.0917107
0.0917851
0.0918674
0.0920052
0.0921356
0.0923719
0.092515
0.0927777
0.102969
0.0916651
0.0916826
0.0917445
0.0917982
0.0918478
0.0919368
0.0920046
0.0921364
0.0922864
0.0924378
0.0927856
0.109193
0.0994053
0.0918643
0.0918687
0.0919289
0.0919508
0.0919716
0.0920671
0.0921596
0.0923747
0.0924422
0.0930043
0.0938151
0.105027
0.091918
0.0919533
0.0921071
0.0922285
0.0922408
0.0923953
0.0923609
0.0925202
0.0927915
0.0938523
0.111744
0.0923562
0.0923551
0.0925112
0.0924926
0.0923557
0.0923741
0.0924519
0.0927852
0.109211
0.10505
0.0922153
0.0922919
0.0926745
0.0929618
0.0928416
0.0931641
0.110218
0.102979
0.0994186
0.0930883
0.0931299
0.0935869
0.0937725
0.108729
0.101894
0.0982535
0.103004
0.10324
0.101733
0.104601
0.099247
0.0901675
0.0901701
0.0901751
0.0901876
0.090205
0.0902432
0.0902838
0.0903804