/*--------------------------------*- C++ -*----------------------------------*\
| =========                 |                                                 |
| \\      /  F ield         | OpenFOAM: The Open Source CFD Toolbox           |
|  \\    /   O peration     | Version:  2.1.1                                 |
|   \\  /    A nd           | Web:      www.OpenFOAM.org                      |
|    \\/     M anipulation  |                                                 |
\*---------------------------------------------------------------------------*/
FoamFile
{
    version     2.0;
    format      ascii;
    class       surfaceScalarField;
    location    "0.002";
    object      phi;
}
// * * * * * * * * * * * * * * * * * * * * * * * * * * * * * * * * * * * * * //

dimensions      [0 3 -1 0 0 0 0];

internalField   nonuniform List<scalar> 
29352
(
-1.45457e-13
-1.45655e-13
2.50293e-10
1.19957e-13
-4.40877e-13
-1.45776e-13
2.50469e-10
2.4622e-13
-7.43045e-13
-1.4917e-13
2.50644e-10
3.71537e-13
-1.06729e-12
-1.53109e-13
2.50845e-10
5.20755e-13
-1.41314e-12
-1.59833e-13
2.51047e-10
6.61309e-13
-1.80425e-12
-1.66999e-13
2.51306e-10
8.57814e-13
-2.24227e-12
-1.76783e-13
2.51555e-10
1.02942e-12
-2.7915e-12
-1.89379e-13
2.51947e-10
1.34761e-12
-3.44023e-12
-2.03096e-13
2.52289e-10
1.58725e-12
-4.43803e-12
-2.21934e-13
2.5307e-10
2.37078e-12
-6.0449e-12
-2.34364e-13
2.53922e-10
3.33213e-12
-1.0897e-11
-2.50293e-13
2.58046e-10
8.31754e-12
-2.10201e-11
6.56632e-14
2.64354e-10
1.5911e-11
-3.46574e-11
1.24656e-12
2.73533e-10
3.75263e-11
-6.38384e-11
3.67586e-12
2.64649e-10
1.20012e-13
-1.45669e-13
-4.40856e-13
2.50469e-10
1.19772e-13
1.19442e-13
-4.46115e-13
-4.45907e-13
2.50652e-10
1.20226e-13
2.44879e-13
-7.5022e-13
-4.54947e-13
2.5084e-10
1.21356e-13
3.6787e-13
-1.0762e-12
-4.67928e-13
2.51055e-10
1.22656e-13
5.15792e-13
-1.42507e-12
-4.85887e-13
2.51272e-10
1.27461e-13
6.5488e-13
-1.82003e-12
-5.12498e-13
2.5155e-10
1.3406e-13
8.50412e-13
-2.26358e-12
-5.46801e-13
2.51826e-10
1.47537e-13
1.02414e-12
-2.82031e-12
-5.94051e-13
2.52242e-10
1.68627e-13
1.34392e-12
-3.48071e-12
-6.53723e-13
2.52622e-10
2.18734e-13
1.60073e-12
-4.49173e-12
-7.46185e-13
2.53418e-10
3.12606e-13
2.40833e-12
-6.10126e-12
-8.36856e-13
2.54221e-10
6.05557e-13
3.47347e-12
-1.0906e-11
-9.54364e-13
2.57876e-10
2.73446e-13
8.56871e-12
-2.11492e-11
-1.01274e-13
2.63446e-10
-1.71392e-12
1.62684e-11
-3.34305e-11
2.88628e-12
2.70494e-10
-7.05407e-12
3.42167e-11
-5.73458e-11
1.05842e-11
2.59354e-10
2.46125e-13
-1.48964e-13
-7.42981e-13
2.50644e-10
2.44626e-13
1.19887e-13
-4.54314e-13
-7.50399e-13
2.5084e-10
2.45347e-13
2.47136e-13
-7.66037e-13
-7.66257e-13
2.51039e-10
2.48261e-13
3.65263e-13
-1.09739e-12
-7.88103e-13
2.51272e-10
2.53357e-13
5.13432e-13
-1.45349e-12
-8.1989e-13
2.51506e-10
2.61862e-13
6.55754e-13
-1.85956e-12
-8.63056e-13
2.51805e-10
2.7954e-13
8.51567e-13
-2.31601e-12
-9.19964e-13
2.52105e-10
3.07893e-13
1.02951e-12
-2.88836e-12
-9.99955e-13
2.52551e-10
3.49903e-13
1.35118e-12
-3.5795e-12
-1.10199e-12
2.5298e-10
4.45773e-13
1.63019e-12
-4.626e-12
-1.28019e-12
2.5383e-10
6.09404e-13
2.44483e-12
-6.28093e-12
-1.50828e-12
2.54731e-10
1.00301e-12
3.6165e-12
-1.08389e-11
-2.10773e-12
2.58338e-10
9.49009e-13
8.28632e-12
-2.01907e-11
-2.02288e-12
2.63629e-10
-3.33117e-12
1.62516e-11
-3.71733e-11
1.92324e-12
2.75709e-10
-1.3448e-11
5.46505e-11
-8.20865e-11
1.92686e-12
3.04505e-10
3.71383e-13
-1.53033e-13
-1.06714e-12
2.50845e-10
3.67822e-13
1.20932e-13
-4.67988e-13
-1.07627e-12
2.51055e-10
3.66018e-13
2.48736e-13
-7.88542e-13
-1.09729e-12
2.51271e-10
3.70457e-13
3.67997e-13
-1.12962e-12
-1.12948e-12
2.5152e-10
3.7363e-13
5.1263e-13
-1.49646e-12
-1.17962e-12
2.51789e-10
3.80265e-13
6.54879e-13
-1.91518e-12
-1.24451e-12
2.52124e-10
3.90609e-13
8.49393e-13
-2.38909e-12
-1.33413e-12
2.52483e-10
4.06738e-13
1.02735e-12
-2.98281e-12
-1.46265e-12
2.53011e-10
4.23193e-13
1.33462e-12
-3.73052e-12
-1.65856e-12
2.53631e-10
4.77153e-13
1.6381e-12
-4.88085e-12
-2.02655e-12
2.54792e-10
5.74581e-13
2.42738e-12
-6.96469e-12
-2.74055e-12
2.56696e-10
1.21023e-12
3.99255e-12
-1.17859e-11
-4.70312e-12
2.61321e-10
2.83586e-12
8.18123e-12
-1.91722e-11
-8.41855e-12
2.67525e-10
6.54941e-12
1.54808e-11
-2.73451e-11
-1.85105e-11
2.76693e-10
3.64461e-13
7.83107e-11
-2.13909e-11
1.77914e-10
5.20481e-13
-1.59942e-13
-1.41291e-12
2.51048e-10
5.15426e-13
1.22084e-13
-4.85913e-13
-1.42504e-12
2.51273e-10
5.12783e-13
2.5316e-13
-8.1937e-13
-1.45358e-12
2.51507e-10
5.10977e-13
3.72556e-13
-1.17864e-12
-1.49665e-12
2.51791e-10
5.22522e-13
5.26777e-13
-1.56404e-12
-1.56446e-12
2.52079e-10
5.36547e-13
6.63695e-13
-2.00836e-12
-1.65167e-12
2.52459e-10
5.59011e-13
8.6182e-13
-2.51981e-12
-1.77882e-12
2.52877e-10
5.91686e-13
1.05002e-12
-3.18042e-12
-1.96128e-12
2.535e-10
6.52335e-13
1.39351e-12
-4.0801e-12
-2.26037e-12
2.54295e-10
7.85929e-13
1.80358e-12
-5.63842e-12
-2.81989e-12
2.55868e-10
1.19432e-12
2.92748e-12
-9.00446e-12
-4.11131e-12
2.58998e-10
2.82614e-12
5.75117e-12
-1.57291e-11
-7.17724e-12
2.64577e-10
8.29736e-12
1.1989e-11
-2.55332e-11
-1.34046e-11
2.70676e-10
2.51507e-11
2.71981e-11
-3.90347e-11
-3.76388e-11
2.76287e-10
1.48601e-11
7.86776e-11
6.45891e-11
6.60848e-13
-1.6742e-13
-1.80393e-12
2.51307e-10
6.54286e-13
1.26468e-13
-5.12548e-13
-1.82016e-12
2.51552e-10
6.55193e-13
2.61335e-13
-8.62847e-13
-1.86013e-12
2.51806e-10
6.55349e-13
3.79812e-13
-1.24348e-12
-1.91607e-12
2.52124e-10
6.59637e-13
5.36541e-13
-1.65238e-12
-2.00971e-12
2.52466e-10
6.68204e-13
6.69476e-13
-2.12736e-12
-2.12801e-12
2.52917e-10
6.87944e-13
8.85341e-13
-2.68641e-12
-2.30915e-12
2.53422e-10
7.12061e-13
1.08705e-12
-3.44849e-12
-2.56931e-12
2.54219e-10
7.65043e-13
1.49346e-12
-4.59211e-12
-3.00588e-12
2.55339e-10
9.24321e-13
2.12792e-12
-6.94741e-12
-3.8475e-12
2.57743e-10
1.62505e-12
4.00243e-12
-1.23689e-11
-5.93161e-12
2.62742e-10
4.50561e-12
8.5317e-12
-2.08321e-11
-1.02161e-11
2.68822e-10
1.23918e-11
1.60287e-11
-2.88869e-11
-1.89864e-11
2.73027e-10
3.44011e-11
3.28805e-11
-7.49466e-11
-3.07338e-11
2.77664e-10
8.57143e-13
-1.77658e-13
-2.24191e-12
2.51557e-10
8.49545e-13
1.32727e-13
-5.47174e-13
-2.26371e-12
2.51828e-10
8.50834e-13
2.78924e-13
-9.20109e-13
-2.31672e-12
2.52107e-10
8.48736e-13
3.89776e-13
-1.33372e-12
-2.39024e-12
2.52485e-10
8.62008e-13
5.58783e-13
-1.77882e-12
-2.52136e-12
2.52879e-10
8.8488e-13
6.88554e-13
-2.30849e-12
-2.68783e-12
2.53423e-10
9.43518e-13
9.43872e-13
-2.95004e-12
-2.95134e-12
2.54014e-10
1.02975e-12
1.18864e-12
-3.87216e-12
-3.29597e-12
2.5495e-10
1.23206e-12
1.77566e-12
-5.43127e-12
-3.84703e-12
2.56272e-10
1.74003e-12
2.87244e-12
-9.15827e-12
-5.02688e-12
2.59605e-10
3.61059e-12
6.38064e-12
-1.71346e-11
-7.76711e-12
2.65258e-10
9.6563e-12
1.31598e-11
-2.95658e-11
-1.28235e-11
2.7152e-10
2.36928e-11
2.82894e-11
-2.71831e-11
-2.03175e-11
2.49421e-10
4.06024e-11
5.73228e-11
-7.93195e-12
1.70872e-10
1.02845e-12
-1.90875e-13
-2.79108e-12
2.51949e-10
1.02276e-12
1.45248e-13
-5.94833e-13
-2.82047e-12
2.52247e-10
1.02825e-12
3.07196e-13
-1.00059e-12
-2.88935e-12
2.52554e-10
1.02625e-12
4.0585e-13
-1.46268e-12
-2.98438e-12
2.53015e-10
1.04914e-12
5.91388e-13
-1.96121e-12
-3.1824e-12
2.53503e-10
1.08611e-12
7.12093e-13
-2.56831e-12
-3.45084e-12
2.54221e-10
1.18763e-12
1.02951e-12
-3.2942e-12
-3.87458e-12
2.54952e-10
1.32095e-12
1.32161e-12
-4.3694e-12
-4.37285e-12
2.56103e-10
1.57955e-12
2.14574e-12
-6.52661e-12
-5.29588e-12
2.58143e-10
2.33774e-12
3.97302e-12
-1.19536e-11
-7.04105e-12
2.63027e-10
5.28091e-12
9.37261e-12
-2.20779e-11
-1.10072e-11
2.69928e-10
1.20837e-11
1.80333e-11
-3.10625e-11
-1.97209e-11
2.74463e-10
2.75186e-11
3.33271e-11
-5.70936e-11
-2.43332e-11
2.63959e-10
1.34622e-12
-2.05573e-13
-3.43966e-12
2.52293e-10
1.34206e-12
1.65011e-13
-6.55219e-13
-3.48115e-12
2.52629e-10
1.34953e-12
3.49211e-13
-1.1034e-12
-3.5809e-12
2.52985e-10
1.33325e-12
4.22263e-13
-1.65925e-12
-3.73261e-12
2.53636e-10
1.39269e-12
6.52123e-13
-2.26077e-12
-4.08291e-12
2.54299e-10
1.49284e-12
7.64847e-13
-3.00466e-12
-4.59506e-12
2.55342e-10
1.77529e-12
1.2312e-12
-3.84445e-12
-5.43436e-12
2.56274e-10
2.14666e-12
1.57978e-12
-5.28994e-12
-6.53091e-12
2.5814e-10
3.05603e-12
3.05288e-12
-8.21872e-12
-8.22809e-12
2.60707e-10
4.92079e-12
6.051e-12
-1.5411e-11
-1.07399e-11
2.66782e-10
1.05072e-11
1.32754e-11
-2.71507e-11
-1.38873e-11
2.71449e-10
2.86409e-11
2.75508e-11
-3.70643e-11
-4.04356e-11
2.74215e-10
2.32421e-11
7.4776e-11
1.06548e-10
1.58522e-12
-2.25674e-13
-4.43749e-12
2.53078e-10
1.59797e-12
2.14176e-13
-7.48591e-13
-4.49252e-12
2.53429e-10
1.62771e-12
4.44971e-13
-1.28266e-12
-4.62795e-12
2.53838e-10
1.63593e-12
4.76112e-13
-2.02798e-12
-4.88408e-12
2.548e-10
1.80178e-12
7.85901e-13
-2.82047e-12
-5.64227e-12
2.55874e-10
2.12626e-12
9.2378e-13
-3.84538e-12
-6.95141e-12
2.57747e-10
2.87032e-12
1.73763e-12
-5.02135e-12
-9.16231e-12
2.59608e-10
3.97057e-12
2.33375e-12
-7.02568e-12
-1.19591e-11
2.63024e-10
6.05209e-12
4.90594e-12
-1.0711e-11
-1.54239e-11
2.66778e-10
9.26084e-12
9.23903e-12
-1.79879e-11
-1.80491e-11
2.71659e-10
1.18734e-11
1.61001e-11
-3.01227e-11
-2.39525e-11
2.80964e-10
3.37746e-11
4.18159e-11
-2.83084e-11
-2.34209e-11
2.40842e-10
2.36796e-12
-2.4014e-13
-6.04509e-12
2.53935e-10
2.40582e-12
3.06329e-13
-8.40763e-13
-6.10324e-12
2.54235e-10
2.44253e-12
6.08788e-13
-1.51233e-12
-6.28485e-12
2.54742e-10
2.42594e-12
5.74216e-13
-2.74297e-12
-6.96936e-12
2.56705e-10
2.92696e-12
1.19517e-12
-4.11201e-12
-9.00919e-12
2.59003e-10
4.00206e-12
1.62459e-12
-5.92817e-12
-1.23729e-11
2.62743e-10
6.37906e-12
3.60592e-12
-7.75803e-12
-1.71381e-11
2.65259e-10
9.37169e-12
5.27117e-12
-1.09815e-11
-2.20807e-11
2.69915e-10
1.32848e-11
1.0474e-11
-1.38612e-11
-2.71562e-11
2.71445e-10
1.61624e-11
1.18627e-11
-2.38282e-11
-3.01106e-11
2.80749e-10
4.43918e-11
4.42584e-11
-4.72332e-11
-4.73962e-11
2.78485e-10
3.33019e-12
-2.59476e-13
-1.08972e-11
2.5806e-10
3.46957e-12
5.97055e-13
-9.61266e-13
-1.09092e-11
2.57898e-10
3.61391e-12
1.00443e-12
-2.11461e-12
-1.08439e-11
2.58351e-10
3.99146e-12
1.21035e-12
-4.70515e-12
-1.17913e-11
2.6133e-10
5.75101e-12
2.82886e-12
-7.17714e-12
-1.57336e-11
2.64579e-10
8.53044e-12
4.50506e-12
-1.02115e-11
-2.08359e-11
2.68823e-10
1.31567e-11
9.64912e-12
-1.28127e-11
-2.95687e-11
2.71524e-10
1.8029e-11
1.20704e-11
-1.97004e-11
-3.1065e-11
2.74462e-10
2.75495e-11
2.86164e-11
-4.041e-11
-3.70677e-11
2.74207e-10
4.17925e-11
3.37558e-11
-2.33648e-11
-2.8308e-11
2.40743e-10
8.31658e-12
6.06117e-14
-2.10309e-11
2.64365e-10
8.56557e-12
2.77125e-13
-1.12998e-13
-2.11518e-11
2.63458e-10
8.28335e-12
9.55757e-13
-2.02922e-12
-2.01963e-11
2.63637e-10
8.17836e-12
2.83943e-12
-8.42023e-12
-1.91739e-11
2.67527e-10
1.19897e-11
8.30119e-12
-1.34043e-11
-2.55359e-11
2.70673e-10
1.60317e-11
1.23902e-11
-1.89822e-11
-2.88896e-11
2.73024e-10
2.82926e-11
2.36874e-11
-2.03091e-11
-2.71894e-11
2.49423e-10
3.33322e-11
2.75091e-11
-2.43231e-11
-5.71052e-11
2.63968e-10
7.47832e-11
2.32406e-11
1.0655e-10
1.59138e-11
1.22406e-12
-3.46433e-11
2.73519e-10
1.62637e-11
-1.69913e-12
2.85778e-12
-3.34036e-11
2.70477e-10
1.62676e-11
-3.29498e-12
1.83804e-12
-3.71562e-11
2.75722e-10
1.54745e-11
6.57101e-12
-1.85147e-11
-2.73524e-11
2.76688e-10
2.71965e-11
2.51568e-11
-3.76386e-11
-3.90336e-11
2.7628e-10
3.2881e-11
3.4398e-11
-3.07266e-11
-7.49461e-11
2.77658e-10
5.7332e-11
4.05886e-11
-7.92345e-12
1.70875e-10
3.74509e-11
3.47321e-12
-6.36624e-11
2.64785e-10
3.41806e-11
-6.90144e-12
1.05136e-11
-5.73248e-11
2.59261e-10
5.46373e-11
-1.34187e-11
1.91599e-12
-8.20672e-11
3.04469e-10
7.83102e-11
3.69655e-13
-2.1394e-11
1.7791e-10
7.86703e-11
1.48636e-11
6.45888e-11
-6.70684e-12
-6.70913e-12
1.01453e-09
-2.50826e-10
-2.50272e-10
-2.50272e-10
-2.49725e-10
-1.36496e-11
-6.78293e-12
1.01486e-09
-2.51405e-10
-2.49715e-10
-2.50835e-10
-2.4917e-10
-2.10679e-11
-6.96836e-12
1.01551e-09
-2.51984e-10
-2.49138e-10
-2.51393e-10
-2.48595e-10
-2.93022e-11
-7.22219e-12
1.01671e-09
-2.52644e-10
-2.4856e-10
-2.52027e-10
-2.48015e-10
-3.88176e-11
-7.65082e-12
1.01837e-09
-2.5329e-10
-2.47909e-10
-2.5264e-10
-2.4736e-10
-5.0203e-11
-8.24688e-12
1.02118e-09
-2.54137e-10
-2.47254e-10
-2.53445e-10
-2.46706e-10
-6.47045e-11
-9.08283e-12
1.02494e-09
-2.54899e-10
-2.46414e-10
-2.54163e-10
-2.45871e-10
-8.34248e-11
-1.04722e-11
1.03147e-09
-2.56187e-10
-2.45593e-10
-2.55397e-10
-2.45083e-10
-1.10205e-10
-1.20095e-11
1.04039e-09
-2.57089e-10
-2.44316e-10
-2.56286e-10
-2.43881e-10
-1.46223e-10
-1.50719e-11
1.05566e-09
-2.59542e-10
-2.43269e-10
-2.58712e-10
-2.43014e-10
-2.07375e-10
-1.62847e-11
1.08036e-09
-2.60057e-10
-2.41599e-10
-2.59466e-10
-2.41746e-10
-3.13602e-10
-1.76465e-11
1.15219e-09
-2.72727e-10
-2.40757e-10
-2.72885e-10
-2.41836e-10
-5.22392e-10
-2.75273e-12
1.27823e-09
-2.98114e-10
-2.3298e-10
-2.99768e-10
-2.35634e-10
2.34616e-11
8.97089e-12
1.019e-09
-3.3542e-10
-2.24609e-10
-3.37323e-10
-2.25604e-10
2.35093e-11
-2.36365e-10
-2.37675e-10
-2.22972e-10
-2.34204e-11
4.65454e-12
2.65338e-10
-6.78565e-12
-1.36522e-11
1.01486e-09
-2.51405e-10
-2.50836e-10
-2.49714e-10
-2.4917e-10
-1.3812e-11
-1.38068e-11
1.01521e-09
-2.52007e-10
-2.50272e-10
-2.50271e-10
-2.48617e-10
-2.13065e-11
-1.42062e-11
1.01589e-09
-2.52614e-10
-2.49695e-10
-2.50813e-10
-2.48035e-10
-2.96383e-11
-1.47242e-11
1.01714e-09
-2.53312e-10
-2.49119e-10
-2.51422e-10
-2.47444e-10
-3.92659e-11
-1.56312e-11
1.01887e-09
-2.54007e-10
-2.48481e-10
-2.52001e-10
-2.46776e-10
-5.08305e-11
-1.684e-11
1.02179e-09
-2.54917e-10
-2.47844e-10
-2.52763e-10
-2.46111e-10
-6.55605e-11
-1.86292e-11
1.02577e-09
-2.55759e-10
-2.47037e-10
-2.53431e-10
-2.45276e-10
-8.46753e-11
-2.1498e-11
1.03262e-09
-2.57136e-10
-2.46258e-10
-2.54571e-10
-2.44513e-10
-1.11926e-10
-2.49459e-11
1.04226e-09
-2.58173e-10
-2.45078e-10
-2.55414e-10
-2.43402e-10
-1.48293e-10
-3.17816e-11
1.0583e-09
-2.60732e-10
-2.4413e-10
-2.57599e-10
-2.42766e-10
-2.09654e-10
-3.5303e-11
1.08484e-09
-2.61164e-10
-2.4284e-10
-2.58171e-10
-2.4229e-10
-3.14049e-10
-4.4155e-11
1.16157e-09
-2.72286e-10
-2.42812e-10
-2.69881e-10
-2.45683e-10
-5.21862e-10
-1.88439e-11
1.29979e-09
-2.95266e-10
-2.35417e-10
-2.99107e-10
-2.46098e-10
3.70175e-11
-1.51738e-11
1.024e-09
-3.24461e-10
-2.17708e-10
-3.38851e-10
-2.47706e-10
3.13551e-11
-2.2937e-10
-2.31997e-10
-2.14968e-10
-8.78284e-12
-1.81222e-11
2.67189e-11
2.52172e-10
-6.96939e-12
-2.10722e-11
1.01551e-09
-2.51984e-10
-2.51393e-10
-2.49138e-10
-2.48594e-10
-1.42097e-11
-2.13018e-11
1.01589e-09
-2.52614e-10
-2.50811e-10
-2.49694e-10
-2.48035e-10
-2.19451e-11
-2.19434e-11
1.01662e-09
-2.53255e-10
-2.50228e-10
-2.50226e-10
-2.4744e-10
-3.06379e-11
-2.2715e-11
1.01796e-09
-2.53996e-10
-2.49643e-10
-2.50815e-10
-2.4683e-10
-4.07501e-11
-2.41509e-11
1.01985e-09
-2.54738e-10
-2.48991e-10
-2.51361e-10
-2.46126e-10
-5.31241e-11
-2.59078e-11
1.023e-09
-2.55704e-10
-2.48351e-10
-2.52072e-10
-2.45429e-10
-6.90545e-11
-2.87205e-11
1.0274e-09
-2.56611e-10
-2.4754e-10
-2.52674e-10
-2.44549e-10
-9.0248e-11
-3.30122e-11
1.03493e-09
-2.58041e-10
-2.46753e-10
-2.53684e-10
-2.43736e-10
-1.20216e-10
-3.89764e-11
1.04573e-09
-2.59149e-10
-2.45599e-10
-2.5442e-10
-2.42572e-10
-1.60076e-10
-5.04023e-11
1.06299e-09
-2.61696e-10
-2.4468e-10
-2.56162e-10
-2.41968e-10
-2.23767e-10
-6.13412e-11
1.09485e-09
-2.61969e-10
-2.44116e-10
-2.56758e-10
-2.42278e-10
-3.35387e-10
-9.29905e-11
1.19536e-09
-2.72086e-10
-2.48511e-10
-2.65152e-10
-2.49157e-10
-5.31545e-10
-1.10921e-10
1.3862e-09
-2.94163e-10
-2.50923e-10
-2.93861e-10
-2.59015e-10
4.38175e-11
-1.92396e-10
1.19325e-09
-3.35888e-10
-2.64324e-10
-3.4427e-10
-2.96458e-10
-1.79971e-11
-1.80485e-10
-1.51968e-10
-2.32377e-10
-3.95178e-11
-6.26006e-12
6.33537e-11
2.58618e-10
-7.2261e-12
-2.9308e-11
1.0167e-09
-2.52645e-10
-2.52026e-10
-2.4856e-10
-2.48013e-10
-1.47312e-11
-2.96302e-11
1.01714e-09
-2.53313e-10
-2.51423e-10
-2.49119e-10
-2.47443e-10
-2.27204e-11
-3.0632e-11
1.01796e-09
-2.53998e-10
-2.50821e-10
-2.49641e-10
-2.4683e-10
-3.17043e-11
-3.16924e-11
1.01945e-09
-2.54807e-10
-2.50238e-10
-2.50235e-10
-2.46201e-10
-4.21135e-11
-3.38943e-11
1.02158e-09
-2.55625e-10
-2.49588e-10
-2.50757e-10
-2.45464e-10
-5.49496e-11
-3.62528e-11
1.02503e-09
-2.56697e-10
-2.48975e-10
-2.51436e-10
-2.44738e-10
-7.13838e-11
-4.0486e-11
1.03005e-09
-2.57779e-10
-2.4823e-10
-2.52014e-10
-2.43829e-10
-9.35448e-11
-4.62615e-11
1.0383e-09
-2.59406e-10
-2.47564e-10
-2.52951e-10
-2.42972e-10
-1.23603e-10
-5.58347e-11
1.05017e-09
-2.61051e-10
-2.46691e-10
-2.53717e-10
-2.41798e-10
-1.64414e-10
-7.18772e-11
1.069e-09
-2.63998e-10
-2.46291e-10
-2.55087e-10
-2.41345e-10
-2.30673e-10
-9.63764e-11
1.11633e-09
-2.66966e-10
-2.48107e-10
-2.57409e-10
-2.42558e-10
-3.67269e-10
-1.48885e-10
1.25094e-09
-2.82995e-10
-2.59875e-10
-2.68089e-10
-2.47495e-10
-4.94317e-10
-2.12772e-10
1.37676e-09
-3.15527e-10
-2.78985e-10
-2.95803e-10
-2.57543e-10
1.03732e-11
-1.56233e-11
9.62158e-10
-3.46111e-10
-3.01849e-10
-2.96557e-10
-2.32326e-10
5.19798e-11
-1.24699e-10
-1.20456e-10
7.65745e-11
-1.89147e-10
-1.61028e-10
-1.34432e-10
-2.86133e-12
-2.24071e-11
1.70073e-10
-7.65495e-12
-3.88256e-11
1.01836e-09
-2.53291e-10
-2.52638e-10
-2.4791e-10
-2.47357e-10
-1.56371e-11
-3.92544e-11
1.01887e-09
-2.5401e-10
-2.52003e-10
-2.48481e-10
-2.46773e-10
-2.4155e-11
-4.07446e-11
1.01985e-09
-2.54739e-10
-2.51363e-10
-2.48989e-10
-2.46123e-10
-3.39054e-11
-4.21031e-11
1.02158e-09
-2.55624e-10
-2.50755e-10
-2.49583e-10
-2.45461e-10
-4.52875e-11
-4.52766e-11
1.0241e-09
-2.56525e-10
-2.50074e-10
-2.50073e-10
-2.44654e-10
-5.98064e-11
-4.80914e-11
1.02809e-09
-2.57709e-10
-2.49442e-10
-2.50715e-10
-2.43863e-10
-7.90135e-11
-5.38812e-11
1.03417e-09
-2.58902e-10
-2.48628e-10
-2.51208e-10
-2.42827e-10
-1.06185e-10
-6.04966e-11
1.04384e-09
-2.6073e-10
-2.47867e-10
-2.52063e-10
-2.41772e-10
-1.44398e-10
-7.29972e-11
1.05789e-09
-2.62809e-10
-2.46795e-10
-2.5262e-10
-2.40294e-10
-2.03654e-10
-9.20487e-11
1.08608e-09
-2.66051e-10
-2.46674e-10
-2.54116e-10
-2.3981e-10
-3.19662e-10
-1.29326e-10
1.17171e-09
-2.73716e-10
-2.49945e-10
-2.58907e-10
-2.40185e-10
-5.00679e-10
-2.05538e-10
1.31751e-09
-3.00515e-10
-2.60857e-10
-2.79299e-10
-2.39171e-10
-5.18824e-11
-2.91205e-10
1.11546e-09
-3.3055e-10
-2.6283e-10
-2.99777e-10
-2.18462e-10
1.83206e-11
-2.06676e-10
-1.85847e-10
-2.61059e-10
-5.64024e-11
-7.97665e-11
3.29722e-10
-3.53165e-11
1.13813e-11
-1.24125e-11
3.63476e-11
-8.25188e-12
-5.02147e-11
1.02117e-09
-2.5414e-10
-2.53442e-10
-2.47256e-10
-2.467e-10
-1.68468e-11
-5.08138e-11
1.02179e-09
-2.54921e-10
-2.52765e-10
-2.47844e-10
-2.46107e-10
-2.59127e-11
-5.31177e-11
1.02299e-09
-2.55708e-10
-2.52075e-10
-2.48348e-10
-2.45424e-10
-3.62576e-11
-5.49346e-11
1.02503e-09
-2.56701e-10
-2.51442e-10
-2.4897e-10
-2.44734e-10
-4.80966e-11
-5.97981e-11
1.02809e-09
-2.57706e-10
-2.50721e-10
-2.49432e-10
-2.43861e-10
-6.32604e-11
-6.32594e-11
1.03268e-09
-2.59091e-10
-2.5011e-10
-2.501e-10
-2.43051e-10
-8.30511e-11
-7.15522e-11
1.03985e-09
-2.60558e-10
-2.4931e-10
-2.50576e-10
-2.41941e-10
-1.10997e-10
-7.8598e-11
1.04997e-09
-2.62976e-10
-2.48587e-10
-2.51479e-10
-2.40877e-10
-1.50394e-10
-9.43501e-11
1.06605e-09
-2.65673e-10
-2.47646e-10
-2.5226e-10
-2.39723e-10
-2.21177e-10
-1.15702e-10
1.10939e-09
-2.70653e-10
-2.48486e-10
-2.55858e-10
-2.39958e-10
-3.769e-10
-1.59954e-10
1.23933e-09
-2.88551e-10
-2.54516e-10
-2.70243e-10
-2.39668e-10
-5.48674e-10
-2.36657e-10
1.33863e-09
-3.25766e-10
-2.64977e-10
-3.04139e-10
-2.40859e-10
6.60231e-12
-1.71516e-11
9.16963e-10
-3.46556e-10
-2.69991e-10
-2.95389e-10
-2.11618e-10
7.76844e-11
-2.16634e-10
-1.83994e-10
8.88238e-11
-1.96013e-10
-1.92607e-10
-2.36017e-10
3.58878e-11
-3.3679e-11
-1.80393e-11
2.5845e-10
-9.09246e-12
-6.47204e-11
1.02494e-09
-2.54903e-10
-2.54159e-10
-2.46416e-10
-2.45863e-10
-1.86412e-11
-6.55349e-11
1.02577e-09
-2.55766e-10
-2.53432e-10
-2.47038e-10
-2.4527e-10
-2.87298e-11
-6.9045e-11
1.02739e-09
-2.56617e-10
-2.52676e-10
-2.47536e-10
-2.44541e-10
-4.04941e-11
-7.13625e-11
1.03004e-09
-2.57784e-10
-2.5202e-10
-2.48224e-10
-2.43823e-10
-5.38849e-11
-7.90019e-11
1.03416e-09
-2.58906e-10
-2.51216e-10
-2.48618e-10
-2.42822e-10
-7.15517e-11
-8.30509e-11
1.03984e-09
-2.60559e-10
-2.50586e-10
-2.49296e-10
-2.41937e-10
-9.49728e-11
-9.49732e-11
1.049e-09
-2.62322e-10
-2.49613e-10
-2.49599e-10
-2.40623e-10
-1.30164e-10
-1.00367e-10
1.0609e-09
-2.6511e-10
-2.48732e-10
-2.50438e-10
-2.3966e-10
-1.85924e-10
-1.20308e-10
1.08756e-09
-2.67465e-10
-2.47824e-10
-2.51557e-10
-2.38999e-10
-3.05913e-10
-1.4002e-10
1.16805e-09
-2.76045e-10
-2.4957e-10
-2.58249e-10
-2.39885e-10
-4.93344e-10
-2.04486e-10
1.31095e-09
-3.02863e-10
-2.53095e-10
-2.85851e-10
-2.37183e-10
-4.56291e-11
-2.67421e-10
1.10037e-09
-3.35957e-10
-2.41033e-10
-3.12817e-10
-2.16345e-10
2.1801e-11
-2.23489e-10
-2.09483e-10
-2.31109e-10
-9.04147e-11
-6.54447e-11
3.24186e-10
-1.19995e-10
-1.37364e-11
1.15729e-11
2.27089e-12
1.19887e-10
-1.04866e-11
-8.34475e-11
1.03146e-09
-2.56195e-10
-2.5539e-10
-2.45596e-10
-2.4507e-10
-2.15141e-11
-8.46359e-11
1.03261e-09
-2.57147e-10
-2.54573e-10
-2.4626e-10
-2.44504e-10
-3.30194e-11
-9.02355e-11
1.03491e-09
-2.5805e-10
-2.53686e-10
-2.46747e-10
-2.43724e-10
-4.62588e-11
-9.35159e-11
1.03829e-09
-2.59416e-10
-2.52959e-10
-2.47556e-10
-2.42963e-10
-6.04743e-11
-1.06174e-10
1.04382e-09
-2.60739e-10
-2.52074e-10
-2.47855e-10
-2.41763e-10
-7.85528e-11
-1.11e-10
1.04995e-09
-2.62984e-10
-2.51493e-10
-2.48571e-10
-2.40871e-10
-1.00294e-10
-1.30168e-10
1.06088e-09
-2.65118e-10
-2.50457e-10
-2.48717e-10
-2.39658e-10
-1.33665e-10
-1.33745e-10
1.07388e-09
-2.67723e-10
-2.49975e-10
-2.49955e-10
-2.39481e-10
-1.93795e-10
-1.62362e-10
1.1172e-09
-2.71816e-10
-2.50357e-10
-2.52972e-10
-2.39867e-10
-3.48402e-10
-1.6462e-10
1.23103e-09
-2.88478e-10
-2.54982e-10
-2.6698e-10
-2.41385e-10
-5.39311e-10
-2.13302e-10
1.34029e-09
-3.2609e-10
-2.60099e-10
-3.07972e-10
-2.4641e-10
7.73102e-12
-1.49634e-11
9.63859e-10
-3.51699e-10
-2.50364e-10
-3.24446e-10
-2.33925e-10
7.58917e-11
-2.30509e-10
-1.95363e-10
9.01776e-11
-1.80526e-10
-1.62597e-10
-2.26815e-10
2.48091e-11
-4.28345e-11
-1.20377e-11
2.64608e-10
-1.20425e-11
-1.10232e-10
1.04037e-09
-2.57102e-10
-2.56275e-10
-2.44321e-10
-2.43863e-10
-2.49803e-11
-1.11863e-10
1.04224e-09
-2.58188e-10
-2.55414e-10
-2.4508e-10
-2.4339e-10
-3.89997e-11
-1.20193e-10
1.0457e-09
-2.59163e-10
-2.5442e-10
-2.45591e-10
-2.42554e-10
-5.58454e-11
-1.23558e-10
1.05014e-09
-2.61065e-10
-2.53725e-10
-2.46679e-10
-2.41784e-10
-7.29809e-11
-1.44379e-10
1.05786e-09
-2.62826e-10
-2.52629e-10
-2.4678e-10
-2.40279e-10
-9.43057e-11
-1.50392e-10
1.066e-09
-2.65682e-10
-2.52273e-10
-2.47623e-10
-2.39709e-10
-1.20212e-10
-1.85928e-10
1.0875e-09
-2.67473e-10
-2.51573e-10
-2.47802e-10
-2.38987e-10
-1.62239e-10
-1.93842e-10
1.11708e-09
-2.71804e-10
-2.5298e-10
-2.50324e-10
-2.39848e-10
-2.47112e-10
-2.46895e-10
1.19901e-09
-2.79793e-10
-2.5456e-10
-2.54559e-10
-2.40697e-10
-4.157e-10
-2.09258e-10
1.28937e-09
-3.0394e-10
-2.57294e-10
-2.75715e-10
-2.39193e-10
-3.39078e-11
-2.08019e-10
1.07136e-09
-3.27976e-10
-2.40868e-10
-3.07346e-10
-2.23604e-10
3.20658e-11
-2.06473e-10
-1.84229e-10
-2.59836e-10
-5.76415e-11
-7.50672e-11
3.43673e-10
-6.37138e-11
-5.1051e-12
-8.81447e-13
6.97004e-11
-1.51308e-11
-1.46259e-10
1.05564e-09
-2.59562e-10
-2.58691e-10
-2.43274e-10
-2.42989e-10
-3.18377e-11
-1.48188e-10
1.05827e-09
-2.60759e-10
-2.576e-10
-2.4413e-10
-2.42751e-10
-5.04303e-11
-1.60042e-10
1.06293e-09
-2.61717e-10
-2.5616e-10
-2.44665e-10
-2.41943e-10
-7.18726e-11
-1.64347e-10
1.06895e-09
-2.64022e-10
-2.55097e-10
-2.46276e-10
-2.41327e-10
-9.19926e-11
-2.03629e-10
1.08601e-09
-2.66072e-10
-2.54126e-10
-2.46655e-10
-2.39791e-10
-1.1558e-10
-2.21176e-10
1.10932e-09
-2.70668e-10
-2.55875e-10
-2.48463e-10
-2.39941e-10
-1.39729e-10
-3.05963e-10
1.16793e-09
-2.76061e-10
-2.58272e-10
-2.49548e-10
-2.39868e-10
-1.63982e-10
-3.48585e-10
1.23077e-09
-2.88468e-10
-2.67013e-10
-2.54936e-10
-2.41353e-10
-2.07998e-10
-4.15537e-10
1.2886e-09
-3.03898e-10
-2.75717e-10
-2.57262e-10
-2.3907e-10
-3.0534e-10
-3.05565e-10
1.33117e-09
-3.28268e-10
-2.72729e-10
-2.72522e-10
-2.64006e-10
6.74736e-11
1.21933e-11
9.3102e-10
-3.40444e-10
-2.48397e-10
-3.2237e-10
-2.29443e-10
5.88157e-11
-1.73502e-10
-1.294e-10
7.62493e-11
-1.1255e-10
-1.03006e-10
-1.91597e-10
2.63094e-11
2.93097e-12
-1.81278e-11
2.47957e-10
-1.6404e-11
-2.07402e-10
1.08033e-09
-2.60095e-10
-2.59434e-10
-2.41605e-10
-2.4171e-10
-3.54047e-11
-2.09471e-10
1.08476e-09
-2.6121e-10
-2.58171e-10
-2.42835e-10
-2.42262e-10
-6.14107e-11
-2.23691e-10
1.09475e-09
-2.62005e-10
-2.5676e-10
-2.44091e-10
-2.42238e-10
-9.64061e-11
-2.30565e-10
1.11624e-09
-2.66999e-10
-2.5742e-10
-2.48082e-10
-2.42532e-10
-1.29304e-10
-3.19615e-10
1.17162e-09
-2.73738e-10
-2.58916e-10
-2.4992e-10
-2.40163e-10
-1.599e-10
-3.76853e-10
1.23922e-09
-2.88558e-10
-2.70261e-10
-2.54489e-10
-2.39645e-10
-2.04311e-10
-4.9337e-10
1.31077e-09
-3.02868e-10
-2.85855e-10
-2.53072e-10
-2.3716e-10
-2.13224e-10
-5.39372e-10
1.34002e-09
-3.26043e-10
-3.07911e-10
-2.60022e-10
-2.46344e-10
-2.07491e-10
-3.39703e-11
1.0711e-09
-3.2795e-10
-3.07156e-10
-2.40797e-10
-2.23488e-10
3.19364e-11
-2.06539e-10
-1.84406e-10
1.25749e-11
6.74049e-11
9.31077e-10
-3.40296e-10
-3.22825e-10
-2.48649e-10
-2.29448e-10
7.65843e-11
-1.127e-10
-1.02897e-10
5.87232e-11
-1.73352e-10
-1.29255e-10
-2.31529e-10
-4.32357e-11
-4.35703e-11
3.43102e-10
-1.78479e-11
-3.13621e-10
1.15209e-09
-2.72782e-10
-2.72825e-10
-2.40755e-10
-2.41781e-10
-4.43428e-11
-3.13652e-10
1.16137e-09
-2.72358e-10
-2.69901e-10
-2.42801e-10
-2.45639e-10
-9.30902e-11
-3.35243e-10
1.19517e-09
-2.72139e-10
-2.65166e-10
-2.48464e-10
-2.49101e-10
-1.48881e-10
-3.67129e-10
1.25081e-09
-2.83026e-10
-2.6812e-10
-2.59838e-10
-2.47474e-10
-2.05445e-10
-5.00611e-10
1.3174e-09
-3.00525e-10
-2.79328e-10
-2.60829e-10
-2.39155e-10
-2.36443e-10
-5.48639e-10
1.33851e-09
-3.25769e-10
-3.04145e-10
-2.64959e-10
-2.40851e-10
-2.67045e-10
-4.56356e-11
1.1002e-09
-3.35956e-10
-3.12807e-10
-2.41028e-10
-2.1634e-10
2.17907e-11
-2.23501e-10
-2.09492e-10
-1.48938e-11
7.7381e-12
9.63607e-10
-3.51673e-10
-3.24406e-10
-2.50353e-10
-2.33894e-10
9.02505e-11
-1.80361e-10
-1.62473e-10
7.58965e-11
-2.30504e-10
-1.95352e-10
-2.59776e-10
-7.49497e-11
-5.76992e-11
3.43561e-10
-1.91387e-10
2.62469e-11
-1.80452e-11
2.94687e-12
2.47643e-10
-3.06742e-12
-5.2237e-10
1.27807e-09
-2.98175e-10
-2.99714e-10
-2.32981e-10
-2.35576e-10
-1.91476e-11
-5.21129e-10
1.29938e-09
-2.95306e-10
-2.9909e-10
-2.35393e-10
-2.46034e-10
-1.11124e-10
-5.31201e-10
1.38584e-09
-2.94192e-10
-2.93881e-10
-2.50872e-10
-2.5896e-10
-2.12841e-10
-4.94159e-10
1.37657e-09
-3.15528e-10
-2.95837e-10
-2.78928e-10
-2.57527e-10
-2.9119e-10
-5.18682e-11
1.11535e-09
-3.30537e-10
-2.99776e-10
-2.62797e-10
-2.18452e-10
1.83285e-11
-2.06669e-10
-1.85846e-10
-1.71446e-11
6.6123e-12
9.16906e-10
-3.46545e-10
-2.95394e-10
-2.69961e-10
-2.11612e-10
8.88353e-11
-1.96e-10
-1.92587e-10
7.76904e-11
-2.16635e-10
-1.83995e-10
-2.31106e-10
-6.54321e-11
-9.04255e-11
3.24182e-10
-2.2681e-10
2.47971e-11
-1.20146e-11
-4.28392e-11
2.64605e-10
-6.37076e-11
-8.651e-13
-5.12779e-12
6.97005e-11
8.2285e-12
2.34765e-11
1.0188e-09
-3.35434e-10
-3.37222e-10
-2.24639e-10
-2.2547e-10
2.35504e-11
-2.36462e-10
-2.37491e-10
-1.54294e-11
3.70861e-11
1.02344e-09
-3.24454e-10
-3.38808e-10
-2.1766e-10
-2.47613e-10
3.14442e-11
-2.29162e-10
-2.31748e-10
-1.92609e-10
4.38928e-11
1.19287e-09
-3.35824e-10
-3.44217e-10
-2.64231e-10
-2.96372e-10
-1.79345e-11
-1.80327e-10
-1.51883e-10
-1.56172e-11
1.0389e-11
9.62013e-10
-3.46092e-10
-2.9661e-10
-3.01769e-10
-2.32325e-10
7.65919e-11
-1.89151e-10
-1.61021e-10
5.19796e-11
-1.24692e-10
-1.20461e-10
-2.61041e-10
-7.97607e-11
-5.64009e-11
3.29718e-10
-2.36009e-10
3.58804e-11
-1.80317e-11
-3.36766e-11
2.58449e-10
-1.19993e-10
1.15755e-11
-1.37436e-11
2.27418e-12
1.19887e-10
-2.23075e-10
4.45882e-12
-2.34794e-11
2.65428e-10
-2.14823e-10
-8.60606e-12
2.65005e-11
-1.80187e-11
2.52035e-10
-2.32288e-10
-3.93943e-11
6.32808e-11
-6.21613e-12
2.58509e-10
-1.34425e-10
-2.85308e-12
-2.24063e-11
1.70073e-10
-3.53163e-11
-1.24164e-11
1.13836e-11
3.63491e-11
-8.6835e-12
-8.68621e-12
1.03191e-09
-1.75592e-11
-8.74434e-12
1.0325e-09
-2.68311e-11
-8.91541e-12
1.03371e-09
-3.6694e-11
-9.1381e-12
1.03572e-09
-4.7512e-11
-9.50518e-12
1.03869e-09
-5.93374e-11
-1.00084e-11
1.04302e-09
-7.30343e-11
-1.06402e-11
1.04929e-09
-8.7821e-11
-1.17945e-11
1.05806e-09
-1.06331e-10
-1.27389e-11
1.07164e-09
-1.23419e-10
-1.55433e-11
1.0883e-09
-1.43781e-10
-1.63363e-11
1.11707e-09
-1.3547e-10
-2.27063e-11
1.16664e-09
-1.38629e-10
-9.5336e-12
1.29101e-09
6.11824e-11
-9.92527e-12
9.55391e-10
6.13164e-11
-9.34836e-11
-9.39299e-11
-7.49463e-11
1.63735e-11
2.7318e-13
1.19591e-10
-8.74755e-12
-1.75626e-11
1.0325e-09
-1.76932e-11
-1.76882e-11
1.0331e-09
-2.70293e-11
-1.805e-11
1.03436e-09
-3.69659e-11
-1.8492e-11
1.03642e-09
-4.78428e-11
-1.92507e-11
1.03949e-09
-5.97717e-11
-2.02344e-11
1.04395e-09
-7.3541e-11
-2.15399e-11
1.05045e-09
-8.85472e-11
-2.37905e-11
1.05962e-09
-1.0722e-10
-2.57764e-11
1.07396e-09
-1.25022e-10
-3.13877e-11
1.09194e-09
-1.45043e-10
-3.32036e-11
1.12173e-09
-1.35134e-10
-4.61604e-11
1.17511e-09
-1.32477e-10
-1.26604e-11
1.30026e-09
6.46355e-11
-1.80468e-11
9.54337e-10
6.49083e-11
-9.2129e-11
-9.21035e-11
-6.84892e-11
2.36672e-13
1.75466e-11
2.49958e-12
1.12842e-10
-8.91622e-12
-2.68355e-11
1.03371e-09
-1.80528e-11
-2.7022e-11
1.03436e-09
-2.75973e-11
-2.75926e-11
1.0357e-09
-3.7826e-11
-2.8207e-11
1.0379e-09
-4.90779e-11
-2.9361e-11
1.04121e-09
-6.16435e-11
-3.06892e-11
1.04602e-09
-7.63088e-11
-3.26012e-11
1.05313e-09
-9.30487e-11
-3.55571e-11
1.06344e-09
-1.14269e-10
-3.8409e-11
1.07958e-09
-1.37247e-10
-4.56019e-11
1.10018e-09
-1.61499e-10
-4.82181e-11
1.13411e-09
-1.6367e-10
-6.12458e-11
1.21262e-09
-1.55137e-10
-9.68886e-12
1.37469e-09
5.7275e-11
-4.48867e-11
1.10084e-09
3.90134e-11
-8.00229e-11
-5.21545e-11
-8.24103e-11
-6.15658e-12
1.21159e-11
1.12054e-12
1.32605e-10
-9.14022e-12
-3.66995e-11
1.03572e-09
-1.84977e-11
-3.69542e-11
1.03642e-09
-2.8216e-11