/*--------------------------------*- C++ -*----------------------------------*\
| =========                 |                                                 |
| \\      /  F ield         | OpenFOAM: The Open Source CFD Toolbox           |
|  \\    /   O peration     | Version:  2.1.1                                 |
|   \\  /    A nd           | Web:      www.OpenFOAM.org                      |
|    \\/     M anipulation  |                                                 |
\*---------------------------------------------------------------------------*/
FoamFile
{
    version     2.0;
    format      ascii;
    class       volScalarField;
    location    "0.19";
    object      p;
}
// * * * * * * * * * * * * * * * * * * * * * * * * * * * * * * * * * * * * * //

dimensions      [0 2 -2 0 0 0 0];

internalField   nonuniform List<scalar> 
163952
(
0.0416792
0.0411029
0.0363671
0.0311723
0.0299755
0.0273641
0.0267739
0.0264502
0.0366873
0.0323452
0.0273036
0.0248138
0.0235701
0.0227911
0.0224767
0.0223354
0.0337185
0.0279816
0.0244778
0.022838
0.0219254
0.0213874
0.0210486
0.0208682
0.0207826
0.0335883
0.0260894
0.023255
0.0219083
0.0211528
0.0206739
0.0203542
0.0201425
0.0200162
0.0199526
0.0335896
0.0255475
0.0227307
0.0214524
0.0207374
0.0202735
0.0199493
0.0197184
0.0195587
0.0194581
0.0194056
0.0337188
0.0260895
0.0227307
0.0213089
0.0205462
0.0200572
0.0197116
0.0194575
0.0192707
0.0191385
0.0190528
0.0190073
0.0366871
0.0279816
0.023255
0.0214524
0.0205462
0.0199876
0.0195991
0.0193122
0.0190964
0.0189356
0.0188205
0.0187449
0.0187043
0.0323454
0.0244779
0.0219083
0.0207374
0.0200573
0.0195991
0.0192653
0.0190134
0.0188219
0.0186784
0.018575
0.0185067
0.0184698
0.0363673
0.0273038
0.0228382
0.0211529
0.0202735
0.0197116
0.0193123
0.0190134
0.0187851
0.0186105
0.0184793
0.0183844
0.0183213
0.0182872
0.0311726
0.024814
0.0219255
0.020674
0.0199494
0.0194575
0.0190964
0.0188219
0.0186106
0.0184483
0.0183258
0.0182371
0.0181779
0.0181458
0.0299757
0.0235703
0.0213875
0.0203543
0.0197185
0.0192707
0.0189357
0.0186784
0.0184793
0.0183258
0.0182097
0.0181254
0.018069
0.0180384
0.0273642
0.0227912
0.0210487
0.0201425
0.0195588
0.0191385
0.0188206
0.0185751
0.0183844
0.0182371
0.0181253
0.018044
0.0179897
0.0179601
0.0416793
0.026774
0.0224768
0.0208683
0.0200163
0.0194581
0.0190528
0.0187449
0.0185067
0.0183213
0.0181779
0.018069
0.0179896
0.0179365
0.0179076
0.041103
0.0264503
0.0223355
0.0207827
0.0199527
0.0194056
0.0190073
0.0187043
0.0184697
0.0182871
0.0181457
0.0180383
0.01796
0.0179076
0.017879
0.0235052
0.023562
0.0225002
0.0237094
0.0224404
0.0221262
0.0220813
0.0220604
0.022605
0.024419
0.0221061
0.0217938
0.0215331
0.0213422
0.0212673
0.0212155
0.0233832
0.0221581
0.02174
0.021328
0.0209871
0.0207083
0.0205234
0.0204273
0.0203777
0.0221277
0.0218373
0.0213999
0.0209585
0.0205656
0.0202543
0.0200179
0.0198581
0.0197659
0.0197215
0.0221284
0.0217081
0.0212158
0.0207118
0.0202846
0.0199419
0.0196823
0.0194908
0.0193589
0.0192786
0.0192399
0.0233835
0.0218375
0.0212158
0.0206317
0.0201427
0.0197645
0.0194751
0.0192571
0.0190961
0.0189837
0.0189132
0.0188792
0.0226052
0.0221583
0.0214
0.0207118
0.0201427
0.0197059
0.0193763
0.0191257
0.0189361
0.0187956
0.0186964
0.0186334
0.0186028
0.0244191
0.0217402
0.0209586
0.0202847
0.0197646
0.0193763
0.0190832
0.0188598
0.01869
0.0185635
0.0184737
0.0184162
0.0183881
0.0225003
0.0221063
0.0213281
0.0205657
0.019942
0.0194752
0.0191257
0.0188598
0.0186558
0.0185001
0.0183835
0.0183005
0.018247
0.0182208
0.0237096
0.0217939
0.0209872
0.0202544
0.0196824
0.0192571
0.0189362
0.01869
0.0185001
0.0183543
0.0182449
0.0181667
0.0181162
0.0180914
0.0224406
0.0215332
0.0207084
0.020018
0.0194909
0.0190962
0.0187956
0.0185635
0.0183836
0.0182449
0.0181406
0.0180658
0.0180175
0.0179937
0.0221264
0.0213423
0.0205236
0.0198582
0.019359
0.0189837
0.0186965
0.0184737
0.0183005
0.0181667
0.0180658
0.0179934
0.0179465
0.0179235
0.0235054
0.0220814
0.0212675
0.0204274
0.0197659
0.0192786
0.0189133
0.0186334
0.0184162
0.018247
0.0181162
0.0180174
0.0179465
0.0179006
0.017878
0.0235621
0.0220605
0.0212156
0.0203778
0.0197215
0.01924
0.0188792
0.0186027
0.0183881
0.0182208
0.0180914
0.0179937
0.0179234
0.017878
0.0178556
0.0198616
0.0198759
0.019941
0.0203229
0.0205465
0.0204307
0.0203231
0.0202825
0.0199479
0.0207919
0.0203417
0.0202635
0.0201686
0.0201297
0.0201002
0.0200748
0.0201583
0.0203556
0.0202551
0.0201344
0.0199976
0.019853
0.0197615
0.0197064
0.0196759
0.0205056
0.0202886
0.0201634
0.0199833
0.0197912
0.0196252
0.0194853
0.0193851
0.0193227
0.0192913
0.0205064
0.0202434
0.0200904
0.0198686
0.0196435
0.0194407
0.0192744
0.0191429
0.0190481
0.018988
0.0189584
0.0201584
0.0202889
0.0200904
0.0198307
0.0195646
0.0193308
0.0191342
0.0189757
0.0188529
0.0187643
0.0187075
0.0186796
0.0199481
0.0203558
0.0201636
0.0198687
0.0195647
0.0192934
0.0190648
0.0188773
0.018728
0.0186134
0.0185307
0.0184774
0.0184512
0.020792
0.0202553
0.0199835
0.0196436
0.0193309
0.0190649
0.0188449
0.0186669
0.0185263
0.0184188
0.0183412
0.018291
0.0182663
0.0199412
0.0203419
0.0201346
0.0197914
0.0194408
0.0191342
0.0188773
0.0186669
0.0184977
0.0183645
0.0182628
0.0181893
0.0181417
0.0181182
0.0203231
0.0202637
0.0199977
0.0196253
0.0192745
0.0189758
0.0187281
0.0185263
0.0183645
0.0182372
0.01814
0.0180698
0.0180241
0.0180016
0.0205467
0.0201688
0.0198531
0.0194854
0.019143
0.0188529
0.0186135
0.0184188
0.0182628
0.01814
0.0180463
0.0179784
0.0179343
0.0179125
0.0204309
0.0201299
0.0197616
0.0193852
0.0190482
0.0187643
0.0185308
0.0183412
0.0181893
0.0180698
0.0179784
0.0179122
0.0178692
0.017848
0.0198618
0.0203233
0.0201004
0.0197065
0.0193228
0.0189881
0.0187075
0.0184774
0.018291
0.0181416
0.0180241
0.0179343
0.0178692
0.0178269
0.0178059
0.019876
0.0202826
0.0200749
0.019676
0.0192914
0.0189584
0.0186796
0.0184512
0.0182662
0.0181181
0.0180015
0.0179125
0.0178479
0.0178059
0.0177852
0.0185145
0.0185248
0.018632
0.0188589
0.01919
0.0191895
0.0191369
0.0191149
0.018647
0.019073
0.019113
0.0191004
0.0190711
0.0190724
0.019071
0.0190674
0.018788
0.0191171
0.0191045
0.0190973
0.0190684
0.0190165
0.0189806
0.0189551
0.0189407
0.0192205
0.0191204
0.0191143
0.0190638
0.0189975
0.018933
0.0188701
0.0188201
0.0187853
0.0187669
0.0192211
0.0191008
0.0190956
0.0190323
0.0189427
0.0188491
0.0187631
0.0186884
0.0186311
0.0185928
0.0185733
0.0187881
0.0191206
0.0190956
0.019021
0.018912
0.0187957
0.0186851
0.0185879
0.0185073
0.0184466
0.0184065
0.0183864
0.0186472
0.0191173
0.0191144
0.0190324
0.0189121
0.018777
0.0186448
0.018525
0.018423
0.0183407
0.0182794
0.0182389
0.0182188
0.0190732
0.0191047
0.019064
0.0189428
0.0187958
0.0186448
0.0185038
0.0183802
0.018277
0.0181951
0.0181344
0.0180944
0.0180746
0.0186322
0.0191133
0.0190975
0.0189976
0.0188492
0.0186852
0.018525
0.0183802
0.0182558
0.0181533
0.0180725
0.0180129
0.0179737
0.0179542
0.0188591
0.0191007
0.0190686
0.0189332
0.0187632
0.018588
0.018423
0.0182771
0.0181533
0.018052
0.0179727
0.0179142
0.0178758
0.0178567
0.0191902
0.0190713
0.0190167
0.0188702
0.0186885
0.0185074
0.0183408
0.0181952
0.0180725
0.0179727
0.0178946
0.0178372
0.0177994
0.0177807
0.0191897
0.0190726
0.0189808
0.0188202
0.0186313
0.0184467
0.0182794
0.0181344
0.0180129
0.0179142
0.0178371
0.0177805
0.0177433
0.0177249
0.0185147
0.0191371
0.0190712
0.0189552
0.0187854
0.0185929
0.0184065
0.018239
0.0180944
0.0179737
0.0178758
0.0177994
0.0177433
0.0177065
0.0176882
0.018525
0.0191151
0.0190675
0.0189408
0.018767
0.0185734
0.0183864
0.0182188
0.0180745
0.0179542
0.0178567
0.0177806
0.0177248
0.0176882
0.01767
0.0177967
0.0178048
0.0178581
0.0180066
0.0182232
0.0182665
0.0182568
0.0182552
0.0178832
0.0181156
0.0182235
0.0182425
0.0182478
0.01826
0.0182681
0.0182726
0.0179731
0.0182251
0.0182513
0.0182842
0.0183024
0.0183017
0.0182985
0.0182923
0.0182879
0.0182577
0.0182472
0.018291
0.0183041
0.0183041
0.0182963
0.0182807
0.0182644
0.0182505
0.0182425
0.0182581
0.0182419
0.0182978
0.018313
0.0183003
0.0182749
0.0182431
0.0182101
0.0181821
0.0181619
0.0181512
0.0179732
0.0182474
0.0182978
0.0183157
0.0182973
0.0182579
0.0182099
0.0181609
0.018116
0.0180801
0.0180553
0.0180426
0.0178834
0.0182253
0.0182911
0.0183131
0.0182974
0.0182518
0.0181913
0.0181271
0.0180668
0.0180148
0.0179743
0.0179468
0.0179329
0.0181158
0.0182515
0.0183043
0.0183004
0.018258
0.0181913
0.0181153
0.0180406
0.0179734
0.0179173
0.0178743
0.0178453
0.0178307
0.0178583
0.0182238
0.0182845
0.0183043
0.018275
0.01821
0.0181271
0.0180406
0.0179593
0.0178881
0.0178297
0.0177854
0.0177557
0.0177407
0.0180068
0.0182428
0.0183027
0.0182965
0.0182433
0.018161
0.0180669
0.0179735
0.0178882
0.0178148
0.0177552
0.0177102
0.0176802
0.0176651
0.0182235
0.0182481
0.018302
0.0182809
0.0182102
0.0181162
0.0180149
0.0179174
0.0178298
0.0177552
0.017695
0.0176498
0.0176196
0.0176045
0.0182668
0.0182603
0.0182987
0.0182646
0.0181822
0.0180803
0.0179744
0.0178743
0.0177854
0.0177102
0.0176498
0.0176045
0.0175743
0.0175593
0.017797
0.0182571
0.0182684
0.0182925
0.0182507
0.018162
0.0180554
0.0179469
0.0178453
0.0177557
0.0176801
0.0176196
0.0175743
0.0175442
0.0175292
0.017805
0.0182554
0.0182728
0.0182881
0.0182426
0.0181513
0.0180427
0.0179329
0.0178307
0.0177407
0.0176651
0.0176045
0.0175592
0.0175291
0.0175141
0.0172867
0.0172934
0.0173062
0.0173991
0.0175245
0.0175746
0.0175797
0.0175857
0.0173287
0.0174727
0.0175547
0.0175856
0.0176068
0.017626
0.0176364
0.0176423
0.0173836
0.0175554
0.0175968
0.0176407
0.0176744
0.0176948
0.0177085
0.017714
0.0177157
0.017556
0.0175828
0.0176408
0.0176791
0.017708
0.0177275
0.0177374
0.0177415
0.0177416
0.0177407
0.0175563
0.017587
0.0176576
0.0177033
0.0177285
0.017741
0.017743
0.0177381
0.017731
0.0177246
0.0177207
0.0173838
0.017583
0.0176576
0.0177118
0.0177391
0.0177459
0.0177398
0.0177257
0.0177084
0.0176925
0.0176805
0.0176741
0.017329
0.0175557
0.017641
0.0177034
0.0177392
0.0177474
0.0177362
0.0177139
0.0176871
0.0176606
0.0176383
0.0176223
0.017614
0.017473
0.0175971
0.0176794
0.0177286
0.0177461
0.0177363
0.0177094
0.0176745
0.0176383
0.0176053
0.0175786
0.01756
0.0175504
0.0173066
0.0175551
0.017641
0.0177083
0.0177412
0.0177399
0.017714
0.0176745
0.0176304
0.0175876
0.0175502
0.0175205
0.0175001
0.0174897
0.0173994
0.017586
0.0176747
0.0177278
0.0177432
0.0177258
0.0176872
0.0176383
0.0175876
0.0175404
0.0175
0.0174685
0.0174469
0.017436
0.0175249
0.0176072
0.0176951
0.0177377
0.0177383
0.0177086
0.0176607
0.0176054
0.0175502
0.0175
0.0174577
0.0174249
0.0174027
0.0173914
0.017575
0.0176263
0.0177088
0.0177418
0.0177313
0.0176927
0.0176384
0.0175786
0.0175206
0.0174685
0.0174249
0.0173914
0.0173687
0.0173572
0.0172871
0.01758
0.0176367
0.0177143
0.0177418
0.0177248
0.0176806
0.0176224
0.01756
0.0175002
0.0174469
0.0174027
0.0173687
0.0173457
0.0173341
0.0172937
0.017586
0.0176426
0.017716
0.0177409
0.0177209
0.0176742
0.0176141
0.0175504
0.0174897
0.017436
0.0173914
0.0173572
0.0173341
0.0173224
0.0168535
0.016861
0.0168544
0.0169139
0.0169811
0.0170269
0.0170359
0.0170436
0.0168725
0.0169737
0.0170211
0.0170523
0.0170773
0.0170999
0.0171119
0.0171185
0.0169069
0.0170215
0.0170648
0.0171087
0.0171449
0.0171714
0.0171918
0.0172033
0.0172085
0.0170085
0.0170471
0.0171055
0.017151
0.0171899
0.0172209
0.0172431
0.0172582
0.0172664
0.01727
0.0170087
0.0170547
0.017124
0.0171788
0.0172204
0.0172521
0.0172734
0.017286
0.0172929
0.017296
0.017297
0.0169071
0.0170473
0.017124
0.0171888
0.0172368
0.0172692
0.017289
0.0172984
0.0173009
0.0172999
0.0172978
0.0172963
0.0168728
0.0170218
0.0171058
0.0171789
0.0172368
0.017275
0.0172954
0.0173023
0.0173004
0.0172938
0.0172862
0.0172799
0.0172763
0.0169741
0.0170652
0.0171513
0.0172206
0.0172694
0.0172954
0.0173031
0.0172984
0.0172869
0.0172731
0.0172604
0.0172508
0.0172457
0.0168548
0.0170215
0.0171091
0.0171902
0.0172524
0.0172892
0.0173024
0.0172984
0.0172841
0.0172652
0.017246
0.0172295
0.0172176
0.0172113
0.0169143
0.0170528
0.0171453
0.0172213
0.0172737
0.0172986
0.0173005
0.017287
0.0172652
0.0172408
0.0172177
0.0171985
0.0171849
0.0171779
0.0169816
0.0170778
0.0171718
0.0172435
0.0172863
0.0173011
0.017294
0.0172732
0.017246
0.0172177
0.0171918
0.0171708
0.0171561
0.0171485
0.0170273
0.0171004
0.0171923
0.0172585
0.0172932
0.0173001
0.0172864
0.0172605
0.0172295
0.0171985
0.0171708
0.0171485
0.017133
0.0171251
0.016854
0.0170363
0.0171123
0.0172037
0.0172668
0.0172962
0.017298
0.01728
0.0172509
0.0172176
0.0171849
0.0171561
0.017133
0.017117
0.0171089
0.0168614
0.017044
0.0171189
0.0172089
0.0172703
0.0172972
0.0172964
0.0172764
0.0172457
0.0172113
0.0171778
0.0171484
0.017125
0.0171088
0.0171005
0.0164637
0.0164716
0.0164615
0.0165002
0.0165326
0.0165706
0.0165803
0.0165879
0.0164748
0.0165521
0.0165737
0.016601
0.0166244
0.0166468
0.0166591
0.016666
0.0164979
0.016574
0.0166139
0.0166538
0.0166877
0.0167141
0.0167359
0.0167494
0.0167561
0.0165558
0.0165956
0.0166493
0.0166943
0.0167346
0.0167689
0.0167957
0.0168157
0.0168281
0.0168341
0.016556
0.0166034
0.0166664
0.0167211
0.0167679
0.0168076
0.0168385
0.0168608
0.016876
0.0168851
0.0168892
0.0164982
0.0165958
0.0166664
0.0167309
0.0167858
0.0168305
0.0168646
0.0168884
0.0169038
0.016913
0.016918
0.01692
0.0164752
0.0165744
0.0166496
0.0167213
0.0167859
0.0168383
0.0168769
0.0169025
0.0169177
0.0169256
0.016929
0.0169301
0.0169303
0.0165526
0.0166143
0.0166946
0.0167682
0.0168307
0.0168769
0.0169068
0.0169233
0.0169303
0.0169314
0.0169299
0.0169277
0.0169262
0.016462
0.0165742
0.0166543
0.016735
0.0168079
0.0168648
0.0169026
0.0169233
0.0169313
0.0169312
0.0169269
0.0169214
0.0169167
0.016914
0.0165008
0.0166016
0.0166883
0.0167694
0.0168389
0.0168887
0.0169179
0.0169304
0.0169313
0.0169256
0.016917
0.0169085
0.0169019
0.0168983
0.0165333
0.016625
0.0167147
0.0167962
0.0168612
0.0169041
0.0169258
0.0169316
0.016927
0.0169171
0.0169054
0.0168948
0.0168867
0.0168825
0.0165713
0.0166474
0.0167364
0.0168162
0.0168764
0.0169133
0.0169292
0.01693
0.0169215
0.0169086
0.0168948
0.0168826
0.0168736
0.0168689
0.0164642
0.0165809
0.0166596
0.0167499
0.0168286
0.0168854
0.0169182
0.0169303
0.0169278
0.0169167
0.0169019
0.0168867
0.0168736
0.0168641
0.016859
0.0164721
0.0165884
0.0166665
0.0167566
0.0168344
0.0168895
0.0169202
0.0169304
0.0169263
0.016914
0.0168982
0.0168824
0.0168688
0.016859
0.0168538
0.0161086
0.0161161
0.0161085
0.0161341
0.0161462
0.0161766
0.0161854
0.016192
0.0161184
0.0161801
0.0161846
0.0162074
0.0162276
0.0162477
0.0162591
0.0162657
0.0161351
0.0161851
0.0162199
0.0162548
0.0162849
0.0163089
0.0163293
0.0163427
0.0163496
0.0161661
0.0162028
0.0162502
0.0162914
0.0163293
0.0163627
0.0163899
0.0164112
0.016425
0.0164319
0.0161663
0.0162099
0.0162652
0.0163157
0.0163617
0.0164029
0.0164372
0.0164639
0.0164833
0.0164955
0.0165015
0.0161355
0.0162031
0.0162652
0.0163246
0.0163792
0.0164277
0.0164682
0.0164997
0.0165225
0.0165381
0.0165476
0.016552
0.0161189
0.0161856
0.0162506
0.016316
0.0163793
0.0164363
0.0164834
0.0165197
0.0165457
0.0165631
0.0165742
0.0165806
0.0165834
0.0161807
0.0162205
0.0162919
0.016362
0.0164279
0.0164835
0.0165261
0.0165562
0.0165758
0.0165878
0.0165946
0.0165981
0.0165995
0.0161093
0.0161853
0.0162555
0.0163299
0.0164033
0.0164685
0.0165199
0.0165562
0.0165797
0.0165934
0.0166005
0.0166036
0.0166047
0.0166049
0.0161349
0.0162083
0.0162856
0.0163633
0.0164377
0.0165
0.0165459
0.016576
0.0165935
0.0166021
0.0166052
0.0166054
0.0166045
0.0166038
0.0161471
0.0162285
0.0163096
0.0163906
0.0164644
0.0165229
0.0165634
0.016588
0.0166006
0.0166052
0.0166053
0.0166032
0.0166009
0.0165995
0.0161774
0.0162485
0.01633
0.0164118
0.0164837
0.0165385
0.0165745
0.0165948
0.0166037
0.0166054
0.0166032
0.0165996
0.0165963
0.0165944
0.0161093
0.0161862
0.0162599
0.0163434
0.0164256
0.016496
0.0165479
0.0165808
0.0165982
0.0166048
0.0166046
0.0166009
0.0165963
0.0165924
0.0165901
0.0161166
0.0161927
0.0162664
0.0163501
0.0164324
0.0165019
0.0165523
0.0165836
0.0165996
0.0166049
0.0166038
0.0165994
0.0165943
0.0165901
0.0165876
0.0157828
0.0157892
0.0157854
0.015803
0.0158022
0.0158262
0.0158336
0.0158391
0.015793
0.0158435
0.0158366
0.0158555
0.0158724
0.0158895
0.0158993
0.0159052
0.0158059
0.0158375
0.0158673
0.0158972
0.015923
0.0159438
0.0159618
0.0159739
0.0159803
0.0158198
0.0158523
0.0158931
0.0159295
0.0159633
0.0159937
0.0160191
0.0160394
0.016053
0.01606
0.01582
0.0158585
0.0159061
0.0159509
0.015993
0.0160321
0.0160661
0.0160935
0.0161142
0.0161278
0.0161345
0.0158064
0.0158527
0.0159062
0.0159587
0.0160092
0.0160565
0.0160983
0.0161326
0.0161589
0.0161778
0.0161899
0.0161957
0.0157937
0.0158382
0.0158936
0.0159512
0.0160094
0.0160651
0.0161145
0.0161555
0.0161872
0.0162103
0.0162262
0.016236
0.0162407
0.0158443
0.0158681
0.0159301
0.0159935
0.0160568
0.0161147
0.016163
0.0162006
0.0162282
0.0162474
0.0162599
0.0162674
0.0162709
0.0157864
0.0158376
0.0158981
0.015964
0.0160327
0.0160987
0.0161557
0.0162008
0.0162339
0.016257
0.0162722
0.0162817
0.0162871
0.0162894
0.015804
0.0158566
0.015924
0.0159945
0.0160667
0.016133
0.0161875
0.0162284
0.016257
0.0162759
0.0162877
0.0162946
0.0162983
0.0162998
0.0158034
0.0158735
0.0159448
0.0160199
0.0160942
0.0161594
0.0162107
0.0162476
0.0162723
0.0162878
0.0162968
0.0163016
0.0163039
0.0163048
0.0158273
0.0158906
0.0159628
0.0160402
0.0161149
0.0161783
0.0162266
0.0162601
0.0162818
0.0162947
0.0163016
0.016305
0.0163063
0.0163066
0.0157837
0.0158346
0.0159003
0.0159748
0.0160538
0.0161284
0.0161903
0.0162363
0.0162676
0.0162872
0.0162983
0.0163039
0.0163063
0.016307
0.016307
0.0157899
0.01584
0.015906
0.0159811
0.0160606
0.016135
0.0161961
0.0162409
0.016271
0.0162895
0.0162998
0.0163047
0.0163066
0.016307
0.0163068
0.0154806
0.0154858
0.0154853
0.0154979
0.0154883
0.0155073
0.0155131
0.0155177
0.0154914
0.0155336
0.0155188
0.0155343
0.0155482
0.0155623
0.0155703
0.0155753
0.015502
0.0155203
0.0155455
0.0155707
0.0155924
0.0156099
0.0156251
0.0156354
0.015641
0.0155044
0.0155328
0.0155676
0.0155988
0.015628
0.0156545
0.0156769
0.0156951
0.0157075
0.015714
0.0155047
0.0155382
0.0155788
0.0156174
0.0156545
0.0156896
0.015721
0.015747
0.0157671
0.0157805
0.0157872
0.0155026
0.0155332
0.0155789
0.0156242
0.015669
0.0157123
0.015752
0.015786
0.015813
0.015833
0.015846
0.0158524
0.0154922
0.0155212
0.0155683
0.0156178
0.0156692
0.0157203
0.0157681
0.0158095
0.0158432
0.015869
0.0158874
0.0158992
0.0159049
0.0155347
0.0155465
0.0155996
0.0156551
0.0157127
0.0157682
0.0158175
0.0158581
0.0158897
0.0159131
0.0159292
0.0159393
0.0159441
0.0154866
0.0155202
0.0155719
0.015629
0.0156904
0.0157525
0.0158098
0.0158582
0.0158965
0.0159252
0.0159457
0.0159595
0.0159679
0.0159718
0.0154994
0.0155357
0.0155937
0.0156555
0.0157218
0.0157865
0.0158436
0.01589
0.0159253
0.0159509
0.0159687
0.0159804
0.0159873
0.0159905
0.0154899
0.0155497
0.0156112
0.015678
0.0157478
0.0158136
0.0158695
0.0159133
0.0159458
0.0159687
0.0159842
0.0159942
0.016
0.0160026
0.0155088
0.0155637
0.0156263
0.0156961
0.0157679
0.0158336
0.0158879
0.0159295
0.0159596
0.0159804
0.0159942
0.0160028
0.0160078
0.0160099
0.0154818
0.0155145
0.0155716
0.0156365
0.0157085
0.0157812
0.0158465
0.0158996
0.0159395
0.015968
0.0159874
0.016
0.0160078
0.0160121
0.016014
0.0154868
0.0155189
0.0155764
0.015642
0.0157148
0.0157879
0.0158529
0.0159052
0.0159443
0.0159719
0.0159906
0.0160026
0.0160099
0.0160139
0.0160157
0.0151966
0.0152009
0.015203
0.0152136
0.0151968
0.0152117
0.015216
0.0152198
0.0152082
0.0152443
0.0152241
0.0152366
0.0152478
0.015259
0.0152652
0.0152693
0.0152174
0.0152263
0.0152474
0.0152684
0.0152862
0.0153003
0.0153125
0.0153208
0.0153255
0.0152121
0.0152369
0.0152664
0.0152927
0.0153171
0.0153393
0.0153582
0.0153736
0.0153842
0.0153899
0.0152124
0.0152415
0.015276
0.0153086
0.0153402
0.0153704
0.0153978
0.015421
0.0154392
0.0154516
0.0154579
0.0152182
0.0152374
0.0152762
0.0153145
0.0153528
0.0153907
0.0154264
0.0154577
0.0154834
0.0155028
0.0155157
0.0155221
0.0152094
0.0152274
0.0152672
0.0153092
0.015353
0.0153979
0.0154413
0.0154805
0.0155135
0.0155396
0.0155587
0.0155712
0.0155773
0.0152457
0.0152487
0.0152937
0.0153409
0.0153911
0.0154415
0.0154882
0.0155286
0.0155613
0.0155864
0.0156043
0.0156158
0.0156214
0.0152047
0.0152259
0.01527
0.0153184
0.0153713
0.015427
0.0154808
0.0155287
0.0155685
0.0155998
0.0156232
0.0156396
0.0156499
0.0156549
0.0152155
0.0152386
0.0152879
0.0153407
0.0153989
0.0154585
0.015514
0.0155616
0.0156
0.0156294
0.0156509
0.0156657
0.0156749
0.0156793
0.0151989
0.0152498
0.015302
0.0153596
0.0154221
0.0154842
0.0155401
0.0155867
0.0156234
0.0156509
0.0156707
0.0156842
0.0156925
0.0156964
0.0152138
0.0152609
0.0153142
0.0153749
0.0154402
0.0155036
0.0155592
0.0156047
0.0156398
0.0156658
0.0156842
0.0156966
0.0157042
0.0157077
0.0151983
0.0152179
0.0152668
0.0153223
0.0153854
0.0154525
0.0155164
0.0155716
0.0156161
0.0156501
0.015675
0.0156925
0.0157042
0.0157113
0.0157146
0.0152023
0.0152214
0.0152707
0.0153268
0.0153909
0.0154587
0.0155227
0.0155777
0.0156216
0.015655
0.0156793
0.0156963
0.0157077
0.0157145
0.0157177
0.0149267
0.0149303
0.0149347
0.0149437
0.0149224
0.0149342
0.0149368
0.0149399
0.0149396
0.0149713
0.0149474
0.0149574
0.014966
0.0149744
0.0149787
0.014982
0.0149479
0.0149504
0.014968
0.0149852
0.0149993
0.01501
0.0150191
0.0150253
0.015029
0.0149377
0.0149595
0.0149844
0.015006
0.0150257
0.0150434
0.0150583
0.0150705
0.0150791
0.0150837
0.014938
0.0149633
0.0149925
0.0150195
0.0150453
0.0150701
0.0150928
0.0151123
0.0151277
0.0151384
0.0151439
0.014949
0.0149602
0.0149928
0.0150245
0.0150559
0.0150876
0.015118
0.0151454
0.0151683
0.0151859
0.0151979
0.0152039
0.0149411
0.0149518
0.0149854
0.0150201
0.0150563
0.0150939
0.0151313
0.0151663
0.0151966
0.0152213
0.0152398
0.0152521
0.0152582
0.0149732
0.0149697
0.0150074
0.0150462
0.0150881
0.0151316
0.0151735
0.0152111
0.0152427
0.0152677
0.0152861
0.015298
0.0153039
0.0149371
0.0149498
0.0149872
0.0150274
0.0150712
0.0151188
0.0151667
0.0152113
0.01525
0.0152816
0.0153059
0.0153235
0.0153348
0.0153403
0.0149464
0.0149601
0.0150015
0.0150452
0.0150941
0.0151463
0.0151972
0.0152431
0.0152817
0.0153125
0.0153359
0.0153525
0.0153631
0.0153682
0.0149253
0.0149687
0.0150123
0.0150602
0.0151136
0.0151692
0.0152219
0.0152681
0.0153061
0.015336
0.0153583
0.0153739
0.0153839
0.0153886
0.014937
0.014977
0.0150213
0.0150723
0.015129
0.0151869
0.0152404
0.0152865
0.0153237
0.0153526
0.015374
0.0153889
0.0153983
0.0154028
0.0149291
0.0149392
0.0149809
0.0150272
0.0150806
0.0151395
0.0151987
0.0152526
0.0152984
0.015335
0.0153632
0.0153839
0.0153983
0.0154073
0.0154116
0.0149323
0.0149419
0.0149838
0.0150305
0.0150849
0.0151449
0.0152046
0.0152586
0.0153041
0.0153405
0.0153682
0.0153886
0.0154027
0.0154115
0.0154157
0.0146676
0.0146707
0.0146778
0.0146855
0.0146618
0.0146709
0.0146714
0.014674
0.0146826
0.0147114
0.0146854
0.0146931
0.0146989
0.0147045
0.0147067
0.0147093
0.0146906
0.0146894
0.0147039
0.0147174
0.0147278
0.014735
0.0147408
0.0147446
0.0147472
0.0146779
0.0146971
0.0147179
0.014735
0.0147499
0.0147629
0.0147735
0.0147821
0.0147882
0.0147917
0.0146783
0.0146998
0.0147246
0.014746
0.0147659
0.0147848
0.0148023
0.0148174
0.0148296
0.0148381
0.0148427
0.0146919
0.0146979
0.014725
0.0147501
0.0147745
0.0147992
0.0148236
0.014846
0.0148652
0.0148803
0.0148907
0.0148961
0.0146846
0.0146912
0.0147192
0.0147468
0.0147749
0.0148045
0.014835
0.0148644
0.0148908
0.0149129
0.0149298
0.0149412
0.014947
0.0147139
0.0147062
0.0147367
0.014767
0.0148
0.0148353
0.0148708
0.014904
0.014933
0.0149566
0.0149743
0.014986
0.0149918
0.014681
0.0146887
0.0147201
0.014752
0.0147863
0.0148245
0.0148649
0.0149043
0.0149399
0.0149701
0.0149941
0.0150118
0.0150234
0.0150292
0.0146892
0.0146967
0.0147308
0.0147652
0.014804
0.0148471
0.0148915
0.0149334
0.0149702
0.0150008
0.0150246
0.015042
0.0150532
0.0150587
0.014666
0.0147026
0.014738
0.0147759
0.0148191
0.0148664
0.0149136
0.014957
0.0149943
0.0150247
0.0150481
0.015065
0.0150758
0.0150811
0.0146748
0.014708
0.0147436
0.0147843
0.0148312
0.0148815
0.0149305
0.0149747
0.0150121
0.0150421
0.015065
0.0150814
0.0150919
0.015097
0.0146709
0.0146747
0.0147097
0.014747
0.0147901
0.0148395
0.0148917
0.0149418
0.0149864
0.0150237
0.0150533
0.0150758
0.0150919
0.0151022
0.0151071
0.0146734
0.0146767
0.0147117
0.0147492
0.0147932
0.0148438
0.0148969
0.0149475
0.0149921
0.0150293
0.0150587
0.015081
0.0150969
0.0151071
0.0151119
0.0144166
0.0144194
0.01443
0.0144367
0.0144132
0.0144193
0.0144171
0.0144194
0.0144351
0.0144626
0.014436
0.0144412
0.0144439
0.0144462
0.0144461
0.0144479
0.0144431
0.0144413
0.0144528
0.0144623
0.0144687
0.0144719
0.0144738
0.014475
0.0144765
0.0144308
0.0144473
0.0144641
0.0144766
0.0144862
0.014494
0.0145
0.0145046
0.0145079
0.0145102
0.0144313
0.0144486
0.0144691
0.0144847
0.0144983
0.0145109
0.0145227
0.014533
0.0145414
0.0145475
0.0145509
0.0144448
0.0144483
0.0144695
0.0144879
0.0145047
0.0145219
0.0145395
0.0145564
0.0145714
0.0145835
0.014592
0.0145964
0.0144375
0.0144435
0.0144657
0.0144857
0.0145051
0.0145261
0.0145487
0.0145718
0.0145934
0.0146122
0.014627
0.0146371
0.0146423
0.0144659
0.0144557
0.0144787
0.0144997
0.0145228
0.0145491
0.0145773
0.0146051
0.0146305
0.0146518
0.0146682
0.0146792
0.0146848
0.0144345
0.0144405
0.0144659
0.0144888
0.0145127
0.0145407
0.0145724
0.0146054
0.0146368
0.0146645
0.0146873
0.0147044
0.0147159
0.0147215
0.014442
0.0144463
0.0144728
0.014497
0.0145247
0.0145577
0.0145942
0.0146309
0.0146647
0.0146937
0.0147171
0.0147345
0.014746
0.0147516
0.0144194
0.0144492
0.014476
0.014503
0.014535
0.0145727
0.014613
0.0146522
0.0146875
0.0147172
0.0147407
0.0147581
0.0147694
0.0147749
0.014425
0.014451
0.0144775
0.0145073
0.0145433
0.0145847
0.0146278
0.0146686
0.0147047
0.0147346
0.0147581
0.0147753
0.0147864
0.0147919
0.0144213
0.0144217
0.0144499
0.014478
0.0145102
0.0145491
0.014593
0.0146378
0.0146796
0.0147161
0.014746
0.0147694
0.0147864
0.0147974
0.0148028
0.014423
0.0144229
0.0144509
0.0144789
0.0145119
0.0145522
0.0145973
0.0146429
0.0146851
0.0147217
0.0147516
0.0147749
0.0147918
0.0148027
0.0148081
0.0141707
0.0141734
0.0141889
0.0141954
0.0141763
0.0141779
0.0141717
0.014174
0.0141944
0.0142231
0.0141983
0.0142003
0.0141989
0.0141966
0.0141935
0.0141947
0.0142037
0.0142053
0.0142134
0.0142176
0.0142192
0.0142174
0.0142146
0.0142126
0.014213
0.0141963
0.0142084
0.0142207
0.0142277
0.0142311
0.0142331
0.0142337
0.0142338
0.0142342
0.0142351
0.0141968
0.0142071
0.0142231
0.0142321
0.0142385
0.0142441
0.0142497
0.0142549
0.0142594
0.0142629
0.0142652
0.0142056
0.0142096
0.0142236
0.0142341
0.0142423
0.0142514
0.0142618
0.0142728
0.0142833
0.0142922
0.0142987
0.0143023
0.0141973
0.0142079
0.0142225
0.0142331
0.0142428
0.0142542
0.0142686
0.0142849
0.0143016
0.0143168
0.0143292
0.014338
0.0143426
0.0142273
0.0142169
0.0142302
0.0142401
0.0142523
0.0142689
0.0142894
0.0143115
0.0143329
0.0143516
0.0143665
0.0143767
0.0143819
0.0141953
0.0142045
0.0142222
0.0142343
0.0142462
0.0142631
0.0142856
0.0143118
0.0143385
0.0143634
0.0143844
0.0144007
0.0144117
0.0144173
0.0142035
0.0142077
0.0142246
0.0142367
0.014252
0.0142743
0.0143024
0.0143333
0.0143635
0.0143906
0.014413
0.0144301
0.0144415
0.0144471
0.0141857
0.0142065
0.0142229
0.0142374
0.0142572
0.0142848
0.0143177
0.0143521
0.0143846
0.0144131
0.0144362
0.0144536
0.0144652
0.0144708
0.0141863
0.0142033
0.0142194
0.0142371
0.0142615
0.0142935
0.01433
0.0143669
0.0144009
0.0144302
0.0144537
0.0144711
0.0144827
0.0144883
0.0141776
0.0141781
0.0141985
0.0142163
0.0142368
0.0142646
0.0142998
0.0143387
0.0143771
0.0144119
0.0144415
0.0144651
0.0144826
0.0144941
0.0144998
0.0141783
0.0141784
0.0141982
0.0142157
0.014237
0.0142664
0.0143031
0.014343
0.0143821
0.0144174
0.0144471
0.0144708
0.0144882
0.0144997
0.0145053
0.0139256
0.0139285
0.0139507
0.0139595
0.0139528
0.0139462
0.0139333
0.013936
0.0139561
0.0139922
0.0139721
0.0139695
0.0139616
0.0139526
0.0139453
0.013946
0.0139699
0.0139816
0.0139846
0.0139801
0.0139753
0.0139673
0.0139584
0.0139526
0.0139518
0.0139838
0.0139789
0.0139838
0.0139839
0.0139794
0.0139746
0.0139694
0.0139646
0.0139619
0.0139616
0.0139843
0.0139721
0.013982
0.0139828
0.013981
0.0139789
0.013978
0.0139781
0.0139788
0.01398
0.0139812
0.0139719
0.01398
0.0139825
0.0139835
0.0139816
0.013982
0.0139851
0.0139906
0.0139969
0.014003
0.0140077
0.0140105
0.0139596
0.0139844
0.0139857
0.0139839
0.0139821
0.0139833
0.0139894
0.0139995
0.0140116
0.0140237
0.014034
0.0140416
0.0140456
0.0139976
0.0139887
0.0139866
0.0139827
0.0139829
0.0139898
0.0140029
0.0140198
0.0140376
0.0140541
0.0140676
0.0140771
0.0140819
0.01396
0.0139805
0.0139858
0.013983
0.0139811
0.0139864
0.0140001
0.01402
0.0140426
0.0140648
0.0140844
0.0140999
0.0141105
0.0141159
0.0139722
0.0139801
0.0139823
0.0139789
0.0139805
0.013992
0.0140124
0.014038
0.014065
0.0140902
0.0141117
0.0141284
0.0141397
0.0141454
0.0139685
0.0139729
0.0139744
0.0139737
0.0139806
0.0139984
0.0140245
0.0140545
0.0140846
0.0141118
0.0141345
0.0141518
0.0141635
0.0141692
0.0139593
0.0139619
0.0139644
0.0139683
0.013981
0.0140042
0.0140347
0.014068
0.0141
0.0141285
0.0141518
0.0141695
0.0141813
0.0141871
0.0139361
0.0139421
0.0139517
0.0139568
0.0139646
0.0139816
0.0140087
0.0140421
0.0140773
0.0141106
0.0141397
0.0141634
0.0141812
0.014193
0.0141989
0.0139352
0.0139414
0.0139499
0.0139545
0.0139634
0.0139823
0.0140112
0.014046
0.0140821
0.0141159
0.0141453
0.0141691
0.014187
0.0141988
0.0142046
0.0136719
0.0136761
0.0137058
0.0137257
0.0137542
0.0137229
0.0136984
0.013703
0.0137099
0.0137724
0.0137573
0.0137475
0.013729
0.0137088
0.0136955
0.0136959
0.0137398
0.01377
0.0137644
0.0137433
0.0137296
0.0137136
0.0136977
0.0136876
0.0136858
0.0138189
0.0137621
0.0137457
0.0137369
0.0137224
0.0137102
0.0136992
0.01369
0.0136845
0.0136834
0.0138191
0.0137494
0.0137406
0.013728
0.0137171
0.013707
0.0137004
0.0136964
0.0136943
0.0136938
0.0136944
0.0137414
0.0137629
0.013741
0.0137277
0.0137141
0.0137061
0.013703
0.0137042
0.0137077
0.0137119
0.0137156
0.013718
0.0137134
0.0137725
0.0137473