/*--------------------------------*- C++ -*----------------------------------*\
| =========                 |                                                 |
| \\      /  F ield         | OpenFOAM: The Open Source CFD Toolbox           |
|  \\    /   O peration     | Version:  2.1.1                                 |
|   \\  /    A nd           | Web:      www.OpenFOAM.org                      |
|    \\/     M anipulation  |                                                 |
\*---------------------------------------------------------------------------*/
FoamFile
{
    version     2.0;
    format      ascii;
    class       volVectorField;
    location    "0.0025";
    object      U;
}
// * * * * * * * * * * * * * * * * * * * * * * * * * * * * * * * * * * * * * //

dimensions      [0 1 -1 0 0 0 0];

internalField   nonuniform List<vector> 
10156
(
(1.40448e-06 1.16776e-06 0.11273)
(1.35456e-05 1.31912e-06 0.112698)
(1.55151e-05 1.091e-06 0.112649)
(2.9418e-05 1.41001e-06 0.112597)
(2.45727e-05 6.98031e-07 0.112544)
(4.36992e-05 1.22792e-06 0.11249)
(2.34512e-05 -6.21091e-07 0.112435)
(5.84188e-05 8.10209e-07 0.11237)
(-1.05078e-06 -3.03472e-06 0.112291)
(8.96315e-05 5.42816e-07 0.112147)
(-6.78062e-05 -7.23009e-06 0.111946)
(0.000161211 -4.39047e-06 0.112264)
(-0.000185103 -9.08553e-06 0.112808)
(0.000259849 -3.60772e-05 0.0883855)
(0.00149808 -1.91155e-05 0.0295124)
(1.40178e-06 1.32933e-05 0.112698)
(1.35385e-05 1.34604e-05 0.112673)
(1.54486e-05 1.25601e-05 0.112631)
(2.88979e-05 1.25021e-05 0.112581)
(2.43643e-05 1.02226e-05 0.11253)
(4.23551e-05 1.15357e-05 0.112477)
(2.3118e-05 6.22782e-06 0.112426)
(5.58926e-05 1.28575e-05 0.112372)
(-1.25285e-06 -6.18015e-07 0.112322)
(8.47138e-05 2.45917e-05 0.112231)
(-7.17735e-05 -1.70012e-05 0.112101)
(0.00015734 6.18651e-05 0.112511)
(-0.000220811 -5.50201e-05 0.113249)
(0.000267838 9.39891e-05 0.0890385)
(0.00150774 -0.000119568 0.0298641)
(1.32225e-06 1.53274e-05 0.11265)
(1.28129e-05 1.54047e-05 0.112633)
(1.45567e-05 1.43715e-05 0.112598)
(2.70788e-05 1.45453e-05 0.112552)
(2.36029e-05 1.13495e-05 0.112502)
(3.96872e-05 1.30948e-05 0.11245)
(2.48093e-05 4.93668e-06 0.112405)
(5.14696e-05 1.28269e-05 0.112367)
(1.10084e-05 -6.224e-06 0.112349)
(7.17448e-05 2.10433e-05 0.11231)
(-2.66981e-05 -3.01269e-05 0.112299)
(0.000117916 3.91129e-05 0.113397)
(-0.000100665 -3.57046e-05 0.116076)
(0.000172438 -0.000116035 0.0939217)
(0.000143151 -0.00207411 0.0281579)
(1.47058e-06 2.92038e-05 0.112597)
(1.25824e-05 2.88329e-05 0.112583)
(1.45914e-05 2.69043e-05 0.112554)
(2.58787e-05 2.58381e-05 0.11251)
(2.29099e-05 2.13535e-05 0.112459)
(3.59306e-05 2.16348e-05 0.112405)
(2.28768e-05 1.24154e-05 0.112359)
(4.46095e-05 2.00956e-05 0.112328)
(7.06501e-06 -1.19766e-06 0.112317)
(6.08395e-05 3.34666e-05 0.112282)
(-4.68496e-05 -3.32995e-05 0.112566)
(0.000144875 0.00012767 0.114671)
(-0.000384712 -0.000150449 0.113454)
(0.000494293 0.000342234 0.0753148)
(-0.00801066 -0.00324534 0.0250276)
(9.5427e-07 2.44378e-05 0.112544)
(1.05134e-05 2.43116e-05 0.11253)
(1.15602e-05 2.34575e-05 0.112503)
(2.15288e-05 2.28465e-05 0.11246)
(1.93862e-05 1.92115e-05 0.112404)
(3.07347e-05 1.97875e-05 0.112342)
(2.32122e-05 9.31361e-06 0.112285)
(3.76361e-05 1.72022e-05 0.11224)
(2.45324e-05 -8.0055e-06 0.112194)
(4.37268e-05 2.35539e-05 0.112177)
(6.60948e-05 -6.58349e-05 0.113067)
(-4.86181e-05 0.000178431 0.114005)
(0.000277353 -0.000189135 0.0887094)
(-0.00134575 -0.00208507 0.0388836)
(0.00209539 0.0034219 0.0120743)
(1.27361e-06 4.35856e-05 0.11249)
(1.16049e-05 4.2317e-05 0.112477)
(1.31281e-05 3.96013e-05 0.112451)
(2.1646e-05 3.59242e-05 0.112406)
(1.98525e-05 3.06698e-05 0.112343)
(2.60376e-05 2.60679e-05 0.112268)
(2.01826e-05 1.79122e-05 0.11219)
(2.71095e-05 1.42557e-05 0.112108)
(1.5332e-05 1.3774e-06 0.112)
(8.26555e-06 -2.03263e-05 0.112186)
(4.11597e-05 5.44637e-05 0.114182)
(-0.000266485 -9.36684e-05 0.112202)
(0.000335933 0.000391523 0.0721625)
(0.000787392 0.00283912 0.0323365)
(-3.36578e-07 2.33775e-05 0.112435)
(6.54537e-06 2.30649e-05 0.112426)
(5.17753e-06 2.46939e-05 0.112406)
(1.26099e-05 2.27675e-05 0.112361)
(9.52532e-06 2.30342e-05 0.112287)
(1.79772e-05 1.99915e-05 0.112192)
(1.12309e-05 1.09057e-05 0.112081)
(2.13838e-05 1.38782e-05 0.111929)
(-4.97119e-06 1.46905e-06 0.111808)
(9.84686e-05 1.58182e-06 0.112617)
(-8.71705e-05 0.000100326 0.11352)
(0.000369967 -2.98542e-05 0.0877124)
(-0.00154161 -0.00223897 0.0360577)
(0.00317407 0.00278065 0.0188202)
(8.25492e-07 5.84098e-05 0.11237)
(1.28844e-05 5.58749e-05 0.112373)
(1.28035e-05 5.14702e-05 0.112368)
(2.00429e-05 4.46379e-05 0.112329)
(1.71847e-05 3.77118e-05 0.112243)
(1.40824e-05 2.7197e-05 0.112112)
(1.40796e-05 2.14998e-05 0.111933)
(1.94506e-05 1.98972e-05 0.111678)
(6.61626e-06 -4.76461e-05 0.111754)
(4.47886e-05 4.83298e-06 0.113704)
(-0.000305941 -0.000131288 0.112427)
(0.000397066 0.000401712 0.0738458)
(0.000662369 0.00192816 0.0320346)
(-2.68832e-06 -1.16044e-06 0.112291)
(-2.92562e-07 -1.32384e-06 0.112322)
(-5.93807e-06 1.09243e-05 0.11235)
(-9.29071e-07 6.94782e-06 0.112319)
(-7.72984e-06 2.42817e-05 0.112198)
(1.50129e-06 1.48718e-05 0.112006)
(2.15678e-06 -5.91368e-06 0.111817)
(-4.78686e-05 4.3806e-06 0.111763)
(-1.77943e-05 -2.36304e-05 0.112589)
(-5.28547e-05 0.000292802 0.11354)
(0.000347339 -0.000230655 0.0888166)
(-0.001092 -0.00347609 0.0386693)
(0.00114764 0.000866105 0.0145275)
(5.88975e-07 8.96965e-05 0.112147)
(2.46425e-05 8.48078e-05 0.112232)
(2.0972e-05 7.17497e-05 0.112311)
(3.3247e-05 6.08855e-05 0.112284)
(2.32074e-05 4.40441e-05 0.112181)
(-2.11935e-05 7.80737e-06 0.112191)
(-1.62449e-07 0.000100041 0.112625)
(-1.1869e-06 4.15387e-05 0.113717)
(0.000294846 -3.87876e-05 0.11355)
(-0.000559486 -0.000563672 0.112568)
(0.0004691 0.00059274 0.0705808)
(-0.000707963 -0.0056588 0.0266118)
(-6.96171e-06 -6.78222e-05 0.111946)
(-1.67342e-05 -7.17399e-05 0.112102)
(-2.98891e-05 -2.66557e-05 0.1123)
(-3.27085e-05 -4.67334e-05 0.112568)
(-6.60491e-05 6.64754e-05 0.11307)
(5.57575e-05 4.18196e-05 0.114186)
(9.77844e-05 -8.49238e-05 0.113526)
(-0.000119683 -0.000301853 0.112434)
(-0.000225356 0.00036284 0.0888216)
(0.00058232 0.000474167 0.0706224)
(-0.0112324 -0.01122 0.0329906)
(-4.28457e-06 0.000161301 0.112264)
(6.19742e-05 0.000157436 0.112512)
(3.91266e-05 0.000117962 0.113397)
(0.000127799 0.000144899 0.114671)
(0.000178588 -4.88802e-05 0.114006)
(-9.2941e-05 -0.000265993 0.112204)
(-2.87261e-05 0.000369144 0.0877156)
(0.000406196 0.000400657 0.0738504)
(-0.00347638 -0.00109383 0.0386767)
(-0.00563799 -0.00070656 0.0266395)
(-8.85039e-06 -0.000185046 0.112808)
(-5.48067e-05 -0.000220728 0.113248)
(-3.55324e-05 -0.000100605 0.116076)
(-0.000150164 -0.00038467 0.113454)
(-0.000189011 0.000277321 0.0887099)
(0.000391638 0.000336032 0.0721624)
(-0.00223844 -0.00154182 0.0360579)
(0.00192792 0.000662468 0.0320345)
(0.000866874 0.00114735 0.0145297)
(-3.59141e-05 0.000259917 0.0883849)
(9.40931e-05 0.000267878 0.0890371)
(-0.000116086 0.000172512 0.093921)
(0.000342283 0.000494349 0.0753147)
(-0.00208507 -0.00134579 0.0388837)
(0.00283905 0.000787419 0.0323366)
(0.0027807 0.00317423 0.0188202)
(-1.95791e-05 0.00149801 0.0295118)
(-0.000119725 0.0015077 0.0298638)
(-0.00207387 0.000142992 0.0281571)
(-0.00324518 -0.00801075 0.0250277)
(0.00342194 0.00209539 0.0120743)
(4.41911e-07 1.93517e-07 0.112719)
(1.1214e-05 4.31155e-07 0.112688)
(1.13141e-05 2.51352e-07 0.11264)
(2.39239e-05 5.92901e-07 0.112588)
(1.76928e-05 -6.18411e-08 0.112537)
(3.63111e-05 5.92864e-07 0.112484)
(1.51282e-05 -1.17273e-06 0.112431)
(5.06185e-05 4.61631e-07 0.112367)
(-1.12414e-05 -3.38049e-06 0.112291)
(8.59121e-05 5.07679e-07 0.112149)
(-7.27455e-05 -7.67819e-06 0.111948)
(0.000156464 -3.96064e-06 0.112269)
(-0.000186599 -1.01635e-05 0.112812)
(0.000258931 -3.57948e-05 0.0883906)
(0.00149847 -1.89727e-05 0.0295136)
(5.20166e-07 1.09196e-05 0.112688)
(1.11068e-05 1.09954e-05 0.112663)
(1.1311e-05 1.01312e-05 0.112622)
(2.34879e-05 1.02121e-05 0.112573)
(1.76064e-05 8.043e-06 0.112523)
(3.51316e-05 9.60272e-06 0.112471)
(1.50399e-05 4.39236e-06 0.112422)
(4.83008e-05 1.1543e-05 0.11237)
(-1.1162e-05 -2.24846e-06 0.112321)
(8.09017e-05 2.43509e-05 0.112233)
(-7.62258e-05 -1.87302e-05 0.112103)
(0.000151863 6.14257e-05 0.112516)
(-0.000222469 -5.57995e-05 0.113253)
(0.000267357 9.39666e-05 0.0890432)
(0.00150827 -0.000119754 0.0298651)
(5.07159e-07 1.11333e-05 0.11264)
(1.04257e-05 1.12702e-05 0.112623)
(1.05303e-05 1.03247e-05 0.11259)
(2.1834e-05 1.07664e-05 0.112544)
(1.70806e-05 7.78307e-06 0.112495)
(3.26433e-05 9.96774e-06 0.112445)
(1.71053e-05 2.04347e-06 0.112401)
(4.38689e-05 1.0712e-05 0.112365)
(1.90563e-06 -8.30212e-06 0.112348)
(6.78877e-05 2.04167e-05 0.112312)
(-3.18192e-05 -3.25013e-05 0.112301)
(0.000114064 3.90269e-05 0.113402)
(-0.000101744 -3.65835e-05 0.116081)
(0.000170979 -0.000115861 0.093927)
(0.000143283 -0.00207425 0.028159)
(6.44766e-07 2.36873e-05 0.112589)
(1.02982e-05 2.34148e-05 0.112575)
(1.0809e-05 2.16391e-05 0.112546)
(2.0949e-05 2.09133e-05 0.112504)
(1.68051e-05 1.67366e-05 0.112453)
(2.93818e-05 1.75402e-05 0.112401)
(1.58132e-05 8.7238e-06 0.112356)
(3.78319e-05 1.70076e-05 0.112327)
(-1.34287e-06 -3.93803e-06 0.112317)
(5.66992e-05 3.31218e-05 0.112285)
(-5.07268e-05 -3.70702e-05 0.112569)
(0.000140854 0.00012836 0.114676)
(-0.000386021 -0.00015199 0.113459)
(0.000493561 0.000343314 0.0753189)
(-0.00801077 -0.00324558 0.0250284)
(2.27513e-07 1.75485e-05 0.112537)
(8.37792e-06 1.75445e-05 0.112523)
(8.02689e-06 1.6913e-05 0.112496)
(1.69318e-05 1.67278e-05 0.112454)
(1.36946e-05 1.34885e-05 0.112399)
(2.46192e-05 1.46919e-05 0.112339)
(1.65208e-05 4.76708e-06 0.112283)
(3.09964e-05 1.32594e-05 0.11224)
(1.81829e-05 -1.06266e-05 0.112195)
(3.8854e-05 2.25087e-05 0.11218)
(6.19931e-05 -6.82125e-05 0.11307)
(-5.02588e-05 0.000178482 0.11401)
(0.000276966 -0.00018968 0.0887131)
(-0.00134625 -0.00208472 0.038885)
(0.0020955 0.00342176 0.0120747)
(6.20826e-07 3.61969e-05 0.112484)
(9.66509e-06 3.50941e-05 0.112471)
(9.99308e-06 3.25612e-05 0.112446)
(1.75369e-05 2.93884e-05 0.112402)
(1.47704e-05 2.45685e-05 0.11234)
(2.06682e-05 2.07229e-05 0.112266)
(1.42788e-05 1.33546e-05 0.112189)
(2.22659e-05 1.01735e-05 0.112109)
(9.83747e-06 -1.1755e-06 0.112001)
(4.3834e-06 -2.27339e-05 0.112189)
(3.83055e-05 5.40906e-05 0.114186)
(-0.000268587 -9.35173e-05 0.112207)
(0.000336197 0.000391561 0.0721659)
(0.000787131 0.00283924 0.0323377)
(-8.43575e-07 1.50137e-05 0.11243)
(4.75839e-06 1.49563e-05 0.112422)
(2.32985e-06 1.69605e-05 0.112402)
(8.94907e-06 1.56578e-05 0.112358)
(5.02143e-06 1.62999e-05 0.112285)
(1.34038e-05 1.40536e-05 0.112191)
(5.79937e-06 5.46179e-06 0.112081)
(1.67628e-05 9.77384e-06 0.11193)
(-9.62655e-06 -1.90314e-06 0.111811)
(9.5756e-05 -2.38254e-07 0.11262)
(-8.87686e-05 9.85675e-05 0.113524)
(0.000369225 -3.01361e-05 0.0877161)
(-0.00154155 -0.00223899 0.0360589)
(0.00317405 0.00278053 0.018821)
(4.65763e-07 5.06411e-05 0.112367)
(1.15744e-05 4.83209e-05 0.112371)
(1.06651e-05 4.39001e-05 0.112366)
(1.69271e-05 3.78922e-05 0.112328)
(1.32652e-05 3.11626e-05 0.112243)
(9.99729e-06 2.23881e-05 0.112113)
(1.00082e-05 1.71286e-05 0.111935)
(1.67116e-05 1.7213e-05 0.111682)
(3.42335e-06 -4.99915e-05 0.111758)
(4.24098e-05 3.95949e-06 0.113709)
(-0.000307516 -0.000132572 0.112432)
(0.00039655 0.000402066 0.0738493)
(0.000662612 0.00192801 0.0320356)
(-3.01103e-06 -1.13444e-05 0.112291)
(-1.87518e-06 -1.12208e-05 0.112322)
(-7.97629e-06 1.82827e-06 0.11235)
(-3.57981e-06 -1.45409e-06 0.112319)
(-1.03132e-05 1.79768e-05 0.112199)
(-9.11512e-07 9.52334e-06 0.112007)
(-1.11823e-06 -9.87997e-06 0.11182)
(-5.03452e-05 2.34469e-06 0.111767)
(-2.06165e-05 -2.25623e-05 0.112592)
(-5.49039e-05 0.000290625 0.113542)
(0.000346618 -0.000232676 0.088819)
(-0.00109227 -0.00347632 0.0386706)
(0.00114781 0.000865949 0.0145279)
(5.40978e-07 8.59665e-05 0.112149)
(2.44069e-05 8.09918e-05 0.112234)
(2.03147e-05 6.78903e-05 0.112313)
(3.29067e-05 5.66997e-05 0.112287)
(2.23195e-05 3.92308e-05 0.112184)
(-2.2909e-05 3.88251e-06 0.112195)
(-7.0958e-07 9.72483e-05 0.11263)
(1.48046e-06 4.04291e-05 0.113725)
(0.000291453 -4.38628e-05 0.11356)
(-0.000565975 -0.00056536 0.11257)
(0.000469626 0.000587022 0.070584)
(-0.000706851 -0.00565909 0.0266119)
(-7.38971e-06 -7.27621e-05 0.111948)
(-1.84079e-05 -7.6182e-05 0.112103)
(-3.22678e-05 -3.17639e-05 0.112302)
(-3.63312e-05 -5.05648e-05 0.11257)
(-6.83614e-05 6.2448e-05 0.113073)
(5.5558e-05 3.88499e-05 0.11419)
(9.78441e-05 -8.72161e-05 0.113529)
(-0.000123881 -0.000305537 0.112444)
(-0.000228647 0.000355172 0.0888076)
(0.000586645 0.000471644 0.0706204)
(-0.0112504 -0.0112072 0.0329892)
(-3.85062e-06 0.000156569 0.112269)
(6.15527e-05 0.000151959 0.112516)
(3.90448e-05 0.000114095 0.113402)
(0.000128566 0.000140889 0.114676)
(0.000178713 -5.06237e-05 0.114011)
(-9.26398e-05 -0.000268157 0.112208)
(-2.93582e-05 0.000368325 0.0877176)
(0.000404828 0.000398116 0.073853)
(-0.00348621 -0.00109531 0.0386736)
(-0.005631 -0.000711443 0.0266267)
(-9.9163e-06 -0.000186548 0.112812)
(-5.55601e-05 -0.000222394 0.113253)
(-3.6396e-05 -0.0001017 0.11608)
(-0.000151621 -0.000385993 0.113459)
(-0.000189527 0.000276904 0.0887134)
(0.000391755 0.000336309 0.0721658)
(-0.00223859 -0.00154171 0.0360592)
(0.00192737 0.00066253 0.0320361)
(0.000865758 0.00114842 0.0145289)
(-3.56281e-05 0.000258996 0.08839)
(9.40856e-05 0.000267385 0.0890419)
(-0.000115902 0.000171026 0.0939263)
(0.000343392 0.000493597 0.0753189)
(-0.00208471 -0.00134631 0.038885)
(0.00283916 0.000787173 0.0323377)
(0.00278059 0.0031742 0.0188211)
(-1.94381e-05 0.0014984 0.029513)
(-0.000119915 0.00150823 0.0298649)
(-0.00207402 0.000143114 0.0281581)
(-0.00324542 -0.00801087 0.0250285)
(0.0034218 0.0020955 0.0120747)
(-2.19231e-07 -4.57255e-07 0.112711)
(9.42055e-06 -1.62679e-07 0.11268)
(8.09267e-06 -3.19937e-07 0.112632)
(1.95922e-05 3.14589e-08 0.112582)
(1.22758e-05 -6.04611e-07 0.112531)
(3.04773e-05 1.51421e-07 0.11248)
(8.01092e-06 -1.59107e-06 0.112427)
(4.53487e-05 2.72743e-07 0.112365)
(-1.89243e-05 -3.71506e-06 0.112292)
(8.28253e-05 6.52489e-07 0.112151)
(-7.66068e-05 -8.70507e-06 0.11195)
(0.000152386 -3.86324e-06 0.112273)
(-0.000187771 -1.08297e-05 0.112815)
(0.000257976 -3.5493e-05 0.0883942)
(0.00149896 -1.90526e-05 0.0295141)
(-6.86329e-08 9.07206e-06 0.11268)
(9.1784e-06 9.00591e-06 0.112656)
(8.10317e-06 8.19114e-06 0.112615)
(1.9193e-05 8.33708e-06 0.112567)
(1.23085e-05 6.29375e-06 0.112517)
(2.94365e-05 8.02702e-06 0.112467)
(8.14818e-06 2.89921e-06 0.112419)
(4.30359e-05 1.06986e-05 0.112368)
(-1.8553e-05 -4.06377e-06 0.112322)
(7.71423e-05 2.40972e-05 0.112236)
(-8.00545e-05 -2.05084e-05 0.112104)
(0.000148111 6.10332e-05 0.112519)
(-0.000223522 -5.63858e-05 0.113256)
(0.000266435 9.39993e-05 0.0890467)
(0.00150846 -0.000119999 0.0298657)
(-4.56288e-08 7.94048e-06 0.112633)
(8.53969e-06 8.06677e-06 0.112616)
(7.42296e-06 7.1963e-06 0.112583)
(1.76931e-05 7.81313e-06 0.112538)
(1.19634e-05 4.99121e-06 0.112489)
(2.7066e-05 7.49948e-06 0.112442)
(1.07204e-05 -2.50826e-07 0.112398)
(3.82704e-05 9.2458e-06 0.112363)
(-5.1761e-06 -1.02956e-05 0.112349)
(6.47991e-05 1.98166e-05 0.112313)
(-3.57908e-05 -3.39535e-05 0.112303)
(0.00011115 3.92063e-05 0.113406)
(-0.000102461 -3.75647e-05 0.116084)
(0.000169743 -0.000115782 0.0939309)
(0.000143628 -0.00207432 0.0281596)
(6.57538e-08 1.93365e-05 0.112582)
(8.43427e-06 1.91097e-05 0.112569)
(7.85084e-06 1.74779e-05 0.11254)
(1.69906e-05 1.6961e-05 0.112499)
(1.19929e-05 1.30265e-05 0.112448)
(2.4186e-05 1.42258e-05 0.112398)
(9.92532e-06 5.7165e-06 0.112354)
(3.28655e-05 1.47955e-05 0.112325)
(-7.85732e-06 -6.56795e-06 0.112318)
(5.34545e-05 3.28208e-05 0.112287)
(-5.3741e-05 -4.00273e-05 0.112571)
(0.00013754 0.000128947 0.114679)
(-0.000387043 -0.00015344 0.113463)
(0.000492988 0.000344067 0.0753221)
(-0.00801082 -0.00324575 0.025029)
(-2.79443e-07 1.21211e-05 0.112531)
(6.68158e-06 1.22344e-05 0.112517)
(5.27222e-06 1.17752e-05 0.112491)
(1.32416e-05 1.19066e-05 0.11245)
(9.2159e-06 8.98656e-06 0.112395)
(1.97479e-05 1.06234e-05 0.112337)
(1.12423e-05 1.13092e-06 0.112281)
(2.57833e-05 1.04533e-05 0.11224)
(1.30195e-05 -1.29764e-05 0.112195)
(3.54474e-05 2.18773e-05 0.112181)
(5.88972e-05 -7.02476e-05 0.113073)
(-5.16714e-05 0.000178503 0.114013)
(0.000276639 -0.000190191 0.0887157)
(-0.0013467 -0.00208439 0.0388859)
(0.00209562 0.00342153 0.012075)
(1.56694e-07 3.03805e-05 0.11248)
(8.0905e-06 2.93988e-05 0.112468)
(7.52342e-06 2.69925e-05 0.112442)
(1.42133e-05 2.42039e-05 0.112399)
(1.07107e-05 1.96983e-05 0.112337)
(1.63406e-05 1.63886e-05 0.112265)
(9.65909e-06 9.81054e-06 0.112188)
(1.85911e-05 6.69104e-06 0.11211)
(5.50454e-06 -2.99256e-06 0.112002)
(1.46787e-06 -2.46839e-05 0.112192)
(3.59001e-05 5.36529e-05 0.114189)
(-0.000270267 -9.35429e-05 0.112211)
(0.000336317 0.000391451 0.0721683)
(0.000787079 0.00283917 0.0323385)
(-1.21013e-06 7.85272e-06 0.112427)
(3.30916e-06 8.04168e-06 0.112419)
(8.43758e-08 1.05612e-05 0.112399)
(5.95463e-06 9.76125e-06 0.112355)
(1.39135e-06 1.09968e-05 0.112283)
(9.85931e-06 9.40325e-06 0.11219)
(1.36962e-06 1.14366e-06 0.112081)
(1.32814e-05 6.85905e-06 0.111931)
(-1.32428e-05 -4.50901e-06 0.111812)
(9.37443e-05 -1.66682e-06 0.112623)
(-8.99069e-05 9.71804e-05 0.113527)
(0.000368814 -3.04686e-05 0.0877188)
(-0.00154166 -0.00223891 0.0360599)
(0.00317412 0.00278088 0.0188215)
(2.77559e-07 4.54052e-05 0.112365)
(1.07607e-05 4.31078e-05 0.112368)
(9.21167e-06 3.8313e-05 0.112364)
(1.46964e-05 3.29228e-05 0.112327)
(1.04475e-05 2.59781e-05 0.112243)
(6.65349e-06 1.86816e-05 0.112114)
(7.11031e-06 1.35505e-05 0.111936)
(1.47502e-05 1.51279e-05 0.111685)
(6.10225e-07 -5.30338e-05 0.111761)
(4.07208e-05 2.92433e-06 0.113712)
(-0.000308982 -0.000133971 0.112435)
(0.000396132 0.000401834 0.0738519)
(0.000662574 0.0019277 0.0320367)
(-3.3401e-06 -1.90123e-05 0.112291)
(-3.66905e-06 -1.85923e-05 0.112323)
(-9.97525e-06 -5.25131e-06 0.11235)
(-6.17796e-06 -7.92932e-06 0.11232)
(-1.26885e-05 1.2931e-05 0.112199)
(-2.87778e-06 5.40444e-06 0.112008)
(-3.96814e-06 -1.32236e-05 0.111822)
(-5.32628e-05 1.15319e-07 0.11177)
(-2.30696e-05 -2.34098e-05 0.112595)
(-5.54714e-05 0.000288284 0.113545)
(0.000345831 -0.000232468 0.0888208)
(-0.00109289 -0.00347668 0.0386714)
(0.00114802 0.000865827 0.0145283)
(6.8911e-07 8.28794e-05 0.11215)
(2.41715e-05 7.72329e-05 0.112236)
(1.97484e-05 6.48071e-05 0.112315)
(3.27017e-05 5.34295e-05 0.112289)
(2.18336e-05 3.56549e-05 0.112185)
(-2.46043e-05 1.13201e-06 0.112198)
(-1.72134e-06 9.45972e-05 0.112633)
(2.25996e-06 3.98035e-05 0.113729)
(0.000288767 -5.16097e-05 0.113561)
(-0.0005681 -0.000568243 0.112573)
(0.000468596 0.000588737 0.070586)
(-0.000708557 -0.00565942 0.0266129)
(-8.41409e-06 -7.66213e-05 0.11195)
(-2.01587e-05 -7.99997e-05 0.112105)
(-3.37523e-05 -3.57416e-05 0.112304)
(-3.94416e-05 -5.36034e-05 0.112572)
(-7.0261e-05 5.92763e-05 0.113076)
(5.44919e-05 3.62002e-05 0.114193)
(9.73263e-05 -8.92342e-05 0.113531)
(-0.000131176 -0.000308806 0.112446)
(-0.000231886 0.000348149 0.0888108)
(0.000584725 0.00046858 0.0706203)
(-0.0112375 -0.0112212 0.0329899)
(-3.74111e-06 0.00015249 0.112273)
(6.11697e-05 0.000148195 0.11252)
(3.9219e-05 0.000111163 0.113406)
(0.00012917 0.000137601 0.11468)
(0.000178662 -5.18966e-05 0.114014)
(-9.30961e-05 -0.000270004 0.112212)
(-3.03857e-05 0.000368394 0.0877195)
(0.00040245 0.00039635 0.0738547)
(-0.00348655 -0.00109325 0.0386749)
(-0.00563031 -0.000712539 0.0266282)
(-1.05843e-05 -0.000187729 0.112815)
(-5.61355e-05 -0.000223468 0.113256)
(-3.7371e-05 -0.000102431 0.116084)
(-0.00015306 -0.000387036 0.113463)
(-0.000190033 0.000276552 0.0887159)
(0.000391608 0.000336419 0.0721681)
(-0.00223873 -0.00154177 0.0360601)
(0.00192732 0.000662587 0.0320369)
(0.000865153 0.00114904 0.0145292)
(-3.53286e-05 0.000258039 0.0883936)
(9.41285e-05 0.000266445 0.0890453)
(-0.000115816 0.000169761 0.0939302)
(0.000344146 0.000492992 0.075322)
(-0.00208438 -0.00134676 0.0388859)
(0.00283911 0.00078712 0.0323385)
(0.00278094 0.00317428 0.0188216)
(-1.95273e-05 0.0014989 0.0295135)
(-0.000120168 0.00150841 0.0298654)
(-0.00207408 0.00014345 0.0281588)
(-0.00324559 -0.00801092 0.0250291)
(0.00342158 0.00209562 0.012075)
(-6.89848e-07 -8.90043e-07 0.112705)
(7.71454e-06 -5.9678e-07 0.112674)
(5.58126e-06 -7.44099e-07 0.112627)
(1.61037e-05 -3.89246e-07 0.112577)
(8.04452e-06 -1.05231e-06 0.112526)
(2.5838e-05 -2.11976e-07 0.112477)
(1.76128e-06 -1.98351e-06 0.112424)
(4.19441e-05 1.27303e-07 0.112363)
(-2.4732e-05 -4.11017e-06 0.112292)
(7.99721e-05 9.41532e-07 0.112152)
(-7.96929e-05 -9.33227e-06 0.11195)
(0.000148871 -3.562e-06 0.112276)
(-0.000188828 -1.16508e-05 0.112817)
(0.000256828 -3.52615e-05 0.0883969)
(0.00149934 -1.90821e-05 0.0295145)
(-4.96061e-07 7.29555e-06 0.112674)
(7.56024e-06 7.28663e-06 0.11265)
(5.6307e-06 6.56712e-06 0.112609)
(1.56925e-05 6.70824e-06 0.112562)
(8.13343e-06 4.78254e-06 0.112513)
(2.48576e-05 6.55649e-06 0.112464)
(2.13744e-06 1.52227e-06 0.112416)
(3.95709e-05 9.84108e-06 0.112366)
(-2.39566e-05 -5.84063e-06 0.112322)
(7.40582e-05 2.38321e-05 0.112237)
(-8.30749e-05 -2.19501e-05 0.112104)
(0.0001444 6.07947e-05 0.112522)
(-0.000224648 -5.67264e-05 0.113259)
(0.000265792 9.40743e-05 0.0890495)
(0.0015086 -0.000120072 0.0298661)
(-4.60183e-07 5.48636e-06 0.112627)
(6.98624e-06 5.59755e-06 0.112611)
(5.00168e-06 4.7492e-06 0.112577)
(1.43175e-05 5.45671e-06 0.112534)
(7.8905e-06 2.76395e-06 0.112485)
(2.25617e-05 5.47671e-06 0.112439)
(5.08479e-06 -2.03569e-06 0.112395)
(3.44585e-05 8.1907e-06 0.112361)
(-1.03813e-05 -1.20451e-05 0.112349)
(6.22468e-05 1.93862e-05 0.112315)
(-3.88348e-05 -3.54602e-05 0.112304)
(0.000108715 3.92141e-05 0.113409)
(-0.000103105 -3.79668e-05 0.116086)
(0.000168476 -0.000115706 0.093934)
(0.000143661 -0.00207434 0.0281602)
(-3.853e-07 1.58384e-05 0.112578)
(6.82346e-06 1.56041e-05 0.112564)
(5.49083e-06 1.40857e-05 0.112536)
(1.37098e-05 1.36894e-05 0.112495)
(8.15183e-06 9.98689e-06 0.112445)
(2.00513e-05 1.14953e-05 0.112396)
(4.8832e-06 3.2692e-06 0.112352)
(2.94326e-05 1.34723e-05 0.112324)
(-1.26265e-05 -9.23215e-06 0.112318)
(5.05898e-05 3.25881e-05 0.112289)
(-5.62985e-05 -4.25769e-05 0.112572)
(0.000134899 0.000129379 0.114682)
(-0.000388036 -0.000154773 0.113466)
(0.000492156 0.000344491 0.0753245)
(-0.00801085 -0.00324599 0.0250295)
(-6.91239e-07 7.8897e-06 0.112526)
(5.23409e-06 8.0491e-06 0.112513)
(3.08497e-06 7.68421e-06 0.112487)
(1.02183e-05 8.05875e-06 0.112446)
(5.68454e-06 5.44091e-06 0.112392)
(1.5839e-05 7.40069e-06 0.112335)
(7.01634e-06 -1.73725e-06 0.112279)
(2.17621e-05 8.69977e-06 0.112239)
(8.9125e-06 -1.55326e-05 0.112196)
(3.30151e-05 2.13934e-05 0.112183)
(5.65028e-05 -7.19397e-05 0.113075)
(-5.29269e-05 0.000178421 0.114016)
(0.00027596 -0.000190775 0.0887175)
(-0.00134713 -0.00208443 0.0388867)
(0.00209569 0.00342148 0.0120752)
(-2.46449e-07 2.57822e-05 0.112477)
(6.62004e-06 2.48268e-05 0.112465)
(5.50077e-06 2.25016e-05 0.112439)
(1.14772e-05 2.00571e-05 0.112397)
(7.49459e-06 1.57754e-05 0.112335)
(1.28848e-05 1.2912e-05 0.112264)
(6.09091e-06 7.0821e-06 0.112188)
(1.54768e-05 4.096e-06 0.11211)
(2.00623e-06 -4.40955e-06 0.112002)
(-5.2892e-07 -2.62367e-05 0.112194)
(3.36944e-05 5.31842e-05 0.114191)
(-0.000271767 -9.36886e-05 0.112214)
(0.000336157 0.000391115 0.0721699)
(0.000786902 0.00283956 0.032339)
(-1.52545e-06 1.55642e-06 0.112424)
(1.96808e-06 2.01787e-06 0.112416)
(-1.67952e-06 4.91947e-06 0.112396)
(3.4959e-06 4.73436e-06 0.112353)
(-1.4715e-06 6.81565e-06 0.112281)
(7.14573e-06 5.7919e-06 0.112189)
(-1.97278e-06 -2.13475e-06 0.112081)
(1.05758e-05 4.57858e-06 0.111932)
(-1.6307e-05 -6.45078e-06 0.111814)
(9.22684e-05 -2.90233e-06 0.112625)
(-9.08812e-05 9.59697e-05 0.113529)
(0.000368165 -3.07511e-05 0.0877209)
(-0.00154158 -0.00223903 0.0360602)
(0.00317411 0.00278095 0.0188216)
(1.43932e-07 4.20248e-05 0.112363)
(9.94366e-06 3.96968e-05 0.112367)
(8.1849e-06 3.44997e-05 0.112363)
(1.34183e-05 2.95022e-05 0.112326)
(8.64407e-06 2.19247e-05 0.112242)
(4.10504e-06 1.5611e-05 0.112114)
(4.87149e-06 1.073e-05 0.111937)
(1.29637e-05 1.32069e-05 0.111686)
(-1.83658e-06 -5.55505e-05 0.111762)
(3.95031e-05 2.20983e-06 0.113715)
(-0.000310344 -0.000135391 0.112437)
(0.000395625 0.000401642 0.0738537)
(0.000662665 0.00192775 0.032037)
(-3.73333e-06 -2.48033e-05 0.112292)
(-5.43586e-06 -2.39608e-05 0.112323)
(-1.17453e-05 -1.04515e-05 0.11235)
(-8.88267e-06 -1.26563e-05 0.112321)
(-1.5202e-05 8.86236e-06 0.112199)
(-4.36172e-06 2.07934e-06 0.112008)
(-6.19332e-06 -1.62347e-05 0.111823)
(-5.57064e-05 -2.1124e-06 0.111772)
(-2.48606e-05 -2.48474e-05 0.112597)
(-5.57241e-05 0.000286928 0.113548)
(0.000345139 -0.000233338 0.0888224)
(-0.00109304 -0.00347692 0.0386721)
(0.0011481 0.00086571 0.0145287)
(1.0161e-06 8.00465e-05 0.112152)
(2.39352e-05 7.41341e-05 0.112238)
(1.93547e-05 6.22635e-05 0.112316)
(3.25522e-05 5.05844e-05 0.112291)
(2.14334e-05 3.31419e-05 0.112187)
(-2.61256e-05 -7.43521e-07 0.1122)
(-2.95987e-06 9.26826e-05 0.112635)
(1.97596e-06 3.93025e-05 0.113732)
(0.000287352 -5.43366e-05 0.113562)
(-0.000568954 -0.000567792 0.112576)
(0.000468901 0.000586844 0.0705864)
(-0.000708073 -0.00565926 0.0266133)
(-9.06579e-06 -7.97028e-05 0.11195)
(-2.1601e-05 -8.3007e-05 0.112105)
(-3.52437e-05 -3.88047e-05 0.112305)
(-4.21211e-05 -5.6211e-05 0.112574)
(-7.18273e-05 5.67176e-05 0.113078)
(5.3517e-05 3.3856e-05 0.114195)
(9.63055e-05 -9.05352e-05 0.113534)
(-0.00013453 -0.000310349 0.112447)
(-0.000232232 0.000346204 0.088817)
(0.000586674 0.000467657 0.070622)
(-0.0112463 -0.0112136 0.0329905)
(-3.40261e-06 0.000148946 0.112276)
(6.09369e-05 0.00014448 0.112523)
(3.91996e-05 0.0001087 0.113409)
(0.000129532 0.000134953 0.114683)
(0.000178544 -5.30699e-05 0.114017)
(-9.34228e-05 -0.000271669 0.112215)
(-3.0876e-05 0.00036805 0.0877216)
(0.000401722 0.000395581 0.0738563)
(-0.00348662 -0.00109291 0.0386753)
(-0.0056303 -0.000713399 0.0266294)
(-1.1418e-05 -0.00018881 0.112817)
(-5.64771e-05 -0.000224649 0.113258)
(-3.77655e-05 -0.000103086 0.116086)
(-0.000154414 -0.00038804 0.113466)
(-0.000190619 0.000275922 0.0887177)
(0.000391246 0.000336247 0.0721697)
(-0.002239 -0.0015417 0.0360603)
(0.00192751 0.00066273 0.0320369)
(0.000864931 0.00114927 0.0145296)
(-3.51096e-05 0.000256893 0.0883964)
(9.42177e-05 0.000265791 0.0890481)
(-0.000115723 0.000168504 0.0939333)
(0.000344579 0.000492167 0.0753244)
(-0.00208442 -0.00134718 0.0388867)
(0.00283951 0.000786939 0.032339)
(0.00278099 0.00317427 0.0188216)
(-1.95687e-05 0.00149929 0.0295139)
(-0.000120248 0.00150857 0.0298658)
(-0.00207411 0.000143518 0.0281593)
(-0.00324582 -0.00801095 0.0250296)
(0.00342153 0.00209568 0.0120752)
(-9.77236e-07 -1.12548e-06 0.112701)
(5.93304e-06 -9.25898e-07 0.112669)
(3.52112e-06 -1.06712e-06 0.112623)
(1.30935e-05 -7.2337e-07 0.112573)
(4.59773e-06 -1.41428e-06 0.112523)
(2.20558e-05 -4.73578e-07 0.112474)
(-3.691e-06 -2.28553e-06 0.112423)
(3.97098e-05 1.37477e-07 0.112362)
(-2.90915e-05 -4.37987e-06 0.112292)
(7.71865e-05 1.04999e-06 0.112154)
(-8.21258e-05 -9.99912e-06 0.11195)
(0.000146484 -3.29491e-06 0.112278)
(-0.000189373 -1.18248e-05 0.112819)
(0.0002557 -3.50606e-05 0.0883994)
(0.00149929 -1.90266e-05 0.0295149)
(-8.40364e-07 5.38601e-06 0.112669)
(6.06617e-06 5.58708e-06 0.112645)
(3.66352e-06 4.98049e-06 0.112605)
(1.27308e-05 5.15203e-06 0.112558)
(4.77347e-06 3.37076e-06 0.112509)
(2.11162e-05 5.19703e-06 0.112461)
(-3.03752e-06 1.14998e-07 0.112414)
(3.73591e-05 8.96564e-06 0.112365)
(-2.80979e-05 -7.33506e-06 0.112322)
(7.09717e-05 2.35397e-05 0.112238)
(-8.5319e-05 -2.28136e-05 0.112105)
(0.000142574 6.06271e-05 0.112524)
(-0.000225234 -5.69524e-05 0.113261)
(0.00026468 9.40486e-05 0.0890519)
(0.00150853 -0.000120152 0.0298667)
(-8.25466e-07 3.53704e-06 0.112623)
(5.52746e-06 3.62002e-06 0.112607)
(3.08462e-06 2.76476e-06 0.112574)
(1.1482e-05 3.53055e-06 0.11253)
(4.64026e-06 9.8132e-07 0.112482)
(1.87848e-05 3.92906e-06 0.112436)
(1.17754e-07 -3.45339e-06 0.112394)
(3.21301e-05 7.51749e-06 0.11236)
(-1.41508e-05 -1.34202e-05 0.112349)
(6.00671e-05 1.9252e-05 0.112316)
(-4.11169e-05 -3.62328e-05 0.112305)
(0.000106942 3.92373e-05 0.113411)
(-0.000103477 -3.8925e-05 0.116088)
(0.000167167 -0.000115806 0.0939366)
(0.000143434 -0.00207439 0.0281606)
(-8.01999e-07 1.28226e-05 0.112574)
(5.29455e-06 1.26643e-05 0.11256)
(3.57487e-06 1.1246e-05 0.112532)
(1.09496e-05 1.09606e-05 0.112492)
(5.17087e-06 7.52757e-06 0.112442)
(1.66766e-05 9.29154e-06 0.112393)
(5.83122e-07 1.32067e-06 0.112351)
(2.72589e-05 1.24392e-05 0.112323)
(-1.62199e-05 -1.15704e-05 0.112319)
(4.8091e-05 3.24112e-05 0.11229)
(-5.83589e-05 -4.48245e-05 0.112574)
(0.000132844 0.000129742 0.114685)
(-0.000388786 -0.000156053 0.113468)
(0.000491294 0.000344684 0.0753266)
(-0.00801089 -0.0032463 0.02503)
(-1.001e-06 4.31645e-06 0.112523)
(3.95143e-06 4.62374e-06 0.11251)
(1.37889e-06 4.38856e-06 0.112484)
(7.76288e-06 5.06523e-06 0.112443)
(2.95975e-06 2.7104e-06 0.11239)
(1.25762e-05 4.85667e-06 0.112333)
(3.22169e-06 -4.02721e-06 0.112278)
(1.9049e-05 7.28003e-06 0.112238)
(6.00713e-06 -1.80525e-05 0.112197)
(3.09347e-05 2.09705e-05 0.112184)
(5.47565e-05 -7.34467e-05 0.113076)
(-5.37628e-05 0.000178314 0.114019)
(0.000275353 -0.000191371 0.088719)
(-0.00134777 -0.00208463 0.0388876)
(0.00209584 0.00342152 0.0120755)
(-4.73451e-07 2.2146e-05 0.112474)
(5.36905e-06 2.11844e-05 0.112461)
(4.01649e-06 1.87485e-05 0.112437)
(9.28178e-06 1.66753e-05 0.112395)
(4.96311e-06 1.25418e-05 0.112333)
(9.95271e-06 9.97281e-06 0.112262)
(2.91757e-06 5.27755e-06 0.112187)
(1.30791e-05 2.49776e-06 0.11211)
(-5.85679e-07 -5.63575e-06 0.112003)
(-2.0111e-06 -2.74544e-05 0.112195)
(3.18992e-05 5.28094e-05 0.114192)
(-0.000272969 -9.39036e-05 0.112216)
(0.000335819 0.000390506 0.0721713)
(0.000786445 0.00283968 0.0323396)
(-1.88031e-06 -3.83072e-06 0.112423)
(5.67961e-07 -3.08147e-06 0.112415)