/*--------------------------------*- C++ -*----------------------------------*\
| =========                 |                                                 |
| \\      /  F ield         | OpenFOAM: The Open Source CFD Toolbox           |
|  \\    /   O peration     | Version:  2.1.1                                 |
|   \\  /    A nd           | Web:      www.OpenFOAM.org                      |
|    \\/     M anipulation  |                                                 |
\*---------------------------------------------------------------------------*/
FoamFile
{
    version     2.0;
    format      ascii;
    class       surfaceScalarField;
    location    "0.004";
    object      phi;
}
// * * * * * * * * * * * * * * * * * * * * * * * * * * * * * * * * * * * * * //

dimensions      [0 3 -1 0 0 0 0];

internalField   nonuniform List<scalar> 
29479
(
8.155e-13
6.36481e-11
1.73424e-10
-2.50263e-12
8.69114e-12
5.73284e-11
1.51812e-10
-7.04371e-12
8.20721e-11
5.00241e-11
-3.74242e-11
2.04062e-12
3.46474e-11
2.56678e-10
-3.41585e-11
-3.24784e-12
4.85019e-12
3.34045e-11
2.53144e-10
-5.46246e-11
-3.45422e-12
-7.66717e-12
3.71633e-11
2.80121e-10
-7.83025e-11
1.49534e-11
-2.01893e-11
2.73612e-11
2.97626e-10
-7.86754e-11
1.9656e-11
-4.3497e-11
3.90416e-11
3.28781e-10
2.01441e-11
-1.94501e-11
7.49484e-11
1.48247e-10
-1.59456e-11
-3.89004e-14
2.10476e-11
2.48486e-10
-1.62977e-11
7.22493e-13
-8.00872e-13
2.11648e-11
2.47637e-10
-1.6297e-11
1.58993e-12
-2.83673e-12
2.02084e-11
2.49188e-10
-1.54943e-11
3.96083e-12
-8.7946e-12
1.91862e-11
2.53604e-10
-2.71987e-11
8.20329e-12
-1.15186e-11
2.55392e-11
2.5853e-10
-3.28729e-11
1.39767e-11
-2.13939e-11
2.88839e-11
2.6495e-10
-5.7325e-11
3.21003e-11
-3.01202e-11
2.7183e-11
2.72555e-10
4.19654e-11
-1.22974e-11
5.71018e-11
1.65065e-10
-8.31743e-12
-2.18964e-13
1.08867e-11
2.48334e-10
-8.56646e-12
5.27697e-13
-1.02374e-12
1.08971e-11
2.48517e-10
-8.28558e-12
1.58787e-12
-2.91257e-12
1.08294e-11
2.48933e-10
-8.18551e-12
2.93383e-12
-7.14527e-12
1.17821e-11
2.50875e-10
-1.19985e-11
6.49489e-12
-1.03605e-11
1.5733e-11
2.50937e-10
-1.60344e-11
8.39815e-12
-1.28749e-11
2.08396e-11
2.51585e-10
-2.82789e-11
1.28614e-11
-1.20058e-11
2.95676e-11
2.51336e-10
-3.33195e-11
9.79302e-12
-1.76897e-11
3.10615e-11
2.63434e-10
-7.47819e-11
3.58396e-11
-6.40741e-11
3.70661e-11
3.41358e-10
2.00681e-11
2.83115e-11
6.92159e-11
-3.33315e-12
-1.92271e-13
6.0284e-12
2.47558e-10
-3.47158e-12
2.42951e-13
-8.01957e-13
6.08676e-12
2.47964e-10
-3.61317e-12
8.10306e-13
-1.91164e-12
6.26483e-12
2.48441e-10
-3.99068e-12
1.46029e-12
-3.92199e-12
6.94784e-12
2.49496e-10
-5.75646e-12
3.01093e-12
-6.11089e-12
8.99386e-12
2.49915e-10
-8.54548e-12
4.36235e-12
-8.80169e-12
1.23682e-11
2.5089e-10
-1.31762e-11
7.75142e-12
-1.11191e-11
1.71406e-11
2.50296e-10
-1.80434e-11
8.76361e-12
-1.20591e-11
2.20858e-11
2.51874e-10
-2.75477e-11
1.09279e-11
-1.21908e-11
2.71541e-11
2.56628e-10
-4.18104e-11
1.31304e-11
-2.6622e-11
3.0123e-11
2.74326e-10
2.36607e-11
4.72365e-11
9.5531e-11
-2.35988e-12
-2.02316e-13
4.4245e-12
2.48136e-10
-2.39711e-12
2.19613e-13
-7.23577e-13
4.48039e-12
2.48421e-10
-2.43359e-12
5.97044e-13
-1.4354e-12
4.61463e-12
2.48656e-10
-2.41628e-12
9.52594e-13
-2.46163e-12
4.86732e-12
2.49056e-10
-2.9166e-12
1.69762e-12
-3.57012e-12
5.62163e-12
2.49166e-10
-3.99454e-12
2.25205e-12
-4.90916e-12
6.93101e-12
2.49731e-10
-6.38077e-12
3.49147e-12
-6.48703e-12
9.14763e-12
2.50344e-10
-9.38025e-12
4.53382e-12
-8.65501e-12
1.19512e-11
2.52313e-10
-1.32878e-11
7.36782e-12
-1.17282e-11
1.54151e-11
2.54992e-10
-1.61043e-11
9.14683e-12
-1.51237e-11
1.79916e-11
2.593e-10
-4.42552e-11
1.93963e-11
-4.27083e-11
2.38252e-11
2.92835e-10
3.67101e-11
2.33661e-11
9.11543e-11
-1.58751e-12
-1.94849e-13
3.43035e-12
2.48347e-10
-1.60052e-12
1.96384e-13
-6.46988e-13
3.4729e-12
2.48578e-10
-1.6299e-12
4.76215e-13
-1.17354e-12
3.57304e-12
2.48754e-10
-1.63667e-12
7.08854e-13
-1.84117e-12
3.72409e-12
2.49045e-10
-1.80015e-12
1.15534e-12
-2.53604e-12
4.07058e-12
2.4911e-10
-2.12157e-12
1.4239e-12
-3.30959e-12
4.5791e-12
2.49428e-10
-2.86549e-12
2.04701e-12
-4.23082e-12
5.41501e-12
2.49642e-10
-3.96846e-12
2.56442e-12
-5.77831e-12
6.51039e-12
2.50807e-10
-6.05332e-12
4.18178e-12
-8.77554e-12
8.20971e-12
2.53259e-10
-9.24688e-12
7.29759e-12
-1.59082e-11
1.07089e-11
2.59887e-10
-1.18628e-11
1.34179e-11
-2.47197e-11
1.38592e-11
2.64598e-10
-3.37541e-11
2.39663e-11
-4.47384e-11
4.03978e-11
2.59474e-10
-1.34456e-12
-1.87093e-13
2.7818e-12
2.48745e-10
-1.34018e-12
1.79996e-13
-5.94451e-13
2.81204e-12
2.48942e-10
-1.34806e-12
4.04132e-13
-1.03659e-12
2.88116e-12
2.49099e-10
-1.33167e-12
5.96367e-13
-1.55127e-12
2.97627e-12
2.4931e-10
-1.38897e-12
9.06623e-13
-2.09162e-12
3.17428e-12
2.49399e-10
-1.48857e-12
1.1172e-12
-2.68835e-12
3.44071e-12
2.49619e-10
-1.76856e-12
1.52448e-12
-3.39376e-12
3.86166e-12
2.49776e-10
-2.13682e-12
1.89048e-12
-4.51027e-12
4.3553e-12
2.50414e-10
-3.04593e-12
2.9666e-12
-7.03219e-12
5.27626e-12
2.51978e-10
-4.90429e-12
5.35582e-12
-1.31833e-11
7.0188e-12
2.56521e-10
-1.04734e-11
1.09678e-11
-2.36556e-11
1.09797e-11
2.64872e-10
-2.85975e-11
2.19016e-11
-3.63944e-11
1.9691e-11
2.77954e-10
-2.32312e-11
5.0908e-11
-4.96753e-11
2.43212e-11
2.62092e-10
-1.02981e-12
-1.76474e-13
2.23435e-12
2.48969e-10
-1.02427e-12
1.642e-13
-5.50646e-13
2.25752e-12
2.49153e-10
-1.02988e-12
3.5651e-13
-9.42951e-13
2.31032e-12
2.49306e-10
-1.02781e-12
5.26356e-13
-1.3826e-12
2.38367e-12
2.495e-10
-1.05035e-12
7.74629e-13
-1.85083e-12
2.51477e-12
2.49611e-10
-1.08677e-12
9.7207e-13
-2.38637e-12
2.68069e-12
2.4982e-10
-1.18687e-12
1.31097e-12
-3.02657e-12
2.94409e-12
2.49958e-10
-1.31779e-12
1.64463e-12
-3.96594e-12
3.28631e-12
2.50353e-10
-1.57461e-12
2.43911e-12
-5.77954e-12
3.83262e-12
2.51093e-10
-2.33048e-12
4.08359e-12
-1.01856e-11
5.01138e-12
2.5354e-10
-5.27739e-12
8.31876e-12
-1.94667e-11
7.75808e-12
2.5941e-10
-1.20733e-11
1.53014e-11
-2.83802e-11
1.2814e-11
2.65193e-10
-2.75133e-11
2.64729e-11
-3.12124e-11
2.03052e-11
2.63533e-10
6.58124e-11
7.92975e-12
7.96696e-11
-8.56811e-13
-1.67442e-13
1.79838e-12
2.49225e-10
-8.4901e-13
1.53061e-13
-5.1807e-13
1.81476e-12
2.49399e-10
-8.5036e-13
3.23504e-13
-8.79173e-13
1.85447e-12
2.49551e-10
-8.4873e-13
4.81798e-13
-1.27459e-12
1.91136e-12
2.4973e-10
-8.6112e-13
6.9235e-13
-1.69769e-12
2.00447e-12
2.49861e-10
-8.84024e-13
8.7875e-13
-2.18491e-12
2.12208e-12
2.50068e-10
-9.4236e-13
1.16932e-12
-2.77056e-12
2.30389e-12
2.50239e-10
-1.02754e-12
1.47443e-12
-3.57855e-12
2.56336e-12
2.50568e-10
-1.22665e-12
2.07462e-12
-4.90598e-12
2.99661e-12
2.51061e-10
-1.73127e-12
3.13421e-12
-7.80882e-12
3.83391e-12
2.52578e-10
-3.6063e-12
5.83382e-12
-1.42585e-11
5.92562e-12
2.56264e-10
-9.65129e-12
1.01887e-11
-2.23499e-11
1.02135e-11
2.62891e-10
-2.36756e-11
1.75831e-11
-2.55532e-11
1.89789e-11
2.66626e-10
-4.05928e-11
3.01638e-11
-5.55549e-11
3.073e-11
3.02714e-10
-6.62933e-13
-1.60814e-13
1.4077e-12
2.49413e-10
-6.55368e-13
1.44474e-13
-4.91628e-13
1.42044e-12
2.49582e-10
-6.56186e-13
2.99333e-13
-8.31526e-13
1.44961e-12
2.49738e-10
-6.54339e-13
4.50385e-13
-1.1996e-12
1.49306e-12
2.4991e-10
-6.59914e-13
6.40193e-13
-1.59475e-12
1.56048e-12
2.50054e-10
-6.67943e-13
8.18144e-13
-2.04814e-12
1.64773e-12
2.5025e-10
-6.88462e-13
1.07792e-12
-2.58655e-12
1.77505e-12
2.50422e-10
-7.1188e-13
1.35855e-12
-3.30598e-12
1.95673e-12
2.50702e-10
-7.63534e-13
1.86544e-12
-4.34493e-12
2.25481e-12
2.50988e-10
-9.1936e-13
2.60412e-12
-6.27146e-12
2.80907e-12
2.51777e-10
-1.6226e-12
4.40262e-12
-1.03761e-11
4.1027e-12
2.53518e-10
-4.5129e-12
7.68959e-12
-1.79739e-11
7.17845e-12
2.5809e-10
-1.23968e-11
1.31451e-11
-2.323e-11
1.34113e-11
2.6186e-10
-3.44017e-11
1.52945e-11
-4.11429e-11
3.76338e-11
2.69753e-10
-5.2114e-13
-1.55135e-13
1.06319e-12
2.49609e-10
-5.15146e-13
1.36731e-13
-4.71648e-13
1.07262e-12
2.49777e-10
-5.13262e-13
2.83038e-13
-7.96205e-13
1.09434e-12
2.49932e-10
-5.11157e-13
4.26097e-13
-1.14333e-12
1.12578e-12
2.50102e-10
-5.21623e-13
5.97394e-13
-1.51629e-12
1.17597e-12
2.50264e-10
-5.36286e-13
7.64823e-13
-1.94026e-12
1.2421e-12
2.50469e-10
-5.58332e-13
9.96669e-13
-2.43223e-12
1.33123e-12
2.50662e-10
-5.90539e-13
1.23905e-12
-3.06689e-12
1.45937e-12
2.50959e-10
-6.50191e-13
1.65852e-12
-3.91348e-12
1.65578e-12
2.51249e-10
-7.8141e-13
2.18406e-12
-5.28501e-12
2.01972e-12
2.51862e-10
-1.18961e-12
3.39033e-12
-7.95229e-12
2.73112e-12
2.53016e-10
-2.82999e-12
5.58964e-12
-1.37688e-11
4.70122e-12
2.56418e-10
-8.31053e-12
1.06436e-11
-2.09885e-11
8.42596e-12
2.61626e-10
-2.51476e-11
1.98071e-11
-3.52737e-11
1.85068e-11
2.75021e-10
-1.48619e-11
8.5614e-11
2.13949e-11
1.30535e-10
-3.72566e-13
-1.50481e-13
7.40266e-13
2.49781e-10
-3.68562e-13
1.31449e-13
-4.57204e-13
7.48235e-13
2.49946e-10
-3.66032e-13
2.7031e-13
-7.70267e-13
7.63009e-13
2.50102e-10
-3.67998e-13
4.06501e-13
-1.10422e-12
7.85562e-13
2.5028e-10
-3.74085e-13
5.66008e-13
-1.46331e-12
8.17392e-13
2.50454e-10
-3.78919e-13
7.25925e-13
-1.86928e-12
8.60105e-13
2.50662e-10
-3.89939e-13
9.43557e-13
-2.33133e-12
9.17848e-13
2.50859e-10
-4.05838e-13
1.15459e-12
-2.91424e-12
9.97935e-13
2.51167e-10
-4.22658e-13
1.52178e-12
-3.64031e-12
1.10159e-12
2.51439e-10
-4.75492e-13
1.89042e-12
-4.73423e-12
1.2794e-12
2.5204e-10
-5.71823e-13
2.79977e-12
-6.52276e-12
1.50419e-12
2.52784e-10
-1.20972e-12
4.0641e-12
-1.09892e-11
2.10275e-12
2.56037e-10
-2.84761e-12
8.32358e-12
-1.89298e-11
2.02619e-12
2.62131e-10
-6.56749e-12
1.38994e-11
-2.55949e-11
-1.8426e-12
2.73178e-10
-3.72668e-13
6.26921e-11
-1.9218e-12
2.05065e-10
-2.46632e-13
-1.465e-13
4.39969e-13
2.49957e-10
-2.44999e-13
1.26368e-13
-4.46562e-13
4.44181e-13
2.50121e-10
-2.46859e-13
2.586e-13
-7.52946e-13
4.52325e-13
2.50288e-10
-2.49025e-13
3.89203e-13
-1.07837e-12
4.65771e-13
2.50472e-10
-2.54128e-13
5.44016e-13
-1.42778e-12
4.84838e-13
2.50653e-10
-2.62174e-13
6.94694e-13
-1.82127e-12
5.11273e-13
2.50877e-10
-2.7946e-13
8.97237e-13
-2.26324e-12
5.45884e-13
2.51099e-10
-3.07512e-13
1.08361e-12
-2.81581e-12
5.93658e-13
2.51446e-10
-3.49583e-13
1.41145e-12
-3.47698e-12
6.53506e-13
2.51761e-10
-4.44541e-13
1.68378e-12
-4.4681e-12
7.46628e-13
2.52482e-10
-6.06831e-13
2.4496e-12
-6.03647e-12
8.38522e-13
2.53354e-10
-1.00007e-12
3.43624e-12
-1.05762e-11
9.56464e-13
2.57227e-10
-9.52248e-13
8.12367e-12
-2.06347e-11
1.07407e-13
2.64132e-10
3.30217e-12
1.61615e-11
-3.62819e-11
-2.86471e-12
2.73557e-10
1.3421e-11
4.44809e-11
-7.46419e-11
-1.05193e-11
2.64022e-10
-1.19629e-13
-1.44181e-13
1.41793e-13
2.50123e-10
-1.19717e-13
1.22661e-13
-4.40854e-13
1.46963e-13
2.5029e-10
-1.19786e-13
2.51595e-13
-7.43111e-13
1.4902e-13
2.50462e-10
-1.19838e-13
3.79366e-13
-1.06537e-12
1.52647e-13
2.50653e-10
-1.21004e-13
5.30225e-13
-1.4103e-12
1.58379e-13
2.50842e-10
-1.25401e-13
6.7429e-13
-1.79959e-12
1.66178e-13
2.51084e-10
-1.31542e-13
8.71282e-13
-2.23516e-12
1.76408e-13
2.51319e-10
-1.44273e-13
1.04693e-12
-2.78008e-12
1.89156e-13
2.51688e-10
-1.65034e-13
1.36091e-12
-3.42419e-12
2.03075e-13
2.52025e-10
-2.1286e-13
1.60085e-12
-4.4049e-12
2.24101e-13
2.52793e-10
-3.05073e-13
2.34929e-12
-5.98588e-12
2.39479e-13
2.53711e-10
-5.94976e-13
3.2822e-12
-1.07501e-11
2.57473e-13
2.57961e-10
-2.72259e-13
8.18053e-12
-2.10795e-11
-6.36513e-14
2.64585e-10
1.70358e-12
1.61938e-11
-3.45689e-11
-1.22835e-12
2.73066e-10
6.90679e-12
3.57787e-11
-5.89913e-11
-3.46399e-12
2.60576e-10
-1.39569e-10
1.89077e-12
2.3528e-11
1.14129e-10
-1.1728e-10
-3.55579e-12
5.70071e-12
1.80437e-11
9.70909e-11
-2.82867e-11
-1.41972e-12
6.21778e-12
2.34886e-11
8.52554e-12
5.25544e-10
1.01496e-09
-2.24509e-10
-2.25349e-10
-3.35262e-10
-3.37062e-10
2.34033e-11
2.34953e-11
-2.36555e-10
-2.37548e-10
-1.50737e-11
5.24117e-10
1.02009e-09
-2.17542e-10
-2.47514e-10
-3.24296e-10
-3.38672e-10
3.70536e-11
3.13855e-11
-2.29209e-10
-2.31815e-10
-1.92081e-10
5.34195e-10
1.18959e-09
-2.64126e-10
-2.96292e-10
-3.35707e-10
-3.44117e-10
4.38123e-11
-1.79772e-11
-1.80446e-10
-1.51929e-10
7.66555e-11
4.96334e-10
9.59716e-10
-3.01686e-10
-2.3227e-10
-3.45991e-10
-2.96584e-10
1.03906e-11
5.1972e-11
-1.24697e-10
-1.20481e-10
-1.55215e-11
-1.60939e-10
-1.88976e-10
-2.63893e-10
1.24273e-11
-3.96551e-12
5.64483e-11
2.75637e-10
-1.02933e-10
6.77344e-13
-9.50723e-12
3.36916e-11
7.80709e-11
-2.80644e-12
3.15696e-10
1.27921e-09
-2.33032e-10
-2.35637e-10
-2.98271e-10
-2.99822e-10
-1.9455e-11
3.15452e-10
1.30149e-09
-2.35455e-10
-2.46113e-10
-2.95396e-10
-2.99215e-10
-1.129e-10
3.3697e-10
1.38898e-09
-2.50951e-10
-2.59049e-10
-2.94303e-10
-2.94005e-10
-2.14963e-10
3.6922e-10
1.37709e-09
-2.7893e-10
-2.57551e-10
-3.15582e-10
-2.95859e-10
-2.92218e-10
5.02797e-10
1.11244e-09
-2.62761e-10
-2.18411e-10
-3.30467e-10
-2.99699e-10
-5.19998e-11
1.81967e-11
-2.06839e-10
-1.86001e-10
8.88198e-11
5.50664e-10
9.1371e-10
-2.69931e-10
-2.11563e-10
-3.46434e-10
-2.95315e-10
6.59276e-12
7.76547e-11
-2.1666e-10
-1.84038e-10
-1.71294e-11
-1.92628e-10
-1.95965e-10
-2.46908e-10
-1.15906e-11
-1.4729e-11
9.04462e-11
2.71602e-10
-1.24791e-10
-8.98557e-12
-7.6175e-12
4.28453e-11
9.85485e-11
-1.70427e-11
2.067e-10
1.15398e-09
-2.40795e-10
-2.4183e-10
-2.72708e-10
-2.72746e-10
-4.31783e-11
2.08482e-10
1.16374e-09
-2.42857e-10
-2.45725e-10
-2.72255e-10
-2.69786e-10
-9.27412e-11
2.2241e-10
1.19903e-09
-2.48573e-10
-2.49228e-10
-2.71959e-10
-2.65149e-10
-1.49599e-10
2.30156e-10
1.25447e-09
-2.59914e-10
-2.47533e-10
-2.82967e-10
-2.68131e-10
-2.06876e-10
3.20946e-10
1.31902e-09
-2.60846e-10
-2.3916e-10
-3.00536e-10
-2.79348e-10
-2.37947e-10
3.79601e-10
1.33772e-09
-2.64912e-10
-2.40815e-10
-3.25741e-10
-3.04117e-10
-2.68006e-10
4.95427e-10
1.09768e-09
-2.40964e-10
-2.1629e-10
-3.35867e-10
-3.12733e-10
-4.57154e-11
2.17052e-11
-2.23596e-10
-2.09587e-10
9.01913e-11
5.41263e-10
9.60921e-10
-2.50283e-10
-2.33874e-10
-3.5158e-10
-3.24374e-10
7.7262e-12
7.58679e-11
-2.30514e-10
-1.95394e-10
-1.49216e-11
-1.62594e-10
-1.8044e-10
-2.84819e-10
8.82801e-13
3.56426e-12
5.76777e-11
3.12886e-10
-3.93474e-11
6.2433e-12
-2.92531e-12
3.60293e-11
-1.61804e-11
1.45412e-10
1.08031e-09
-2.41656e-10
-2.4176e-10
-2.60073e-10
-2.59412e-10
-3.48654e-11
1.47191e-10
1.08449e-09
-2.42875e-10
-2.4231e-10
-2.61183e-10
-2.58145e-10
-6.07738e-11
1.58613e-10
1.09486e-09
-2.44141e-10
-2.4233e-10
-2.61943e-10
-2.5674e-10
-9.58623e-11
1.62844e-10
1.11748e-09
-2.48153e-10
-2.42643e-10
-2.66848e-10
-2.57434e-10
-1.29214e-10
2.02654e-10
1.17455e-09
-2.50011e-10
-2.40275e-10
-2.73655e-10
-2.58965e-10
-1.60515e-10
2.21306e-10
1.24281e-09
-2.54576e-10
-2.39733e-10
-2.88592e-10
-2.70307e-10
-2.0577e-10
3.07088e-10
1.31277e-09
-2.5312e-10
-2.37212e-10
-3.02918e-10
-2.85929e-10
-2.14538e-10
3.50809e-10
1.33973e-09
-2.6006e-10
-2.46393e-10
-3.26083e-10
-3.07978e-10
-2.08562e-10
4.17122e-10
1.0694e-09
-2.40819e-10
-2.23576e-10
-3.27914e-10
-3.07296e-10
-3.39875e-11
3.19806e-11
-2.06569e-10
-1.84319e-10
7.62597e-11
3.0635e-10
9.29353e-10
-2.48355e-10
-2.2942e-10
-3.40384e-10
-3.22342e-10
6.74709e-11
5.88169e-11
-1.73509e-10
-1.29419e-10
1.219e-11
-1.03013e-10
-1.12561e-10
-6.04001e-11
4.32463e-11
9.34145e-11
-1.50589e-11
1.0968e-10
1.0552e-09
-2.4328e-10
-2.42996e-10
-2.59518e-10
-2.58656e-10
-3.1634e-11
1.11312e-10
1.05761e-09
-2.44126e-10
-2.42748e-10
-2.60714e-10
-2.57565e-10
-5.00858e-11
1.19474e-10
1.062e-09
-2.44657e-10
-2.41947e-10
-2.61679e-10
-2.56125e-10
-7.13135e-11
1.22637e-10
1.06805e-09
-2.46263e-10
-2.41353e-10
-2.63941e-10
-2.55054e-10
-9.12952e-11
1.43195e-10
1.08602e-09
-2.46677e-10
-2.39861e-10
-2.65951e-10
-2.54095e-10
-1.14871e-10
1.49108e-10
1.11072e-09
-2.48521e-10
-2.40025e-10
-2.70544e-10
-2.55854e-10
-1.39576e-10
1.84988e-10
1.17066e-09
-2.49627e-10
-2.39958e-10
-2.75983e-10
-2.58283e-10
-1.64787e-10
1.93911e-10
1.23408e-09
-2.55024e-10
-2.41436e-10
-2.88478e-10
-2.67031e-10
-2.10381e-10
2.47731e-10
1.29126e-09
-2.57314e-10
-2.39223e-10
-3.03968e-10
-2.75776e-10
-3.06604e-10
2.09085e-10
1.33101e-09
-2.72717e-10
-2.6402e-10
-3.28277e-10
-2.72514e-10
5.87215e-11
2.08003e-10
9.29461e-10
-3.22803e-10
-2.29431e-10
-3.40246e-10
-2.48621e-10
1.25761e-11
7.65969e-11
-1.12709e-10
-1.02905e-10
6.7398e-11
-1.29278e-10
-1.73368e-10
-5.93324e-11
1.80473e-11
1.00006e-10
-1.20182e-11
8.30142e-11
1.04027e-09
-2.44346e-10
-2.4389e-10
-2.57096e-10
-2.56275e-10
-2.49369e-11
8.42197e-11
1.04212e-09
-2.45101e-10
-2.43416e-10
-2.5818e-10
-2.55419e-10
-3.89378e-11
8.98004e-11
1.04545e-09
-2.45611e-10
-2.42577e-10
-2.59157e-10
-2.54426e-10
-5.57046e-11
9.30562e-11
1.04961e-09
-2.46688e-10
-2.41805e-10
-2.61054e-10
-2.53721e-10
-7.26944e-11
1.05574e-10
1.05711e-09
-2.46787e-10
-2.40309e-10
-2.6279e-10
-2.52615e-10
-9.37467e-11
1.1018e-10
1.06522e-09
-2.47637e-10
-2.39748e-10
-2.65619e-10
-2.52241e-10
-1.1947e-10
1.29113e-10
1.08742e-09
-2.47838e-10
-2.39056e-10
-2.67384e-10
-2.51546e-10
-1.61618e-10
1.326e-10
1.11848e-09
-2.50389e-10
-2.39938e-10
-2.71709e-10
-2.52986e-10
-2.47534e-10
1.61476e-10
1.2019e-09
-2.5461e-10
-2.4077e-10
-2.7974e-10
-2.54612e-10
-4.16988e-10
1.64121e-10
1.2905e-09
-2.75774e-10
-2.39099e-10
-3.03926e-10
-2.57279e-10
3.18584e-11
2.1442e-10
1.06915e-09
-3.07115e-10
-2.23463e-10
-3.27892e-10
-2.40748e-10
-3.40433e-11
-1.84507e-10
-2.06641e-10
-2.19918e-10
-2.62557e-11
-3.92618e-11
7.49213e-11
2.42371e-10
-1.04218e-11
6.43123e-11
1.03135e-09
-2.4561e-10
-2.45087e-10
-2.56166e-10
-2.55366e-10
-2.13915e-11
6.51341e-11
1.03251e-09
-2.46272e-10
-2.44523e-10
-2.57113e-10
-2.54551e-10
-3.28725e-11
6.86457e-11
1.03484e-09
-2.46765e-10
-2.43747e-10
-2.58017e-10
-2.53671e-10
-4.60987e-11
7.09892e-11
1.03817e-09
-2.47572e-10
-2.42983e-10
-2.59379e-10
-2.52948e-10
-6.0307e-11
7.8642e-11
1.04357e-09
-2.47872e-10
-2.41781e-10
-2.60707e-10
-2.52065e-10
-7.8281e-11
8.26689e-11
1.04935e-09
-2.48578e-10
-2.40881e-10
-2.62938e-10
-2.51475e-10
-9.9702e-11
9.45022e-11
1.05991e-09
-2.48717e-10
-2.39667e-10
-2.65076e-10
-2.5042e-10
-1.32689e-10
9.96152e-11
1.07299e-09
-2.49949e-10
-2.395e-10
-2.6764e-10
-2.49933e-10
-1.93966e-10
1.19353e-10
1.11836e-09
-2.5299e-10
-2.39916e-10
-2.71697e-10
-2.50361e-10
-3.51001e-10
1.39255e-10
1.2338e-09
-2.67055e-10
-2.41399e-10
-2.88468e-10
-2.5498e-10
-5.4132e-10
2.05556e-10
1.33943e-09
-3.0791e-10
-2.4632e-10
-3.26035e-10
-2.59981e-10
7.58852e-11
2.67588e-10
9.60601e-10
-3.24316e-10
-2.33814e-10
-3.51549e-10
-2.50251e-10
-1.48419e-11
9.02581e-11
-1.80275e-10
-1.62468e-10
7.74844e-12
-1.9538e-10
-2.30504e-10
-2.07224e-10
5.12242e-12
4.43362e-12
1.20349e-11
2.6152e-10
-9.03872e-12
4.98744e-11
1.02484e-09
-2.46436e-10
-2.45884e-10
-2.54894e-10
-2.54152e-10
-1.85327e-11
5.04792e-11
1.02567e-09
-2.47054e-10
-2.45292e-10
-2.55751e-10
-2.53424e-10
-2.8577e-11
5.27705e-11
1.02731e-09
-2.47556e-10
-2.44568e-10
-2.56603e-10
-2.52671e-10
-4.0297e-11
5.4598e-11
1.02998e-09
-2.48242e-10
-2.4385e-10
-2.57761e-10
-2.52017e-10
-5.36633e-11
5.94733e-11
1.03412e-09
-2.48641e-10
-2.4285e-10
-2.58882e-10
-2.51217e-10
-7.1294e-11
6.29582e-11
1.03974e-09
-2.49318e-10
-2.41961e-10
-2.60533e-10
-2.50589e-10
-9.45081e-11
7.12856e-11
1.04861e-09
-2.49623e-10
-2.40641e-10
-2.62301e-10
-2.49612e-10
-1.29117e-10
7.82198e-11
1.0599e-09
-2.50436e-10
-2.39666e-10
-2.65084e-10
-2.48707e-10
-1.84986e-10
9.368e-11
1.08736e-09
-2.51557e-10
-2.39042e-10
-2.6739e-10
-2.47821e-10
-3.07132e-10
1.14714e-10
1.17053e-09
-2.58297e-10
-2.39938e-10
-2.75998e-10
-2.49612e-10
-4.95461e-10
1.60431e-10
1.31258e-09
-2.85917e-10
-2.37183e-10
-3.02922e-10
-2.53103e-10
2.17082e-11
2.37692e-10
1.09747e-09
-3.12718e-10
-2.16273e-10
-3.3587e-10
-2.40967e-10
-4.57178e-11
-2.0959e-10
-2.23608e-10
-2.26276e-10
-2.48476e-11
-4.42238e-11
6.54443e-11
2.51611e-10
-4.46907e-11
3.90085e-12
-2.26601e-12
4.30559e-11
-8.19064e-12
3.85489e-11
1.02105e-09
-2.47268e-10
-2.46713e-10
-2.54124e-10
-2.53428e-10
-1.67279e-11
3.89823e-11
1.02166e-09
-2.47853e-10
-2.46121e-10
-2.54901e-10
-2.52751e-10
-2.57374e-11
4.0464e-11
1.02287e-09
-2.48359e-10
-2.45441e-10
-2.55687e-10
-2.52064e-10
-3.60292e-11
4.18227e-11
1.0249e-09
-2.48979e-10
-2.44752e-10
-2.56673e-10
-2.5143e-10
-4.78252e-11
4.49994e-11
1.028e-09
-2.49446e-10
-2.43883e-10
-2.57682e-10
-2.50715e-10
-6.29646e-11
4.78213e-11
1.03262e-09
-2.50113e-10
-2.4307e-10
-2.59055e-10
-2.50103e-10
-8.26777e-11
5.36554e-11
1.03974e-09
-2.50598e-10
-2.41958e-10
-2.60534e-10
-2.49307e-10
-1.1019e-10
6.02674e-11
1.04933e-09
-2.51485e-10
-2.40875e-10
-2.62943e-10
-2.48566e-10
-1.49113e-10
7.26504e-11
1.06518e-09
-2.52247e-10
-2.39734e-10
-2.65625e-10
-2.4762e-10
-2.21318e-10
9.11974e-11
1.11066e-09
-2.55862e-10
-2.40008e-10
-2.70557e-10
-2.48508e-10
-3.79595e-10
1.29142e-10
1.24274e-09
-2.70304e-10
-2.39709e-10
-2.88597e-10
-2.54562e-10
-5.50675e-10
2.0672e-10
1.33762e-09
-3.04104e-10
-2.40806e-10
-3.25745e-10
-2.64919e-10
7.76583e-11
2.92164e-10
9.13678e-10
-2.95304e-10
-2.11552e-10
-3.46438e-10
-2.6993e-10
-1.71173e-11
8.88279e-11
-1.95948e-10
-1.92616e-10
6.59291e-12
-1.84036e-10
-2.16659e-10
-2.41877e-10
1.3744e-11
4.78957e-12
1.80407e-11
2.82964e-10
-7.59916e-12
2.91056e-11
1.01825e-09
-2.47922e-10
-2.4737e-10
-2.53283e-10
-2.52632e-10
-1.55265e-11
2.94279e-11
1.01876e-09
-2.48491e-10
-2.46788e-10
-2.53999e-10
-2.51998e-10
-2.39873e-11
3.04238e-11
1.01973e-09
-2.48999e-10
-2.46139e-10
-2.54728e-10
-2.51359e-10
-3.36707e-11
3.14796e-11
1.02145e-09
-2.49592e-10
-2.45475e-10
-2.55606e-10
-2.5075e-10
-4.49919e-11
3.36762e-11
1.02398e-09
-2.50084e-10
-2.44672e-10
-2.56512e-10
-2.50073e-10
-5.94629e-11
3.6029e-11
1.028e-09
-2.50724e-10
-2.43882e-10
-2.57688e-10
-2.49442e-10
-7.86308e-11
4.02924e-11
1.03412e-09
-2.51224e-10
-2.42846e-10
-2.58885e-10
-2.48634e-10
-1.05566e-10
4.60746e-11
1.04355e-09
-2.52074e-10
-2.41776e-10
-2.60713e-10
-2.47864e-10
-1.43181e-10
5.56819e-11
1.05708e-09
-2.52621e-10
-2.403e-10
-2.62801e-10
-2.46779e-10
-2.02641e-10
7.12583e-11
1.08599e-09
-2.54101e-10
-2.39848e-10
-2.65967e-10
-2.46672e-10
-3.20938e-10
9.58223e-11
1.17452e-09
-2.58962e-10
-2.4026e-10
-2.73671e-10
-2.50008e-10
-5.02839e-10
1.49517e-10
1.319e-09
-2.7934e-10
-2.39156e-10
-3.00546e-10
-2.60852e-10
1.81973e-11
2.14925e-10
1.1124e-09
-2.99701e-10
-2.18402e-10
-3.30476e-10
-2.62769e-10
-5.20028e-11
-1.86002e-10
-2.06841e-10
-2.3202e-10
-3.59093e-11
-3.90154e-11
7.97298e-11
2.45412e-10
-7.1707e-12
2.09356e-11
1.01659e-09
-2.48567e-10
-2.48022e-10
-2.52634e-10
-2.52018e-10
-1.46185e-11
2.11579e-11
1.01702e-09
-2.49125e-10
-2.47453e-10
-2.53302e-10
-2.51417e-10
-2.25508e-11
2.17976e-11
1.01784e-09
-2.49646e-10
-2.4684e-10
-2.53983e-10
-2.50811e-10
-3.14733e-11
2.25592e-11
1.01932e-09
-2.50238e-10
-2.46213e-10
-2.54791e-10
-2.50234e-10
-4.18111e-11
2.39983e-11
1.02146e-09
-2.50763e-10
-2.45478e-10
-2.55611e-10
-2.49589e-10
-5.459e-11
2.57389e-11
1.0249e-09
-2.51438e-10
-2.44751e-10
-2.56672e-10
-2.48972e-10
-7.09791e-11
2.85767e-11
1.02997e-09
-2.52022e-10
-2.43845e-10
-2.57762e-10
-2.48234e-10
-9.30445e-11
3.28587e-11
1.03816e-09
-2.52954e-10
-2.42977e-10
-2.59382e-10
-2.47564e-10
-1.22621e-10
3.89238e-11
1.04959e-09
-2.53726e-10
-2.41796e-10
-2.6106e-10
-2.46681e-10
-1.62829e-10
5.00502e-11
1.06803e-09
-2.55058e-10
-2.41343e-10
-2.63953e-10
-2.46258e-10
-2.30146e-10
6.07473e-11
1.11746e-09
-2.57432e-10
-2.4263e-10
-2.66861e-10
-2.48148e-10
-3.69253e-10
9.26953e-11
1.25447e-09
-2.68127e-10
-2.47526e-10
-2.82978e-10
-2.59917e-10
-4.96323e-10
1.12862e-10
1.37707e-09
-2.95856e-10
-2.57548e-10
-3.1559e-10
-2.7894e-10
5.19742e-11
1.92058e-10
9.59712e-10
-2.96566e-10
-2.32266e-10
-3.4599e-10
-3.01696e-10
-1.55178e-11
7.66563e-11
-1.8897e-10
-1.60937e-10
1.03893e-11
-1.20478e-10
-1.24697e-10
-8.65356e-11
-1.13988e-11
2.24349e-11
1.27476e-10
-6.92281e-12
1.35737e-11
1.01541e-09
-2.49144e-10
-2.48602e-10
-2.51979e-10
-2.51389e-10
-1.4109e-11
1.37206e-11
1.01578e-09
-2.49698e-10
-2.48044e-10
-2.52607e-10
-2.50812e-10
-2.17894e-11
1.41167e-11
1.01651e-09
-2.50229e-10
-2.4745e-10
-2.53246e-10
-2.50225e-10
-3.0412e-11
1.46273e-11
1.01784e-09
-2.5082e-10
-2.4684e-10
-2.53985e-10
-2.49643e-10
-4.04532e-11
1.55327e-11
1.01973e-09
-2.51365e-10
-2.46137e-10
-2.54729e-10
-2.48995e-10
-5.2759e-11
1.67281e-11
1.02286e-09
-2.52069e-10
-2.45438e-10
-2.55689e-10
-2.48354e-10
-6.86305e-11
1.85329e-11
1.0273e-09
-2.52676e-10
-2.44563e-10
-2.56604e-10
-2.4755e-10
-8.97867e-11
2.13819e-11
1.03483e-09
-2.53677e-10
-2.43741e-10
-2.58021e-10
-2.46761e-10
-1.1946e-10
2.49268e-11
1.04544e-09
-2.54429e-10
-2.4257e-10
-2.59163e-10
-2.45606e-10
-1.58601e-10
3.16132e-11
1.06198e-09
-2.56126e-10
-2.41939e-10
-2.61686e-10
-2.44654e-10
-2.22407e-10
3.48497e-11
1.09485e-09
-2.56739e-10
-2.42321e-10
-2.61953e-10
-2.4414e-10
-3.36995e-10
4.31523e-11
1.19904e-09
-2.65145e-10
-2.49222e-10
-2.71973e-10
-2.48574e-10
-5.34206e-10
1.94157e-11
1.38897e-09
-2.94002e-10
-2.59047e-10
-2.94311e-10
-2.50958e-10
-1.79753e-11
1.50542e-11
1.18958e-09
-3.44114e-10
-2.96289e-10
-3.35714e-10
-2.64124e-10
4.38107e-11
-1.51929e-10
-1.80452e-10
-1.64692e-10
2.82283e-12
-6.3257e-11
2.07149e-10
-6.73853e-12
6.67372e-12
1.01477e-09
-2.49717e-10
-2.49174e-10
-2.51401e-10
-2.50834e-10
-1.37106e-11
6.74733e-12
1.01511e-09
-2.50272e-10
-2.48623e-10
-2.52001e-10
-2.5027e-10
-2.11465e-11
6.93245e-12
1.01578e-09
-2.50812e-10
-2.48042e-10
-2.52608e-10
-2.49695e-10
-2.94169e-11
7.1798e-12
1.01701e-09
-2.51419e-10
-2.47452e-10
-2.53302e-10
-2.49121e-10
-3.89708e-11
7.60905e-12
1.01875e-09
-2.52e-10
-2.46785e-10
-2.53999e-10
-2.48487e-10
-5.04672e-11
8.19524e-12
1.02165e-09
-2.52754e-10
-2.46118e-10
-2.54902e-10
-2.4785e-10
-6.51215e-11
9.0432e-12
1.02566e-09
-2.53427e-10
-2.45287e-10
-2.55753e-10
-2.4705e-10
-8.42065e-11
1.04192e-11
1.03251e-09
-2.54554e-10
-2.44518e-10
-2.57116e-10
-2.46269e-10
-1.11296e-10
1.20184e-11
1.04211e-09
-2.5542e-10
-2.43408e-10
-2.58184e-10
-2.45097e-10
-1.4718e-10
1.50495e-11
1.0576e-09
-2.57566e-10
-2.42741e-10
-2.6072e-10
-2.44124e-10
-2.08478e-10
1.61743e-11
1.08449e-09
-2.58145e-10
-2.42303e-10
-2.61189e-10
-2.42874e-10
-3.15481e-10
1.70223e-11
1.16375e-09
-2.69782e-10
-2.4572e-10
-2.72262e-10
-2.42858e-10
-5.24156e-10
2.78075e-12
1.3015e-09
-2.99212e-10
-2.46115e-10
-2.954e-10
-2.3546e-10
3.13846e-11
-8.56818e-12
1.02011e-09
-3.3868e-10
-2.47505e-10
-3.24307e-10
-2.1754e-10
3.70492e-11
-2.31824e-10
-2.2922e-10
-2.20488e-10
3.94034e-11
-1.83319e-11
-2.65112e-11
2.57312e-10
-6.6666e-12
1.01445e-09
-2.50272e-10
-2.49728e-10
-2.50827e-10
-2.5027e-10
-1.35689e-11
1.01477e-09
-2.50834e-10
-2.49174e-10
-2.514e-10
-2.49713e-10
-2.09287e-11
1.01541e-09
-2.51391e-10
-2.486e-10
-2.5198e-10
-2.49142e-10
-2.90967e-11
1.01659e-09
-2.52019e-10
-2.48019e-10
-2.52637e-10
-2.48565e-10
-3.85413e-11
1.01825e-09
-2.52633e-10
-2.47367e-10
-2.53285e-10
-2.47919e-10
-4.98642e-11
1.02104e-09
-2.53428e-10
-2.46708e-10
-2.54126e-10
-2.47265e-10
-6.42991e-11
1.02483e-09
-2.54151e-10
-2.45878e-10
-2.54897e-10
-2.46432e-10
-8.29997e-11
1.03134e-09
-2.55366e-10
-2.45081e-10
-2.56171e-10
-2.45608e-10
-1.09664e-10
1.04027e-09
-2.56275e-10
-2.43883e-10
-2.57103e-10
-2.44344e-10
-1.45395e-10
1.0552e-09
-2.58655e-10
-2.4299e-10
-2.59526e-10
-2.43279e-10
-2.06686e-10
1.0803e-09
-2.59408e-10
-2.41755e-10
-2.60082e-10
-2.41656e-10
-3.15688e-10
1.15399e-09
-2.7274e-10
-2.41825e-10
-2.72716e-10
-2.40795e-10
-5.25551e-10
1.27922e-09
-2.99819e-10
-2.35637e-10
-2.98274e-10
-2.33035e-10
2.34988e-11
1.01495e-09
-3.37071e-10
-2.25346e-10
-3.35272e-10
-2.24504e-10
2.34041e-11
-2.37556e-10
-2.36548e-10
-2.17677e-10
8.60412e-12
-2.09781e-11
-4.45629e-12
2.58008e-10
-6.08232e-11
6.2772e-13
-1.64008e-11
7.64813e-11
-4.83522e-11
-8.77093e-13
3.4611e-13
-1.75619e-11
6.64452e-11
-8.34223e-12
1.03341e-12
-1.21449e-11
1.94538e-11
-1.01191e-11
1.39628e-10
9.49793e-10
6.12444e-11
6.1395e-11
-9.34116e-11
-9.37491e-11
-1.78641e-11
1.33126e-10
9.48892e-10
6.46787e-11
6.497e-11
-9.19227e-11
-9.19072e-11
-4.43656e-11
1.56392e-10
1.09535e-09
5.73074e-11
3.9061e-11
-7.99077e-11
-5.2113e-11
6.73022e-11
1.15821e-10
8.32818e-10
4.55358e-11
5.43421e-11
-5.32245e-11
-5.85094e-11
4.53754e-11
-7.54418e-11
-5.86672e-11
-9.19351e-11
9.81333e-12
1.87541e-11
-1.35559e-11
1.44227e-10
-3.72835e-11
-4.00659e-12
-2.93016e-12
-1.07696e-11
5.49899e-11
-9.5635e-12
1.3526e-10
1.29304e-09
-1.2871e-11
1.34584e-10
1.30334e-09
-1.12773e-11
1.63716e-10
1.38006e-09
-9.2146e-12
1.47043e-10
1.34381e-09
-5.57406e-11
1.55184e-10
1.04174e-09
4.01242e-11
6.11833e-11
-6.57161e-11
-7.35493e-11
7.65212e-11
1.52896e-10
8.00536e-10
5.38654e-11
6.69507e-11
-9.07051e-11
-8.88305e-11
4.28036e-11
-9.13967e-11
-6.46752e-11
-8.39123e-11
1.54309e-11
1.6325e-11
-4.07125e-12
1.32747e-10
-4.9312e-11
-7.29596e-12
-4.2961e-12
-9.79569e-12
7.06998e-11
-2.23799e-11
1.42396e-10
1.16916e-09
-4.51466e-11
1.43374e-10
1.17771e-09
-5.99681e-11
1.59776e-10
1.21778e-09
-6.90842e-11
1.46548e-10
1.26408e-09
-7.41641e-11
1.56043e-10
1.32324e-09
-4.93759e-11
1.44239e-10
1.32159e-09
-6.8744e-11
1.4551e-10
1.02396e-09
3.91328e-11
6.38917e-11
-7.10927e-11
-8.43485e-11
7.01756e-11
1.48152e-10
8.37574e-10
5.5294e-11
6.65727e-11
-9.41723e-11
-9.10789e-11
4.10534e-11
-8.10805e-11
-6.03131e-11
-1.15512e-10
1.47778e-11
1.4765e-11
-1.11025e-11
1.6725e-10
-1.48928e-11
2.88733e-12
-1.85002e-11
3.05057e-11
-1.66629e-11
1.23554e-10
1.1158e-09
-3.35205e-11
1.25009e-10
1.11971e-09
-4.83076e-11
1.37036e-10
1.13238e-09
-6.75795e-11
1.34924e-10
1.14837e-09
-8.22026e-11
1.44568e-10
1.20065e-09
-8.6584e-11
1.34995e-10
1.25643e-09
-8.42498e-11
1.39818e-10
1.31613e-09
-5.00661e-11
1.31341e-10
1.32236e-09
-6.49345e-11
1.22932e-10
1.00282e-09
4.1487e-11
5.71016e-11
-6.53319e-11
-7.47429e-11
5.02409e-11
7.82324e-11
8.00452e-10
6.28691e-11
6.07943e-11
-7.38726e-11
-5.64489e-11
3.38102e-11
-4.81729e-11
-4.34875e-11
-8.16401e-12
9.00038e-12
4.94057e-11
-1.56573e-11
1.06766e-10
1.08764e-09
-3.15784e-11
1.07621e-10
1.09092e-09
-4.57925e-11
1.1476e-10
1.09849e-09
-6.11609e-11
1.14893e-10
1.10345e-09
-7.5576e-11
1.24243e-10
1.12076e-09
-9.07544e-11
1.22352e-10
1.13854e-09
-1.00935e-10
1.28865e-10
1.19179e-09
-9.97186e-11
1.20136e-10
1.24407e-09
-8.9921e-11
1.17133e-10
1.28727e-09
-7.85188e-11
8.98481e-11
1.308e-09
6.06868e-11
6.5077e-11
8.00045e-10
3.39342e-11
5.03273e-11
-4.36132e-11
-4.81532e-11