/*--------------------------------*- C++ -*----------------------------------*\
| =========                 |                                                 |
| \\      /  F ield         | OpenFOAM: The Open Source CFD Toolbox           |
|  \\    /   O peration     | Version:  2.1.1                                 |
|   \\  /    A nd           | Web:      www.OpenFOAM.org                      |
|    \\/     M anipulation  |                                                 |
\*---------------------------------------------------------------------------*/
FoamFile
{
    version     2.0;
    format      ascii;
    class       surfaceScalarField;
    location    "0.001";
    object      phi;
}
// * * * * * * * * * * * * * * * * * * * * * * * * * * * * * * * * * * * * * //

dimensions      [0 3 -1 0 0 0 0];

internalField   nonuniform List<scalar> 
29479
(
6.36252e-11
8.06712e-13
1.73456e-10
-3.76871e-11
3.46278e-11
2.01874e-12
2.56983e-10
-1.5573e-11
2.09264e-11
-5.00718e-14
2.48246e-10
-8.36422e-12
1.10252e-11
-2.34368e-13
2.48258e-10
-3.30513e-12
6.15787e-12
-1.93552e-13
2.47402e-10
-2.41254e-12
4.5226e-12
-2.02524e-13
2.48091e-10
-1.57525e-12
3.48844e-12
-1.96066e-13
2.48278e-10
-1.35757e-12
2.84136e-12
-1.90273e-13
2.48702e-10
-1.02932e-12
2.28149e-12
-1.80193e-13
2.48925e-10
-8.61961e-13
1.83955e-12
-1.71363e-13
2.49193e-10
-6.65316e-13
1.43947e-12
-1.6446e-13
2.49387e-10
-5.22738e-13
1.08736e-12
-1.58639e-13
2.4959e-10
-3.74001e-13
7.57121e-13
-1.53878e-13
2.49769e-10
-2.47018e-13
4.49853e-13
-1.49875e-13
2.4995e-10
-1.20205e-13
1.45321e-13
-1.47529e-13
2.50124e-10
-2.49055e-12
5.73094e-11
8.67142e-12
1.51839e-10
-3.21163e-12
-3.43748e-11
3.33574e-11
4.78585e-12
2.53436e-10
7.62272e-13
-1.59096e-11
2.10507e-11
-8.8236e-13
2.47405e-10
5.54852e-13
-8.60557e-12
1.10479e-11
-1.0693e-12
2.48424e-10
2.45277e-13
-3.45718e-12
6.22377e-12
-8.20569e-13
2.47829e-10
2.17962e-13
-2.45202e-12
4.5818e-12
-7.31735e-13
2.48384e-10
1.93788e-13
-1.59001e-12
3.53271e-12
-6.52754e-13
2.48516e-10
1.79622e-13
-1.35097e-12
2.87168e-12
-6.04318e-13
2.48904e-10
1.65281e-13
-1.02251e-12
2.30518e-12
-5.60931e-13
2.49113e-10
1.54633e-13
-8.53217e-13
1.85697e-12
-5.28734e-13
2.4937e-10
1.45705e-13
-6.5726e-13
1.45256e-12
-5.01745e-13
2.4956e-10
1.37841e-13
-5.16547e-13
1.09758e-12
-4.81789e-13
2.49762e-10
1.32057e-13
-3.69376e-13
7.65683e-13
-4.66366e-13
2.49938e-10
1.26707e-13
-2.44449e-13
4.53784e-13
-4.55842e-13
2.50119e-10
1.23069e-13
-1.20569e-13
1.50457e-13
-4.50594e-13
2.50297e-10
-7.03351e-12
8.2034e-11
5.00521e-11
-3.37518e-12
-5.47363e-11
3.70658e-11
-7.76795e-12
2.80352e-10
1.65744e-12
-1.5983e-11
2.01125e-11
-2.84392e-12
2.48909e-10
1.63755e-12
-8.31936e-12
1.09949e-11
-2.94e-12
2.48779e-10
8.19439e-13
-3.63462e-12
6.429e-12
-1.9358e-12
2.48313e-10
6.05526e-13
-2.49337e-12
4.72611e-12
-1.46129e-12
2.48622e-10
4.77215e-13
-1.62443e-12
3.6369e-12
-1.18863e-12
2.48699e-10
4.07404e-13
-1.35586e-12
2.94238e-12
-1.05384e-12
2.4906e-10
3.58579e-13
-1.02831e-12
2.35966e-12
-9.59951e-13
2.4927e-10
3.26076e-13
-8.53053e-13
1.89722e-12
-8.96627e-13
2.49526e-10
3.01354e-13
-6.59159e-13
1.48314e-12
-8.48814e-13
2.49723e-10
2.84717e-13
-5.12712e-13
1.12016e-12
-8.1242e-13
2.4992e-10
2.71429e-13
-3.68028e-13
7.80462e-13
-7.86647e-13
2.50102e-10
2.60268e-13
-2.45513e-13
4.63063e-13
-7.68806e-13
2.50291e-10
2.51898e-13
-1.199e-13
1.52598e-13
-7.59085e-13
2.50474e-10
1.49404e-11
-7.8387e-11
2.72373e-11
-2.02546e-11
2.97913e-10
3.8776e-12
-1.52209e-11
1.90613e-11
-8.73654e-12
2.5348e-10
2.8928e-12
-8.13291e-12
1.18737e-11
-7.12887e-12
2.50756e-10
1.47513e-12
-4.02706e-12
7.12539e-12
-3.97059e-12
2.49388e-10
9.67688e-13
-2.48993e-12
5.00282e-12
-2.51714e-12
2.49034e-10
7.13092e-13
-1.6418e-12
3.79886e-12
-1.87312e-12
2.49003e-10
6.00693e-13
-1.33577e-12
3.03765e-12
-1.57538e-12
2.49272e-10
5.29863e-13
-1.02818e-12
2.43232e-12
-1.40607e-12
2.49472e-10
4.86084e-13
-8.51051e-13
1.95384e-12
-1.29868e-12
2.49709e-10
4.54178e-13
-6.58192e-13
1.52754e-12
-1.224e-12
2.499e-10
4.28887e-13
-5.12318e-13
1.1522e-12
-1.16685e-12
2.50098e-10
4.09077e-13
-3.69148e-13
8.0327e-13
-1.12732e-12
2.50284e-10
3.91442e-13
-2.48826e-13
4.76915e-13
-1.10142e-12
2.50481e-10
3.80856e-13
-1.19999e-13
1.56277e-13
-1.08841e-12
2.50671e-10
1.97912e-11
-7.8652e-11
3.8958e-11
-4.3563e-11
3.28772e-10
8.10499e-12
-2.71689e-11
2.54965e-11
-1.14423e-11
2.58565e-10
6.44048e-12
-1.187e-11
1.5725e-11
-1.03185e-11
2.50829e-10
3.03053e-12
-5.75486e-12
9.13364e-12
-6.13605e-12
2.49779e-10
1.73595e-12
-3.00872e-12
5.79222e-12
-3.64337e-12
2.49122e-10
1.17213e-12
-1.83621e-12
4.17948e-12
-2.58493e-12
2.49069e-10
9.13805e-13
-1.40564e-12
3.24488e-12
-2.12366e-12
2.4937e-10
7.79734e-13
-1.05007e-12
2.56623e-12
-1.87875e-12
2.49582e-10
6.96983e-13
-8.62093e-13
2.04876e-12
-1.72679e-12
2.49843e-10
6.44473e-13
-6.61474e-13
1.59643e-12
-1.62447e-12
2.50045e-10
6.01005e-13
-5.23304e-13
1.20384e-12
-1.54625e-12
2.50264e-10
5.68989e-13
-3.7414e-13
8.3644e-13
-1.49311e-12
2.50461e-10
5.4608e-13
-2.52985e-13
4.9578e-13
-1.45758e-12
2.50668e-10
5.32082e-13
-1.22184e-13
1.62022e-13
-1.44052e-12
2.50868e-10
2.01643e-11
7.49057e-11
-1.9474e-11
1.48293e-10
1.39089e-11
-3.29537e-11
2.8887e-11
-2.14079e-11
2.65109e-10
8.30629e-12
-1.59172e-11
2.07794e-11
-1.28292e-11
2.51574e-10
4.34933e-12
-8.45449e-12
1.24205e-11
-8.78613e-12
2.50744e-10
2.2891e-12
-4.06728e-12
7.10556e-12
-4.97905e-12
2.49662e-10
1.44319e-12
-2.18921e-12
4.71925e-12
-3.3786e-12
2.49405e-10
1.12266e-12
-1.52149e-12
3.5295e-12
-2.7351e-12
2.49604e-10
9.75362e-13
-1.08855e-12
2.73705e-12
-2.42415e-12
2.498e-10
8.83004e-13
-8.81869e-13
2.16628e-12
-2.22096e-12
2.50053e-10
8.22574e-13
-6.6786e-13
1.6841e-12
-2.0856e-12
2.50246e-10
7.69907e-13
-5.3572e-13
1.269e-12
-1.97734e-12
2.50474e-10
7.31826e-13
-3.81375e-13
8.79681e-13
-1.90745e-12
2.50677e-10
6.98466e-13
-2.62689e-13
5.22808e-13
-1.86015e-12
2.50901e-10
6.77074e-13
-1.26171e-13
1.69808e-13
-1.83872e-12
2.51118e-10
3.22089e-11
-5.73128e-11
2.71594e-11
-3.0126e-11
2.72463e-10
1.28017e-11
-2.83487e-11
2.95504e-11
-1.19535e-11
2.5143e-10
7.70789e-12
-1.30284e-11
1.71131e-11
-1.10955e-11
2.50195e-10
3.52127e-12
-6.40853e-12
9.29007e-12
-6.53145e-12
2.50244e-10
2.08938e-12
-2.94593e-12
5.58383e-12
-4.30975e-12
2.4959e-10
1.54192e-12
-1.82708e-12
3.97171e-12
-3.45831e-12
2.49772e-10
1.31947e-12
-1.20458e-12
3.01711e-12
-3.0768e-12
2.49945e-10
1.17518e-12
-9.45307e-13
2.35437e-12
-2.81282e-12
2.50228e-10
1.08472e-12
-6.86667e-13
1.81184e-12
-2.62939e-12
2.50419e-10
1.00304e-12
-5.57317e-13
1.35889e-12
-2.47428e-12
2.50669e-10
9.50039e-13
-3.90206e-13
9.37254e-13
-2.3747e-12
2.50877e-10
9.03485e-13
-2.77958e-13
5.57701e-13
-2.30658e-12
2.51123e-10
8.76633e-13
-1.33071e-13
1.79686e-13
-2.27962e-12
2.51356e-10
4.19541e-11
5.707e-11
-1.23128e-11
1.65122e-10
9.73794e-12
-3.34336e-11
3.10533e-11
-1.77293e-11
2.63649e-10
8.69257e-12
-1.79068e-11
2.20168e-11
-1.20237e-11
2.51841e-10
4.52886e-12
-9.31402e-12
1.20146e-11
-8.65622e-12
2.52189e-10
2.60891e-12
-4.04375e-12
6.68275e-12
-5.85871e-12
2.50746e-10
1.92115e-12
-2.21829e-12
4.48837e-12
-4.60627e-12
2.50428e-10
1.65838e-12
-1.35398e-12
3.37298e-12
-4.04929e-12
2.50372e-10
1.48073e-12
-1.04533e-12
2.62781e-12
-3.64285e-12
2.50579e-10
1.36492e-12
-7.13247e-13
2.00036e-12
-3.36189e-12
2.5071e-10
1.24362e-12
-5.89365e-13
1.48889e-12
-3.11798e-12
2.50974e-10
1.1587e-12
-4.06981e-13
1.0187e-12
-2.96646e-12
2.51196e-10
1.08419e-12
-3.07332e-13
6.06332e-13
-2.86845e-12
2.51485e-10
1.04637e-12
-1.45949e-13
1.91955e-13
-2.83585e-12
2.51743e-10
3.5947e-11
-7.48001e-11
3.70581e-11
-6.40904e-11
3.41282e-10
1.0859e-11
-2.758e-11
2.71253e-11
-1.21212e-11
2.56677e-10
7.32223e-12
-1.31535e-11
1.54073e-11
-1.16894e-11
2.54868e-10
4.21672e-12
-6.07778e-12
8.3372e-12
-8.80871e-12
2.53154e-10
3.02977e-12
-3.12975e-12
5.415e-12
-7.12876e-12
2.51957e-10
2.49176e-12
-1.63426e-12
3.94756e-12
-5.89527e-12
2.51101e-10
2.10456e-12
-1.26899e-12
3.08021e-12
-5.01083e-12
2.51095e-10
1.88645e-12
-7.79647e-13
2.31615e-12
-4.43253e-12
2.5101e-10
1.6739e-12
-6.57045e-13
1.69362e-12
-3.97745e-12
2.51267e-10
1.53413e-12
-4.21299e-13
1.12106e-12
-3.69586e-12
2.51462e-10
1.42275e-12
-3.50769e-13
6.64216e-13
-3.52857e-12
2.51792e-10
1.37306e-12
-1.65654e-13
2.04343e-13
-3.47748e-12
2.52065e-10
2.00618e-11
2.83006e-11
6.91997e-11
1.30456e-11
-4.19068e-11
3.01404e-11
-2.65416e-11
2.74359e-10
9.04558e-12
-1.59973e-11
1.79766e-11
-1.4993e-11
2.5917e-10
7.2654e-12
-9.22703e-12
1.07698e-11
-1.58238e-11
2.59755e-10
5.38079e-12
-4.95385e-12
7.10891e-12
-1.31875e-11
2.5646e-10
4.13931e-12
-2.39257e-12
5.12524e-12
-1.02606e-11
2.53508e-10
3.18972e-12
-1.79437e-12
3.93743e-12
-7.91989e-12
2.52593e-10
2.6443e-12
-9.64473e-13
2.90887e-12
-6.3998e-12
2.5181e-10
2.20016e-12
-8.15729e-13
2.09384e-12
-5.39937e-12
2.51921e-10
1.8934e-12
-4.85905e-13
1.31687e-12
-4.83371e-12
2.52109e-10
1.67398e-12
-4.53296e-13
7.63042e-13
-4.55515e-12
2.52571e-10
1.58641e-12
-2.20203e-13
2.24776e-13
-4.49524e-12
2.52904e-10
2.35845e-11
4.73268e-11
9.5446e-11
1.91991e-11
-4.43833e-11
2.39168e-11
-4.25578e-11
2.92943e-10
1.32629e-11
-1.18631e-11
1.3892e-11
-2.46139e-11
2.64629e-10
1.08832e-11
-1.04785e-11
1.10083e-11
-2.35579e-11
2.64837e-10
8.30502e-12
-5.24614e-12
7.7864e-12
-1.94171e-11
2.59315e-10
5.85244e-12
-3.6515e-12
5.97795e-12
-1.4275e-11
2.56255e-10
4.4665e-12
-1.65607e-12
4.19664e-12
-1.04527e-11
2.53471e-10
3.46388e-12
-1.24595e-12
2.83531e-12
-8.06966e-12
2.53012e-10
2.86709e-12
-5.99654e-13
1.56941e-12
-6.65545e-12
2.52812e-10
2.50462e-12
-6.28416e-13
8.56605e-13
-6.16021e-12
2.53426e-10
2.3983e-12
-3.17776e-13
2.36343e-13
-6.1087e-12
2.538e-10
3.66601e-11
2.33907e-11
9.12475e-11
2.39273e-11
-3.37485e-11
4.04736e-11
-4.46503e-11
2.59371e-10
2.17468e-11
-2.87664e-11
1.97728e-11
-3.63399e-11
2.78145e-10
1.51324e-11
-1.20403e-11
1.27944e-11
-2.83411e-11
2.6531e-10
1.00883e-11
-9.62729e-12
1.02114e-11
-2.22799e-11
2.62899e-10
7.64998e-12
-4.46898e-12
7.19347e-12
-1.79372e-11
2.58035e-10
5.58348e-12
-2.86115e-12
4.76781e-12
-1.38103e-11
2.56431e-10
4.08748e-12
-1.25112e-12
2.20368e-12
-1.11205e-11
2.56086e-10
3.4191e-12
-1.06883e-12
9.88402e-13
-1.07422e-11
2.57447e-10
3.25438e-12
-6.1977e-13
2.54052e-13
-1.08986e-11
2.58166e-10
5.09942e-11
-2.32588e-11
2.4321e-11
-4.96465e-11
2.62007e-10
2.65284e-11
-2.74746e-11
2.03617e-11
-3.11462e-11
2.63317e-10
1.747e-11
-2.38571e-11
1.90518e-11
-2.5515e-11
2.6681e-10
1.30136e-11
-1.2341e-11
1.33546e-11
-2.31934e-11
2.61956e-10
1.05712e-11
-8.21681e-12
8.36804e-12
-2.0893e-11
2.61567e-10
8.33681e-12
-2.77223e-12
2.02286e-12
-1.88347e-11
2.61951e-10
8.19329e-12
-9.84688e-13
1.35036e-13
-2.05211e-11
2.63955e-10
8.24396e-12
-2.9856e-13
-5.60478e-14
-2.09585e-11
2.64421e-10
6.58126e-11
7.91574e-12
7.96871e-11
3.02538e-11
-4.06586e-11
3.07563e-11
-5.55182e-11
3.02627e-10
1.53179e-11
-3.43971e-11
3.77099e-11
-4.10566e-11
2.69564e-10
1.95849e-11
-2.52886e-11
1.85921e-11
-3.5149e-11
2.75175e-10
1.36167e-11
-6.53923e-12
-1.8892e-12
-2.54812e-11
2.73367e-10
1.58059e-11
3.271e-12
-2.84584e-12
-3.62379e-11
2.73886e-10
1.58009e-11
1.6866e-12
-1.21766e-12
-3.45482e-11
2.73454e-10
8.56902e-11
-1.48881e-11
2.13672e-11
1.30515e-10
6.28732e-11
-2.87163e-13
-1.92436e-12
2.04806e-10
4.46907e-11
1.34447e-11
-1.05845e-11
-7.46303e-11
2.6386e-10
3.60315e-11
7.0657e-12
-3.6555e-12
-5.89915e-11
2.60384e-10
-1.39314e-10
2.33285e-11
1.86306e-12
1.14101e-10
4.99342e-10
7.54507e-12
1.04415e-09
-2.25905e-10
-3.37005e-10
-2.26715e-10
-3.38765e-10
2.43456e-11
2.43566e-11
-2.35324e-10
-2.36366e-10
3.01611e-10
-4.87337e-12
1.26537e-09
-2.32194e-10
-2.97227e-10
-2.34768e-10
-2.98767e-10
2.06849e-10
-2.02748e-11
1.14389e-09
-2.40297e-10
-2.73598e-10
-2.41334e-10
-2.73754e-10
1.46312e-10
-1.64613e-11
1.07955e-09
-2.41202e-10
-2.6037e-10
-2.41354e-10
-2.59689e-10
1.10832e-10
-1.52585e-11
1.05547e-09
-2.43152e-10
-2.5983e-10
-2.42876e-10
-2.58921e-10
8.42563e-11
-1.20444e-11
1.04e-09
-2.44175e-10
-2.57185e-10
-2.43711e-10
-2.5633e-10
6.5722e-11
-1.05815e-11
1.0314e-09
-2.45477e-10
-2.5636e-10
-2.44941e-10
-2.55522e-10
5.11474e-11
-9.19154e-12
1.02509e-09
-2.46319e-10
-2.55015e-10
-2.45752e-10
-2.54242e-10
3.96475e-11
-8.38307e-12
1.02142e-09
-2.47177e-10
-2.54242e-10
-2.46606e-10
-2.53519e-10
2.99714e-11
-7.79823e-12
1.01868e-09
-2.47852e-10
-2.53374e-10
-2.47284e-10
-2.52698e-10
2.15766e-11
-7.38474e-12
1.01702e-09
-2.48514e-10
-2.52704e-10
-2.47953e-10
-2.52065e-10
1.39894e-11
-7.12967e-12
1.01584e-09
-2.49112e-10
-2.52032e-10
-2.48553e-10
-2.51422e-10
6.88037e-12
-6.95176e-12
1.01519e-09
-2.49701e-10
-2.51434e-10
-2.49141e-10
-2.50847e-10
-6.87142e-12
1.01486e-09
-2.50271e-10
-2.50846e-10
-2.49711e-10
-2.5027e-10
-1.17016e-10
-3.51339e-12
1.77507e-11
5.67665e-12
9.71025e-11
4.9958e-10
-1.50049e-11
1.04609e-09
-2.18894e-10
-3.25971e-10
-2.48781e-10
-3.40218e-10
3.76514e-11
3.22583e-11
-2.28362e-10
-2.30801e-10
3.02655e-10
-1.97575e-11
1.28405e-09
-2.3454e-10
-2.94447e-10
-2.45125e-10
-2.98135e-10
2.0976e-10
-4.88912e-11
1.15347e-09
-2.42302e-10
-2.73303e-10
-2.45047e-10
-2.71293e-10
1.48557e-10
-3.57592e-11
1.08484e-09
-2.425e-10
-2.61498e-10
-2.4198e-10
-2.58359e-10
1.12524e-10
-3.19954e-11
1.05831e-09
-2.44029e-10
-2.61051e-10
-2.42669e-10
-2.57789e-10
8.54961e-11
-2.49168e-11
1.0418e-09
-2.44938e-10
-2.58287e-10
-2.43241e-10
-2.55444e-10
6.65612e-11
-2.16477e-11
1.03252e-09
-2.46143e-10
-2.57332e-10
-2.44368e-10
-2.54672e-10
5.17653e-11
-1.8803e-11
1.02589e-09
-2.46947e-10
-2.55898e-10
-2.45149e-10
-2.53494e-10
4.00863e-11
-1.70879e-11
1.02201e-09
-2.4777e-10
-2.5504e-10
-2.46001e-10
-2.52816e-10
3.02986e-11
-1.59069e-11
1.01917e-09
-2.48431e-10
-2.54111e-10
-2.46688e-10
-2.52043e-10
2.18035e-11
-1.50383e-11
1.01744e-09
-2.49082e-10
-2.53389e-10
-2.4737e-10
-2.51445e-10
1.41367e-11
-1.45223e-11
1.01622e-09
-2.49677e-10
-2.52675e-10
-2.4798e-10
-2.50825e-10
6.95399e-12
-1.41376e-11
1.01553e-09
-2.50267e-10
-2.52049e-10
-2.48575e-10
-2.50268e-10
-1.3984e-11
1.01519e-09
-2.50846e-10
-2.51432e-10
-2.49143e-10
-2.49698e-10
-2.82221e-11
-1.38297e-12
6.15445e-12
2.34506e-11
5.10353e-10
-1.89877e-10
1.21077e-09
-2.64961e-10
-3.36575e-10
-2.97106e-10
-3.4501e-10
4.49713e-11
-1.74244e-11
-1.78861e-10
-1.5129e-10
3.25434e-10
-1.02183e-10
1.3605e-09
-2.49558e-10
-2.93115e-10
-2.57725e-10
-2.92752e-10
2.25502e-10
-9.53462e-11
1.18158e-09
-2.47645e-10
-2.73521e-10
-2.48161e-10
-2.65871e-10
1.61198e-10
-6.14852e-11
1.09516e-09
-2.4386e-10
-2.62573e-10
-2.41778e-10
-2.56919e-10
1.20747e-10
-5.0367e-11
1.06365e-09
-2.4462e-10
-2.62062e-10
-2.41837e-10
-2.56308e-10
9.09162e-11
-3.87603e-11
1.04526e-09
-2.45469e-10
-2.59283e-10
-2.42402e-10
-2.54427e-10
6.99088e-11
-3.31272e-11
1.0347e-09
-2.46639e-10
-2.5825e-10
-2.43579e-10
-2.53737e-10
5.39459e-11
-2.89438e-11
1.02745e-09
-2.47458e-10
-2.56778e-10
-2.44409e-10
-2.52708e-10
4.14886e-11
-2.62532e-11
1.02317e-09
-2.48289e-10
-2.55856e-10
-2.45304e-10
-2.52101e-10
3.12441e-11
-2.45492e-11
1.02012e-09
-2.48953e-10
-2.54864e-10
-2.46025e-10
-2.51385e-10
2.24183e-11
-2.31815e-11
1.01825e-09
-2.49622e-10
-2.54097e-10
-2.46742e-10
-2.50822e-10
1.45215e-11
-2.24175e-11
1.01695e-09
-2.50223e-10
-2.53341e-10
-2.47371e-10
-2.50224e-10
7.13538e-12
-2.1802e-11
1.01621e-09
-2.50826e-10
-2.52675e-10
-2.47981e-10
-2.49677e-10
-2.15684e-11
1.01585e-09
-2.51423e-10
-2.52032e-10
-2.48554e-10
-2.49111e-10
4.78837e-10
7.64988e-11
9.86394e-10
-3.02933e-10
-3.47487e-10
-2.33388e-10
-2.97386e-10
1.03311e-11
5.19618e-11
-1.2469e-10
-1.20366e-10
-1.61611e-11
-1.61118e-10
-1.90366e-10
3.54508e-10
-1.98779e-10
1.36651e-09
-2.78449e-10
-3.14674e-10
-2.56982e-10
-2.95485e-10
2.3089e-10
-1.46733e-10
1.23243e-09
-2.59027e-10
-2.83655e-10
-2.46719e-10
-2.68022e-10
1.66852e-10
-9.60367e-11
1.11387e-09
-2.47832e-10
-2.68021e-10
-2.41906e-10
-2.57525e-10
1.24637e-10
-7.16099e-11
1.07078e-09
-2.46313e-10
-2.64584e-10
-2.41134e-10
-2.55288e-10
9.42698e-11
-5.5347e-11
1.05021e-09
-2.46607e-10
-2.61293e-10
-2.41624e-10
-2.53731e-10
7.22202e-11
-4.62366e-11
1.03804e-09
-2.47464e-10
-2.5964e-10
-2.42809e-10
-2.52971e-10
5.5756e-11
-4.06808e-11
1.03002e-09
-2.48149e-10
-2.57971e-10
-2.43676e-10
-2.52024e-10
4.28347e-11
-3.66519e-11
1.02515e-09
-2.48913e-10
-2.56869e-10
-2.44598e-10
-2.51445e-10
3.22949e-11
-3.4379e-11
1.02179e-09
-2.49551e-10
-2.55767e-10
-2.45344e-10
-2.50755e-10
2.31779e-11
-3.23024e-11
1.01969e-09
-2.50217e-10
-2.54923e-10
-2.46095e-10
-2.50221e-10
1.50353e-11
-3.12428e-11
1.01826e-09
-2.50824e-10
-2.54098e-10
-2.46744e-10
-2.49624e-10
7.3852e-12
-3.03021e-11
1.01743e-09
-2.51443e-10
-2.53387e-10
-2.47371e-10
-2.49082e-10
-2.99612e-11
1.01702e-09
-2.52065e-10
-2.52704e-10
-2.47954e-10
-2.48515e-10
-2.63674e-10
1.24218e-11
5.6056e-11
-4.19134e-12
2.75886e-10
4.82751e-10
-2.82569e-10
1.13591e-09
-2.63178e-10
-3.31249e-10
-2.19095e-10
-3.00592e-10
-5.06799e-11
1.95458e-11
-2.05274e-10
-1.84349e-10
3.10223e-10
-1.97142e-10
1.30079e-09
-2.60295e-10
-3.00159e-10
-2.38563e-10
-2.78838e-10
2.04511e-10
-1.28366e-10
1.16022e-09
-2.49387e-10
-2.74544e-10
-2.3934e-10
-2.58907e-10
1.45181e-10
-9.1756e-11
1.08665e-09
-2.46591e-10
-2.66842e-10
-2.394e-10
-2.54346e-10
1.06431e-10
-7.24095e-11
1.05857e-09
-2.4674e-10
-2.63263e-10
-2.40083e-10
-2.52671e-10
7.94117e-11
-6.02813e-11
1.04348e-09
-2.47764e-10
-2.61021e-10
-2.41576e-10
-2.52048e-10
6.03485e-11
-5.4029e-11
1.03392e-09
-2.48544e-10
-2.59118e-10
-2.42659e-10
-2.51193e-10
4.58272e-11
-4.85308e-11
1.0281e-09
-2.49381e-10
-2.57899e-10
-2.43716e-10
-2.507e-10
3.43757e-11
-4.58306e-11
1.02424e-09
-2.50053e-10
-2.56698e-10
-2.4453e-10
-2.50058e-10
2.45496e-11
-4.28437e-11
1.02179e-09
-2.50754e-10
-2.55767e-10
-2.45348e-10
-2.49555e-10
1.59029e-11
-4.14917e-11
1.02012e-09
-2.51383e-10
-2.54862e-10
-2.46028e-10
-2.48956e-10
7.79996e-12
-4.00942e-11
1.01916e-09
-2.5204e-10
-2.54106e-10
-2.4669e-10
-2.48431e-10
-3.96379e-11
1.01869e-09
-2.52697e-10
-2.53372e-10
-2.47288e-10
-2.47852e-10
-1.02801e-10
7.48431e-13
3.35979e-11
-9.57986e-12
7.80344e-11
5.27715e-10
8.90867e-11
9.48339e-10
-2.70909e-10
-3.48162e-10
-2.12726e-10
-2.9654e-10
7.18267e-12
7.84977e-11
-2.15935e-10
-1.82998e-10
-1.72848e-11
-1.92278e-10
-1.96562e-10
3.57948e-10
-2.2561e-10
1.33316e-09
-2.64921e-10
-3.2543e-10
-2.40632e-10
-3.03942e-10
2.19282e-10
-1.58033e-10
1.21949e-09
-2.53653e-10
-2.88479e-10
-2.38754e-10
-2.70264e-10
1.52229e-10
-1.16029e-10
1.1066e-09
-2.48256e-10
-2.71532e-10
-2.39421e-10
-2.56062e-10
1.11526e-10
-9.39017e-11
1.06801e-09
-2.47657e-10
-2.6623e-10
-2.3951e-10
-2.52424e-10
8.3318e-11
-7.82007e-11
1.05022e-09
-2.48511e-10
-2.63443e-10
-2.40684e-10
-2.51465e-10
6.36509e-11
-7.15163e-11
1.0395e-09
-2.49221e-10
-2.60853e-10
-2.41742e-10
-2.5053e-10
4.85258e-11
-6.36553e-11
1.03254e-09
-2.50045e-10
-2.59311e-10
-2.42883e-10
-2.50057e-10
3.66453e-11
-6.03525e-11
1.02811e-09
-2.50693e-10
-2.579e-10
-2.43719e-10
-2.49392e-10
2.6247e-11
-5.57723e-11
1.02515e-09
-2.51438e-10
-2.56865e-10
-2.44603e-10
-2.48919e-10
1.70777e-11
-5.39514e-11
1.02318e-09
-2.52098e-10
-2.55851e-10
-2.4531e-10
-2.48293e-10
8.37834e-12
-5.17793e-11
1.02201e-09
-2.52814e-10
-2.55034e-10
-2.46005e-10
-2.47771e-10
-5.11331e-11
1.02142e-09
-2.53519e-10
-2.54238e-10
-2.46611e-10
-2.47176e-10
-2.46539e-10
-1.14632e-11
9.00774e-11
-1.4694e-11
2.71706e-10
4.76277e-10
-2.59836e-10
1.11899e-09
-2.4154e-10
-3.3671e-10
-2.16905e-10
-3.13601e-10
-4.45119e-11
2.28616e-11
-2.22385e-10
-2.08247e-10
2.97384e-10
-1.96552e-10
1.29383e-09
-2.52443e-10
-3.024e-10
-2.36481e-10
-2.85102e-10
1.86807e-10
-1.39659e-10
1.15754e-09
-2.49104e-10
-2.76822e-10
-2.39131e-10
-2.58275e-10
1.30596e-10
-1.19785e-10
1.08843e-09
-2.47777e-10
-2.68185e-10
-2.38617e-10
-2.51758e-10
9.47706e-11
-1.00232e-10
1.06211e-09
-2.48716e-10
-2.65538e-10
-2.39488e-10
-2.50516e-10
7.15322e-11
-9.47423e-11
1.0487e-09
-2.49513e-10
-2.62772e-10
-2.40415e-10
-2.49534e-10
5.40338e-11
-8.33229e-11
1.03951e-09
-2.50514e-10
-2.60848e-10
-2.41746e-10
-2.49236e-10
4.06784e-11
-7.94181e-11
1.03393e-09
-2.51182e-10
-2.59113e-10
-2.42666e-10
-2.48556e-10
2.89393e-11
-7.22423e-11
1.03002e-09
-2.52015e-10
-2.57962e-10
-2.43682e-10
-2.48154e-10
1.87927e-11
-6.9915e-11
1.02746e-09
-2.52705e-10
-2.5677e-10
-2.44417e-10
-2.47461e-10
9.18441e-12
-6.65841e-11
1.02589e-09
-2.5349e-10
-2.55888e-10
-2.45155e-10
-2.46946e-10
-6.57015e-11
1.02509e-09
-2.54243e-10
-2.55009e-10
-2.4576e-10
-2.46317e-10
-1.2465e-10
-8.90901e-12
4.2752e-11
-7.7319e-12
9.85391e-11
5.19709e-10
9.06192e-11
9.92212e-10
-2.51497e-10
-3.53129e-10
-2.34892e-10
-3.25501e-10
8.19834e-12
7.65941e-11
-2.29931e-10
-1.94505e-10
-1.49374e-11
-1.62008e-10
-1.80766e-10
3.31002e-10
-2.02175e-10
1.33365e-09
-2.59918e-10
-3.25693e-10
-2.46059e-10
-3.07652e-10
1.91709e-10
-1.63334e-10
1.21318e-09
-2.54229e-10
-2.88624e-10
-2.40562e-10
-2.66796e-10
1.34805e-10
-1.61836e-10
1.11431e-09
-2.50171e-10
-2.72767e-10
-2.39344e-10
-2.53077e-10
1.0026e-10
-1.34714e-10
1.07688e-09
-2.50085e-10
-2.68365e-10
-2.39289e-10
-2.50121e-10
7.82124e-11
-1.30555e-10
1.06213e-09
-2.50494e-10
-2.65534e-10
-2.39499e-10
-2.48745e-10
6.02818e-11
-1.11531e-10
1.05024e-09
-2.51448e-10
-2.63431e-10
-2.40694e-10
-2.48529e-10
4.62275e-11
-1.06447e-10
1.0435e-09
-2.52039e-10
-2.6101e-10
-2.4159e-10
-2.47778e-10
3.31133e-11
-9.43017e-11
1.03805e-09
-2.52963e-10
-2.59627e-10
-2.42819e-10
-2.47471e-10
2.1625e-11
-9.09304e-11
1.03471e-09
-2.53737e-10
-2.5824e-10
-2.43592e-10
-2.46645e-10
1.0563e-11
-8.55334e-11
1.03252e-09
-2.54669e-10
-2.57319e-10
-2.44376e-10
-2.46142e-10
-8.42292e-11
1.03141e-09
-2.55527e-10
-2.56352e-10
-2.44954e-10
-2.45476e-10
-2.84388e-10
7.95521e-13
5.74838e-11
3.66911e-12
3.13059e-10
4.03265e-10
-2.01061e-10
1.08682e-09
-2.41281e-10
-3.28565e-10
-2.23948e-10
-3.07892e-10
-3.31556e-11
3.27469e-11
-2.05797e-10
-1.83312e-10
2.40502e-10
-1.99829e-10
1.27323e-09
-2.56724e-10
-3.03576e-10
-2.38502e-10
-2.75179e-10
1.6198e-10
-2.39962e-10
1.18552e-09
-2.54159e-10
-2.80501e-10
-2.39962e-10
-2.5425e-10
1.19856e-10
-1.91563e-10
1.11429e-09
-2.53018e-10
-2.72737e-10
-2.39357e-10
-2.50208e-10
9.39563e-11
-1.86781e-10
1.08846e-09
-2.51729e-10
-2.68165e-10
-2.38637e-10
-2.47804e-10
7.24358e-11
-1.52241e-10
1.06804e-09
-2.52404e-10
-2.66208e-10
-2.39525e-10
-2.47674e-10
5.53513e-11
-1.45205e-10
1.0586e-09
-2.52661e-10
-2.63244e-10
-2.401e-10
-2.46755e-10
3.8746e-11
-1.24682e-10
1.05023e-09
-2.53724e-10
-2.61274e-10
-2.41639e-10
-2.46615e-10
2.48852e-11
-1.20772e-10
1.04529e-09
-2.54427e-10
-2.59268e-10
-2.4242e-10
-2.45477e-10
1.20154e-11
-1.12582e-10
1.04181e-09
-2.55442e-10
-2.58269e-10
-2.43252e-10
-2.44934e-10
-1.10798e-10
1.04001e-09
-2.5634e-10
-2.57174e-10
-2.43729e-10
-2.44171e-10
-3.92562e-11
6.21529e-12
-2.93909e-12
3.598e-11
2.94686e-10
7.65149e-11
9.49278e-10
-2.48936e-10
-3.41206e-10
-2.29819e-10
-3.22917e-10
6.76293e-11
5.87391e-11
-1.73163e-10
-1.29154e-10
1.26568e-11
-1.0279e-10
-1.12581e-10
1.9977e-10
-2.93594e-10
1.32396e-09
-2.72186e-10
-3.27501e-10
-2.63399e-10
-2.72193e-10
1.63317e-10
-4.02723e-10
1.27304e-09
-2.75023e-10
-3.03542e-10
-2.38473e-10
-2.56787e-10
1.39685e-10
-3.30994e-10
1.21328e-09
-2.66769e-10
-2.88593e-10
-2.40605e-10
-2.54254e-10
1.16065e-10
-2.97433e-10
1.15763e-09
-2.58265e-10
-2.768e-10
-2.39167e-10
-2.49126e-10
9.17631e-11
-2.19318e-10
1.10666e-09
-2.56051e-10
-2.7151e-10
-2.39444e-10
-2.48273e-10
7.15922e-11
-2.0455e-10
1.08671e-09
-2.54342e-10
-2.66822e-10
-2.39423e-10
-2.46609e-10
5.03236e-11
-1.66922e-10
1.07083e-09
-2.55282e-10
-2.64559e-10
-2.41154e-10
-2.46327e-10
3.19305e-11
-1.6124e-10
1.0637e-09
-2.56311e-10
-2.62036e-10
-2.41863e-10
-2.44634e-10
1.51968e-11
-1.48664e-10
1.05834e-09
-2.57789e-10
-2.61022e-10
-2.42685e-10
-2.44028e-10
-1.46271e-10
1.0555e-09
-2.58941e-10
-2.59814e-10
-2.42901e-10
-2.43149e-10
-6.0156e-11
4.34681e-11
9.32038e-11
2.02002e-10
5.88404e-11
9.51964e-10
-3.23529e-10
-3.41361e-10
-2.30427e-10
-2.49649e-10
1.23009e-11
7.61954e-11
-1.12328e-10
-1.02882e-10
6.7598e-11
-1.29124e-10
-1.73195e-10
2.0314e-10
3.26379e-11
1.08818e-09
-3.07904e-10
-3.28643e-10
-2.24078e-10
-2.41347e-10
-3.32275e-11
-1.83604e-10
-2.05878e-10
1.97035e-10
-5.19669e-10
1.33414e-09
-3.07666e-10
-3.25673e-10
-2.46108e-10
-2.59912e-10
1.58289e-10
-4.76295e-10
1.29406e-09
-2.85107e-10
-3.02384e-10
-2.36507e-10
-2.5245e-10
1.28462e-10
-3.57957e-10
1.21961e-09
-2.70247e-10
-2.88459e-10
-2.38771e-10
-2.53664e-10
9.60459e-11
-3.10264e-10
1.16032e-09
-2.58898e-10
-2.74524e-10
-2.39362e-10
-2.49408e-10
6.14335e-11
-2.30989e-10
1.11396e-09
-2.57514e-10
-2.6799e-10
-2.41927e-10
-2.47852e-10
3.56668e-11
-2.25588e-10
1.09526e-09
-2.56919e-10
-2.62531e-10
-2.41814e-10
-2.43884e-10
1.63528e-11
-2.09949e-10
1.08492e-09
-2.58358e-10
-2.61445e-10
-2.42007e-10
-2.42504e-10
-2.06813e-10
1.07959e-09
-2.59719e-10
-2.60333e-10
-2.41391e-10
-2.41198e-10
-5.93427e-11
1.80735e-11
1.00109e-10
-2.19407e-10
-2.62902e-11
7.5242e-11
-3.91726e-11
2.42264e-10
2.59969e-10
7.65778e-11
9.9234e-10
-3.25554e-10
-3.53151e-10
-2.34918e-10
-2.51508e-10
-1.50065e-11
9.05861e-11
-1.80772e-10
-1.62011e-10
8.19279e-12
-1.94498e-10
-2.29915e-10
2.25637e-10
2.28482e-11
1.11913e-09
-3.13621e-10
-3.3671e-10
-2.16926e-10
-2.41559e-10
-4.4515e-11
-2.08241e-10
-2.22374e-10
1.97122e-10
-5.27735e-10
1.33326e-09
-3.03941e-10
-3.25425e-10
-2.40653e-10
-2.64949e-10
1.46668e-10
-4.82842e-10
1.30092e-09
-2.78819e-10
-3.00151e-10
-2.38587e-10
-2.60328e-10
9.52114e-11
-3.54679e-10
1.23257e-09
-2.67993e-10
-2.83629e-10
-2.46741e-10
-2.59065e-10
4.86872e-11
-3.25599e-10
1.18178e-09
-2.65856e-10
-2.73483e-10
-2.48215e-10
-2.47692e-10
2.00642e-11
-3.03065e-10
1.15365e-09
-2.71276e-10
-2.73236e-10
-2.4509e-10
-2.42313e-10
-3.01588e-10
1.144e-09
-2.73807e-10
-2.73551e-10
-2.41389e-10
-2.403e-10
-2.06779e-10
5.24169e-12
1.19218e-11
4.5879e-12
2.61606e-10
-2.25392e-10
-2.46162e-11
6.55288e-11
-4.40423e-11
2.5137e-10
2.82559e-10
7.84932e-11
9.4836e-10
-2.96531e-10
-3.48165e-10
-2.12726e-10
-2.70926e-10
-1.72891e-11
8.90788e-11
-1.96561e-10
-1.92274e-10
7.17327e-12
-1.82994e-10
-2.15934e-10
1.98696e-10
1.95393e-11
1.13598e-09
-3.00589e-10
-3.31252e-10
-2.19105e-10
-2.63221e-10
-5.06915e-11
-1.84354e-10
-2.05287e-10
1.01966e-10
-4.78978e-10
1.36666e-09
-2.95443e-10
-3.14667e-10
-2.57004e-10
-2.7852e-10
1.94454e-11
-5.10666e-10
1.36082e-09
-2.92729e-10
-2.93087e-10
-2.5779e-10
-2.49623e-10
4.53105e-12
-5.00284e-10
1.28445e-09
-2.98142e-10
-2.94404e-10
-2.45194e-10
-2.34572e-10
-4.99362e-10
1.26552e-09
-2.98819e-10
-2.97169e-10
-2.34836e-10
-2.32202e-10
-4.46623e-11
3.94343e-12
-2.37259e-12
4.30915e-11
-2.414e-10
1.38748e-11
1.80401e-11
4.89996e-12
2.83081e-10
-2.31221e-10
-3.58862e-11
8.01634e-11
-3.87233e-11
2.45206e-10
1.89633e-10
5.19641e-11
9.86529e-10
-2.9732e-10
-3.47499e-10
-2.33386e-10
-3.03012e-10
-1.6161e-11
7.64857e-11
-1.90353e-10
-1.6112e-10
1.0315e-11
-1.20359e-10
-1.24699e-10
1.47227e-11
-1.74848e-11
1.21115e-09
-3.45052e-10
-3.36632e-10
-2.97185e-10
-2.65052e-10
4.48965e-11
-1.51376e-10
-1.79024e-10
-8.27541e-12
3.2168e-11
1.04667e-09
-3.40263e-10
-3.25978e-10
-2.48879e-10
-2.18946e-10
3.75833e-11
-2.3106e-10
-2.28581e-10
2.43153e-11
1.04435e-09
-3.38861e-10
-3.36984e-10
-2.26852e-10
-2.25873e-10
2.4333e-11
-2.36566e-10
-2.35212e-10
-8.63119e-11
-1.13863e-11
2.21755e-11
1.27489e-10
-1.63711e-10
3.2196e-12
-6.37587e-11
2.06764e-10
-2.19789e-10
3.94919e-11
-2.66412e-11
-1.82692e-11
2.57376e-10
-2.16841e-10
8.85117e-12
-4.72836e-12
-2.07517e-11
2.57787e-10
-6.09194e-11
-1.62653e-11
6.22637e-13
7.6446e-11
1.41315e-10
-1.03396e-11
9.80755e-10
6.06124e-11
6.07527e-11
-9.43926e-11
-9.47224e-11
1.40315e-10
-9.74463e-12
1.27601e-09
1.46463e-10
-2.21134e-11
1.15979e-09
1.22333e-10
-1.55603e-11
1.11922e-09
1.04832e-10
-1.532e-11
1.08828e-09
8.60571e-11
-1.2476e-11
1.07125e-09
7.12969e-11
-1.15334e-11
1.0577e-09
5.77452e-11
-1.03571e-11
1.049e-09
4.61336e-11
-9.7207e-12
1.04276e-09
3.55892e-11
-9.21228e-12
1.03845e-09
2.59998e-11
-8.85719e-12
1.03548e-09
1.70121e-11
-8.63116e-12
1.03348e-09
8.41534e-12
-8.47123e-12
1.03227e-09
-8.39913e-12
1.03169e-09
-4.84223e-11
-8.8591e-13
-1.73822e-11
3.29106e-13
6.63613e-11
1.34462e-10
-1.81424e-11
9.76937e-10
6.39906e-11
6.43098e-11
-9.29506e-11
-9.28579e-11
1.39433e-10
-1.41346e-11
1.28347e-09
1.47501e-10
-4.6446e-11
1.16972e-09
1.23757e-10
-3.17514e-11
1.12477e-09
1.05737e-10
-3.09564e-11
1.09197e-09
8.68516e-11
-2.52518e-11
1.07346e-09
7.18546e-11
-2.32759e-11
1.05925e-09
5.82053e-11
-2.09746e-11
1.05016e-09
4.64763e-11
-1.96636e-11
1.04368e-09
3.58602e-11
-1.86663e-11
1.03924e-09
2.61937e-11
-1.79271e-11
1.03617e-09
1.71403e-11
-1.74774e-11
1.03412e-09
8.47491e-12
-1.71371e-11
1.03286e-09
-1.69953e-11
1.03226e-09
-8.31896e-12
1.08882e-12
-1.21221e-11
1.93523e-11
1.54301e-10
-4.76758e-11
1.12235e-09
5.72667e-11
3.87855e-11
-8.00899e-11
-5.23126e-11
1.66038e-10
-1.07543e-11
1.34538e-09
1.63027e-10
-6.37047e-11
1.20185e-09
1.35191e-10
-4.67215e-11
1.13796e-09
1.12197e-10
-4.51405e-11
1.10082e-09
9.11332e-11
-3.7754e-11
1.07883e-09
7.44972e-11
-3.48489e-11
1.06291e-09
6.00044e-11
-3.17935e-11
1.05277e-09
4.76591e-11
-2.98652e-11
1.04572e-09
3.66809e-11
-2.85005e-11
1.04093e-09
2.6735e-11
-2.73719e-11
1.03765e-09
1.7485e-11
-2.67302e-11
1.03546e-09
8.64176e-12
-2.61904e-11
1.03412e-09
-2.59833e-11
1.03348e-09
1.15496e-10
6.6608e-11
8.63803e-10
4.4925e-11
5.38515e-11
-5.38207e-11
-5.90544e-11
4.40847e-11
-7.66499e-11
-6.05241e-11
1.47821e-10
-7.33162e-12
1.33076e-09
1.51857e-10
-7.49198e-11
1.23961e-09
1.3555e-10
-6.6432e-11
1.14989e-09
1.13101e-10
-6.02091e-11
1.10829e-09
9.27528e-11
-5.17869e-11
1.08459e-09
7.57886e-11
-4.72753e-11
1.06743e-09
6.12373e-11
-4.36277e-11
1.0564e-09
4.86592e-11
-4.08832e-11
1.04874e-09
3.75287e-11
-3.91789e-11
1.0436e-09
2.73721e-11
-3.75356e-11
1.04001e-09
1.79301e-11
-3.66831e-11
1.03765e-09
8.86426e-12
-3.58627e-11
1.03617e-09
-3.55768e-11
1.03548e-09
-9.24617e-11
9.65743e-12
-1.31973e-11
1.84211e-11
1.4419e-10
1.55811e-10
-5.89118e-11
1.06998e-09
3.98112e-11
6.10703e-11
-6.56377e-11
-7.35368e-11
1.58679e-10
-7.59258e-11
1.29893e-09
1.47427e-10
-8.26408e-11
1.18768e-09
1.22714e-10
-7.38302e-11
1.12499e-09