/*--------------------------------*- C++ -*----------------------------------*\
| =========                 |                                                 |
| \\      /  F ield         | OpenFOAM: The Open Source CFD Toolbox           |
|  \\    /   O peration     | Version:  2.1.1                                 |
|   \\  /    A nd           | Web:      www.OpenFOAM.org                      |
|    \\/     M anipulation  |                                                 |
\*---------------------------------------------------------------------------*/
FoamFile
{
    version     2.0;
    format      ascii;
    class       surfaceScalarField;
    location    "0.005";
    object      phi;
}
// * * * * * * * * * * * * * * * * * * * * * * * * * * * * * * * * * * * * * //

dimensions      [0 3 -1 0 0 0 0];

internalField   nonuniform List<scalar> 
29298
(
-1.43437e-11
-5.88475e-13
5.65404e-11
-4.16086e-11
-1.34693e-13
1.87562e-13
8.71944e-10
6.20178e-11
6.28609e-11
-6.20197e-11
-6.28645e-11
-8.71997e-10
1.78615e-13
-3.10773e-13
1.12571e-09
-1.12572e-09
-4.58568e-14
2.29725e-13
1.12907e-09
-1.12908e-09
9.77136e-14
-1.6509e-13
1.13055e-09
-1.13054e-09
-3.38176e-14
1.06724e-13
1.13554e-09
-1.13553e-09
1.34971e-14
-8.37506e-14
1.13862e-09
-1.13859e-09
-3.97351e-14
2.04559e-14
1.14038e-09
-1.14036e-09
-3.31745e-14
-4.42933e-14
1.14176e-09
-1.14173e-09
-6.27002e-14
6.37643e-15
1.14287e-09
-1.14287e-09
-6.23988e-14
-1.65077e-14
1.144e-09
-1.144e-09
-6.52662e-14
1.20812e-14
1.1451e-09
-1.14511e-09
-5.38927e-14
7.32657e-15
1.14625e-09
-1.14628e-09
-3.39144e-14
2.16421e-14
1.14736e-09
-1.14742e-09
1.44442e-14
1.14825e-09
-1.1483e-09
1.40802e-12
-1.41927e-11
-2.03589e-12
4.97914e-11
-3.49708e-11
-2.03781e-14
1.60616e-16
8.78325e-10
6.47575e-11
6.61146e-11
-6.45989e-11
-6.60157e-11
-8.78374e-10
3.29551e-13
-6.51894e-13
1.13989e-09
-1.1399e-09
-6.65093e-15
5.97661e-13
1.13735e-09
-1.13739e-09
1.26767e-13
-3.06932e-13
1.13493e-09
-1.13492e-09
-1.52125e-14
2.36008e-13
1.13756e-09
-1.13755e-09
2.23306e-14
-1.51072e-13
1.13929e-09
-1.13926e-09
-3.62871e-14
5.468e-14
1.14038e-09
-1.14036e-09
-3.09326e-14
-8.24642e-14
1.14151e-09
-1.14148e-09
-5.92147e-14
2.44048e-14
1.14254e-09
-1.14253e-09
-6.046e-14
-2.17794e-14
1.14368e-09
-1.14367e-09
-6.76371e-14
3.35702e-14
1.14477e-09
-1.14479e-09
-6.74284e-14
1.40936e-14
1.14588e-09
-1.14588e-09
-2.86002e-14
2.87509e-14
1.14684e-09
-1.14688e-09
3.26404e-14
1.14741e-09
-1.14744e-09
1.96598e-12
-8.45542e-12
1.52233e-11
-8.73383e-12
-2.58048e-13
8.9533e-13
9.74105e-10
5.75193e-11
4.01342e-11
-5.74566e-11
-4.0789e-11
-9.74151e-10
1.88055e-14
-8.91805e-13
1.18683e-09
-1.18687e-09
-1.14415e-13
7.32885e-13
1.15497e-09
-1.15497e-09
1.28496e-14
-4.3503e-13
1.1406e-09
-1.1406e-09
-1.4487e-14
2.50563e-13
1.13976e-09
-1.13975e-09
8.25699e-15
-1.98874e-13
1.14002e-09
-1.13999e-09
-7.29437e-15
4.73232e-14
1.14032e-09
-1.14029e-09
-9.11165e-15
-1.10433e-13
1.14108e-09
-1.14105e-09
-2.01812e-14
2.48507e-14
1.14199e-09
-1.14198e-09
-3.44314e-14
-2.68566e-14
1.14308e-09
-1.14306e-09
-4.28845e-14
2.69625e-14
1.14413e-09
-1.14412e-09
-4.38348e-14
7.28178e-15
1.14516e-09
-1.14515e-09
-1.68538e-14
4.33972e-14
1.14591e-09
-1.14595e-09
4.78946e-14
1.14628e-09
-1.1463e-09
-2.48223e-13
5.78539e-11
7.61739e-10
4.27283e-11
4.83502e-11
-4.23898e-11
-4.82433e-11
4.4515e-11
-5.66994e-11
-4.4921e-11
-7.61789e-10
9.76051e-13
-2.09367e-12
1.16277e-09
-1.16279e-09
-1.4769e-13
1.89621e-12
1.16988e-09
-1.16992e-09
9.2978e-14
-6.58001e-13
1.14451e-09
-1.14452e-09
3.3022e-15
3.39597e-13
1.13959e-09
-1.13959e-09
2.73804e-14
-2.47723e-13
1.13933e-09
-1.1393e-09
-5.86538e-15
5.92209e-14
1.13935e-09
-1.13933e-09
-1.22601e-14
-1.31122e-13
1.14e-09
-1.13998e-09
-3.72185e-14
2.20814e-14
1.14093e-09
-1.1409e-09
-5.46774e-14
-4.74778e-14
1.14209e-09
-1.14205e-09
-5.00368e-14
2.69229e-14
1.14319e-09
-1.14319e-09
-4.60296e-14
1.705e-14
1.14415e-09
-1.14417e-09
-2.78345e-14
4.93381e-14
1.14479e-09
-1.14481e-09
4.68981e-14
1.14512e-09
-1.14514e-09
6.50777e-12
-1.35239e-11
1.24014e-11
1.16782e-10
-6.43135e-11
-1.33502e-12
7.73831e-13
9.01398e-10
4.66193e-11
5.50712e-11
-4.7959e-11
-5.52229e-11
-9.01438e-10
1.2125e-13
4.59468e-13
1.15666e-09
-1.15668e-09
-3.65604e-13
-1.70175e-13
1.14729e-09
-1.14729e-09
5.98716e-14
-1.09726e-13
1.13696e-09
-1.13694e-09
1.16637e-14
-2.19826e-13
1.13668e-09
-1.13666e-09
6.10571e-14
-1.63931e-14
1.13722e-09
-1.13719e-09
3.96316e-14
-1.45476e-13
1.1382e-09
-1.13816e-09
3.8761e-14
-7.2634e-15
1.13947e-09
-1.13944e-09
1.76439e-14
-5.12119e-14
1.14087e-09
-1.14084e-09
2.06177e-14
2.64049e-14
1.14206e-09
-1.14206e-09
6.14537e-15
1.82938e-14
1.14307e-09
-1.14305e-09
1.22098e-15
4.94116e-14
1.14368e-09
-1.14367e-09
4.98532e-14
1.14402e-09
-1.14401e-09
-2.54713e-12
-9.66705e-12
-8.46653e-13
4.24123e-11
-2.93515e-11
-1.8042e-13
6.50619e-11
7.21845e-10
5.79732e-11
6.16527e-11
-5.75284e-11
-6.09058e-11
4.47583e-11
-6.4681e-11
-4.53154e-11
-7.21907e-10
1.04275e-12
-7.25959e-13
1.1316e-09
-1.13164e-09
-3.86686e-14
9.27709e-13
1.1553e-09
-1.15532e-09
1.00585e-13
-2.2248e-13
1.13476e-09
-1.13479e-09
2.10749e-14
-1.7009e-13
1.13241e-09
-1.13238e-09
3.6082e-14
-4.95197e-14
1.13403e-09
-1.13402e-09
2.97375e-15
-1.38332e-13
1.13586e-09
-1.13583e-09
-5.58994e-15
-1.66211e-14
1.13773e-09
-1.13771e-09
-4.01979e-14
-4.71249e-14
1.13945e-09
-1.13942e-09
-3.74519e-14
4.57402e-15
1.14088e-09
-1.14086e-09
-3.91837e-14
2.79179e-15
1.14197e-09
-1.14195e-09
-2.14865e-14
2.10825e-14
1.14254e-09
-1.14253e-09
2.40289e-14
1.14288e-09
-1.14287e-09
1.63074e-11
-1.44676e-11
1.40335e-11
1.02272e-10
-5.30833e-11
-1.35586e-12
1.77146e-12
8.81909e-10
4.70209e-11
5.89513e-11
-4.81733e-11
-5.89384e-11
-8.81911e-10
2.90537e-14
-4.13537e-13
1.14629e-09
-1.14633e-09
-1.31861e-13
-6.42399e-14
1.13662e-09
-1.13662e-09
1.84757e-13
-4.7168e-13
1.12782e-09
-1.12784e-09
1.37674e-13
-1.46223e-14
1.12995e-09
-1.12994e-09
1.29921e-13
-1.5128e-13
1.13324e-09
-1.13322e-09
1.31369e-13
-4.74555e-14
1.13587e-09
-1.13584e-09
1.21471e-13
-7.10145e-14
1.13814e-09
-1.13811e-09
9.93197e-14
-2.19294e-15
1.13995e-09
-1.13992e-09
7.02575e-14
4.17313e-16
1.14104e-09
-1.141e-09
3.52002e-14
2.6045e-14
1.14148e-09
-1.14145e-09
3.36527e-14
1.14175e-09
-1.14172e-09
-1.87182e-12
-1.13136e-11
-3.10679e-12
5.16245e-11
-3.53322e-11
-1.78089e-13
5.84401e-11
7.46598e-10
5.84828e-11
6.28633e-11
-5.79532e-11
-6.19415e-11
4.38606e-11
-5.72676e-11
-4.44753e-11
-7.46659e-10
1.22489e-12
-1.78819e-12
1.13618e-09
-1.13621e-09
-1.0044e-13
1.29186e-12
1.14431e-09
-1.14434e-09
6.71515e-15
-5.77844e-13
1.12382e-09
-1.12382e-09
1.62735e-15
-1.44557e-14
1.12502e-09
-1.12502e-09
4.0192e-14
-2.07098e-13
1.13006e-09
-1.13004e-09
3.15226e-15
-2.53413e-14
1.13399e-09
-1.13398e-09
-7.07281e-14
-1.87991e-14
1.13714e-09
-1.13712e-09
-6.12484e-14
-3.32305e-14
1.13927e-09
-1.13924e-09
-6.95176e-14
-1.53122e-14
1.14024e-09
-1.14022e-09
-3.51785e-14
-2.72557e-14
1.14033e-09
-1.14031e-09
-2.04191e-14
1.14036e-09
-1.14034e-09
1.14583e-11
-1.43778e-11
6.04867e-12
1.27917e-10
-7.26065e-11
-1.76331e-12
1.2351e-12
8.81346e-10
4.52703e-11
5.28543e-11
-4.63062e-11
-5.30391e-11
-8.81385e-10
5.66213e-13
-1.01299e-12
1.13191e-09
-1.13193e-09
5.72006e-13
-5.69228e-13
1.12714e-09
-1.12716e-09
4.63684e-13
9.25839e-14
1.12403e-09
-1.12403e-09
1.427e-13
1.24708e-13
1.12781e-09
-1.12782e-09
2.08321e-13
-1.11146e-13
1.13232e-09
-1.1323e-09
2.40524e-13
-6.72435e-14
1.13655e-09
-1.13654e-09
1.90686e-13
-9.40649e-15
1.13919e-09
-1.13916e-09
1.42107e-13
6.87106e-15
1.13989e-09
-1.13986e-09
7.45516e-14
1.09201e-14
1.13919e-09
-1.13916e-09
2.68955e-14
1.13857e-09
-1.13854e-09
2.64399e-12
-1.23335e-11
2.35243e-11
-1.38348e-11
9.80883e-13
4.33395e-11
7.20264e-10
5.68299e-11
5.06207e-11
-5.6352e-11
-5.08598e-11
3.37494e-11
-4.23206e-11
-3.46872e-11
-7.20329e-10
1.00928e-12
-1.00996e-12
1.12261e-09
-1.12265e-09
-1.30149e-12
1.75981e-12
1.13197e-09
-1.13199e-09
5.41987e-14
-1.23414e-12
1.14423e-09
-1.14427e-09
2.10654e-13
-3.71134e-14
1.13649e-09
-1.13648e-09
9.04972e-14
2.76048e-14
1.13458e-09
-1.13461e-09
-3.42579e-13
3.57933e-13
1.13678e-09
-1.13677e-09
-2.61732e-13
-9.23809e-14
1.13939e-09
-1.13939e-09
-2.51213e-13
-1.83673e-14
1.13957e-09
-1.13955e-09
-1.22024e-13
-1.29871e-13
1.13741e-09
-1.1374e-09
-1.03062e-13
1.13547e-09
-1.13545e-09
1.05957e-11
4.5254e-11
-1.25108e-11
-1.22523e-12
5.05768e-11
7.19042e-10
3.38697e-11
4.32957e-11
-3.48427e-11
-4.23974e-11
5.68284e-11
-5.07908e-11
-5.63368e-11
-7.19032e-10
1.78116e-12
5.29961e-11
8.80716e-10
4.53237e-11
-5.3176e-11
-4.63615e-11
-8.80745e-10
4.07003e-13
1.68284e-13
1.13573e-09
-1.13577e-09
-9.33348e-13
1.34424e-12
1.146e-09
-1.14604e-09
1.59797e-13
-1.05272e-12
1.15506e-09
-1.15508e-09
6.58349e-13
-1.24682e-13
1.14705e-09
-1.14707e-09
4.28672e-13
1.43867e-13
1.14424e-09
-1.14425e-09
2.99924e-13
1.03528e-13
1.14031e-09
-1.14031e-09
1.57557e-13
2.05144e-15
1.13467e-09
-1.13466e-09
3.97914e-14
1.13042e-09
-1.1304e-09
1.89037e-11
4.72113e-11
-1.55385e-11
-6.88732e-12
2.99874e-13
1.02045e-11
9.06562e-11
-4.12781e-11
-1.76654e-12
6.28706e-11
7.46319e-10
4.38113e-11
5.84026e-11
-4.44305e-11
-5.72335e-11
5.84941e-11
-6.19496e-11
-5.79688e-11
-7.46378e-10
7.17222e-13
5.89613e-11
8.81663e-10
4.7028e-11
-5.89515e-11
-4.81848e-11
-8.81658e-10
-4.70667e-13
1.70824e-13
1.13138e-09
-1.13142e-09
-1.90197e-12
1.32497e-12
1.15643e-09
-1.15644e-09
-7.41994e-13
-9.80803e-13
1.16957e-09
-1.16961e-09
-6.10531e-13
-2.67753e-14
1.15458e-09
-1.15458e-09
-2.40753e-13
-3.34232e-13
1.13695e-09
-1.13698e-09
-1.86728e-13
1.12887e-09
-1.12888e-09
5.81125e-12
-4.47072e-12
1.08421e-11
1.07409e-10
-5.67208e-11
5.53549e-12
-6.97229e-12
1.26934e-11
9.11657e-11
-4.34627e-11
-7.7163e-13
6.16518e-11
7.21755e-10
4.47523e-11
6.50534e-11
-4.53104e-11
-6.46784e-11
5.7972e-11
-6.09095e-11
-5.75334e-11
-7.21809e-10
2.08714e-12
5.50715e-11
9.01239e-10
4.66135e-11
-5.52261e-11
-4.79573e-11
-9.01275e-10
8.81018e-13
2.41958e-13
1.16244e-09
-1.16246e-09
6.42179e-13
2.42812e-13
1.18627e-09
-1.1863e-09
3.04218e-13
6.42643e-15
1.13922e-09
-1.13922e-09
1.2367e-13
1.1254e-09
-1.1254e-09
-2.916e-12
-4.89949e-12
2.65587e-11
-1.87432e-11
1.14191e-11
-8.42579e-12
7.99473e-12
1.19826e-10
-6.91633e-11
5.84019e-12
-7.03209e-12
1.00413e-11
9.05969e-11
-4.4375e-11
-8.98162e-13
4.83479e-11
7.61571e-10
4.45238e-11
5.78566e-11
-4.49304e-11
-5.67052e-11
4.27231e-11
-4.82427e-11
-4.23881e-11
-7.61616e-10
-1.20948e-14
4.01229e-11
9.73602e-10
5.74698e-11
-4.07789e-11
-5.74166e-11
-9.73641e-10
-1.98312e-13
6.60384e-11
8.77561e-10
6.46764e-11
-6.59483e-11
-6.4526e-11
-8.77606e-10
6.27993e-11
8.71624e-10
6.20133e-11
-6.281e-11
-6.20231e-11
-8.71671e-10
3.43293e-12
6.95493e-12
6.21704e-11
-2.42102e-11
-7.70284e-12
-1.00531e-12
9.10763e-11
-4.22447e-11
4.3704e-12
-1.51126e-12
1.30477e-11
1.02112e-10
-5.19794e-11
-9.57411e-13
1.08605e-12
1.43544e-11
9.688e-11
-4.8563e-11
-4.16121e-11
-1.43476e-11
-5.88445e-13
5.65471e-11
-1.33832e-13
1.9049e-13
8.71883e-10
6.20312e-11
6.28745e-11
-6.2031e-11
-6.2876e-11
1.54753e-13
-3.05789e-13
1.12572e-09
-8.98476e-14
2.41889e-13
1.12907e-09
3.09305e-14
-1.60955e-13
1.13059e-09
-1.17941e-13
1.15109e-13
1.13557e-09
-9.1988e-14
-8.22797e-14
1.13867e-09
-1.60144e-13
3.47369e-14
1.14041e-09
-1.61723e-13
-3.00562e-14
1.14179e-09
-1.8955e-13
3.25603e-14
1.14286e-09
-1.8284e-13
1.43788e-14
1.14398e-09
-1.68427e-13
4.57557e-14
1.14502e-09
-1.28238e-13
4.34337e-14
1.14616e-09
-7.12683e-14
5.87921e-14
1.14724e-09
5.59604e-14
1.14812e-09
-3.49736e-11
1.40829e-12
-1.41961e-11
-2.03606e-12
4.97976e-11
-2.3801e-14
6.33786e-16
8.78278e-10
6.47708e-11
6.61282e-11
-6.46113e-11
-6.60289e-11
3.38881e-13
-6.55037e-13
1.13987e-09
-3.59973e-14
6.15994e-13
1.13735e-09
6.85547e-14
-2.95608e-13
1.13496e-09
-9.74695e-14
2.55556e-13
1.13758e-09
-7.71569e-14
-1.5066e-13
1.13933e-09
-1.49992e-13
8.38295e-14
1.14041e-09
-1.55271e-13
-4.6807e-14
1.14153e-09
-1.83028e-13
7.21376e-14
1.14253e-09
-1.77316e-13
3.55885e-14
1.14365e-09
-1.66774e-13
9.51101e-14
1.14471e-09
-1.30355e-13
8.71403e-14
1.1458e-09
-7.21543e-14
1.09065e-13
1.14673e-09
1.11634e-13
1.14729e-09
-8.73551e-12
1.96622e-12
-8.45732e-12
1.52266e-11
-2.64618e-13
8.99513e-13
9.74058e-10
5.75303e-11
4.01443e-11
-5.74693e-11
-4.07949e-11
7.87674e-15
-8.9694e-13
1.1868e-09
-1.50202e-13
7.63243e-13
1.15498e-09
-4.65474e-14
-4.23058e-13
1.14062e-09
-8.74981e-14
2.69155e-13
1.13979e-09
-8.24547e-14
-2.00765e-13
1.14006e-09
-1.11617e-13
8.68462e-14
1.14034e-09
-1.23866e-13
-6.15611e-14
1.14111e-09
-1.3638e-13
8.75084e-14
1.14199e-09
-1.29677e-13
5.25344e-14
1.14306e-09
-1.38358e-13
1.25838e-13
1.14411e-09
-1.08048e-13
1.08619e-13
1.14511e-09
-5.7159e-14
1.46169e-13
1.14582e-09
1.50704e-13
1.14619e-09
-2.44578e-13
5.7864e-11
7.61689e-10
4.2736e-11
4.83598e-11
-4.23986e-11
-4.82518e-11
4.45263e-11
-5.67139e-11
-4.49285e-11
9.53373e-13
-2.10013e-12
1.16277e-09
-1.73674e-13
1.93385e-12
1.16984e-09
4.10784e-14
-6.56378e-13
1.14453e-09
-6.70883e-14
3.60994e-13
1.13961e-09
-5.57168e-14
-2.5508e-13
1.13937e-09
-1.03448e-13
1.07431e-13
1.13938e-09
-1.20938e-13
-7.62654e-14
1.14003e-09
-1.41062e-13
9.76628e-14
1.14094e-09
-1.37348e-13
3.57872e-14
1.1421e-09
-1.40871e-13
1.24049e-13
1.14319e-09
-1.13167e-13
1.23322e-13
1.14411e-09
-6.08185e-14
1.6527e-13
1.14472e-09
1.68045e-13
1.14505e-09
-6.43206e-11
6.50974e-12
-1.35297e-11
1.24043e-11
1.168e-10
-1.35534e-12
7.67679e-13
9.0136e-10
4.66306e-11
5.50855e-11
-4.79636e-11
-5.52277e-11
1.16589e-13
4.80987e-13
1.15664e-09
-3.9846e-13
-1.49375e-13
1.1473e-09
1.52212e-14
-7.78407e-14
1.13699e-09
-5.52298e-14
-2.18129e-13
1.13671e-09
-1.75226e-14
3.54807e-14
1.13725e-09
-5.03989e-14
-8.10932e-14
1.13824e-09
-4.89227e-14
7.35537e-14
1.1395e-09
-6.15861e-14
3.59048e-14
1.14087e-09
-5.79238e-14
1.28854e-13
1.14205e-09
-4.75319e-14
1.29742e-13
1.14305e-09
-2.65174e-14
1.7437e-13
1.14365e-09
1.7895e-13
1.14399e-09
-2.93538e-11
-2.54702e-12
-9.67016e-12
-8.47085e-13
4.2418e-11
-2.27749e-13
6.50751e-11
7.2181e-10
5.79853e-11
6.1664e-11
-5.75379e-11
-6.0917e-11
4.47716e-11
-6.46938e-11
-4.5319e-11
1.0384e-12
-7.27811e-13
1.13154e-09
-6.94932e-14
9.58401e-13
1.1553e-09
5.87631e-14
-1.99236e-13
1.13475e-09
-4.60623e-14
-1.4633e-13
1.13244e-09
-3.54248e-14
3.67134e-16
1.13405e-09
-7.37072e-14
-7.98382e-14
1.1359e-09
-8.6289e-14
6.20702e-14
1.13775e-09
-1.13169e-13
4.03297e-14
1.13947e-09
-9.94518e-14
1.10812e-13
1.14088e-09
-8.43698e-14
1.1724e-13
1.14197e-09
-4.49558e-14
1.46385e-13
1.14253e-09
1.53293e-13
1.14287e-09
-5.30895e-11
1.63134e-11
-1.44735e-11
1.40364e-11
1.02288e-10
-1.40496e-12
1.84388e-12
8.8188e-10
4.70307e-11
5.89612e-11
-4.81796e-11
-5.8951e-11
4.69776e-15
-4.24949e-13
1.14626e-09
-1.55397e-13
-5.22895e-14
1.13664e-09
1.53893e-13
-4.58712e-13
1.12782e-09
8.82294e-14
3.31255e-14
1.12999e-09
7.0924e-14
-9.90172e-14
1.13327e-09
7.03311e-14
2.44687e-14
1.1359e-09
6.49028e-14
7.45826e-15
1.13818e-09
5.02839e-14
9.50324e-14
1.13998e-09
3.44686e-14
1.04385e-13
1.14106e-09
1.64253e-14
1.41913e-13
1.1415e-09
1.53129e-13
1.14177e-09
-3.53342e-11
-1.8713e-12
-1.13177e-11
-3.10724e-12
5.16304e-11
-1.47288e-13
5.84518e-11
7.46561e-10
5.84971e-11
6.28755e-11
-5.79617e-11
-6.19528e-11
4.38725e-11
-5.72791e-11
-4.448e-11
1.24288e-12
-1.80149e-12
1.13616e-09
-1.413e-13
1.36177e-12
1.14428e-09
-3.60651e-14
-5.83513e-13
1.12384e-09
-4.47227e-14
2.73238e-14
1.12503e-09
-1.38405e-14
-1.64773e-13
1.13009e-09
-4.62241e-14
2.98107e-14
1.13402e-09
-1.17564e-13
4.48022e-14
1.13717e-09
-9.9067e-14
5.14477e-14
1.13929e-09
-9.64733e-14
7.89256e-14
1.14026e-09
-4.92017e-14
7.48616e-14
1.14036e-09
8.59376e-14
1.14039e-09
-7.26146e-11
1.14617e-11
-1.43828e-11
6.05168e-12
1.27935e-10
-1.78422e-12
1.21599e-12
8.81323e-10
4.52826e-11
5.28657e-11
-4.63106e-11
-5.30476e-11
5.80803e-13
-1.00515e-12
1.13191e-09
5.75466e-13
-5.8419e-13
1.12714e-09
4.50804e-13
1.31086e-13
1.12405e-09
1.3421e-13
1.4669e-13
1.12782e-09
1.7564e-13
-5.90849e-14
1.13236e-09
2.06163e-13
-2.2479e-14
1.13659e-09
1.60733e-13
5.84193e-14
1.13923e-09
1.2263e-13
7.59808e-14
1.13993e-09
6.47471e-14
8.99951e-14
1.13923e-09
1.09557e-13
1.13862e-09
-1.38359e-11
2.64433e-12
-1.2336e-11
2.35275e-11
9.87371e-13
4.33012e-11
7.20259e-10
5.68442e-11
5.06389e-11
-5.63597e-11
-5.08628e-11
3.37337e-11
-4.23626e-11
-3.47018e-11
9.94014e-13
-9.77951e-13
1.12258e-09
-1.37101e-12
1.78117e-12
1.13197e-09
4.15884e-14
-1.25282e-12
1.14421e-09
1.85544e-13
-1.36308e-14
1.1365e-09
6.48133e-14
6.01704e-14
1.13458e-09
-3.6918e-13
3.88387e-13
1.13681e-09
-2.80318e-13
-4.61691e-14
1.13941e-09
-2.69878e-13
3.80786e-14
1.13959e-09
-1.29748e-13
-7.19323e-14
1.13743e-09
-3.8999e-14
1.1355e-09
-1.26386e-11
1.06615e-11
4.52785e-11
-1.22821e-12
5.05732e-11
7.18999e-10
3.38983e-11
4.33586e-11
-3.48398e-11
-4.23635e-11
5.68327e-11
-5.08111e-11
-5.63525e-11
1.79042e-12
5.30051e-11
8.80688e-10
4.53345e-11
-5.31857e-11
-4.63666e-11
4.16695e-13
1.36384e-13
1.13572e-09
-9.64227e-13
1.39081e-12
1.14598e-09
1.43628e-13
-1.04894e-12
1.15507e-09
6.48431e-13
-1.25397e-13
1.14706e-09
4.14828e-13
1.65108e-13
1.14426e-09
2.89281e-13
1.37891e-13
1.14034e-09
1.53962e-13
3.0254e-14
1.1347e-09
8.0582e-14
1.13046e-09
-1.5556e-11
1.8909e-11
4.72208e-11
-4.1286e-11
-6.88419e-12
2.94649e-13
1.02073e-11
9.06742e-11
-1.84466e-12
6.28838e-11
7.46285e-10
4.38231e-11
5.84133e-11
-4.4435e-11
-5.72447e-11
5.85086e-11
-6.19611e-11
-5.79759e-11
7.18324e-13
5.8971e-11
8.81633e-10
4.7038e-11
-5.89639e-11
-4.81909e-11
-4.90254e-13
2.16505e-13
1.13133e-09
-1.93872e-12
1.3402e-12
1.15641e-09
-7.6945e-13
-9.62099e-13
1.16953e-09
-6.28417e-13
-1.6589e-14
1.15459e-09
-2.47627e-13
-3.47466e-13
1.13695e-09
-1.64299e-13
1.12888e-09
-5.67265e-11
5.81159e-12
-4.47206e-12
1.0846e-11
1.07424e-10
-4.34695e-11
5.53691e-12
-6.97678e-12
1.26979e-11
9.11841e-11
-7.68059e-13
6.16638e-11
7.21721e-10
4.47654e-11
6.50672e-11
-4.53139e-11
-6.46902e-11
5.79851e-11
-6.09197e-11
-5.75413e-11
2.0902e-12
5.5085e-11
9.01203e-10
4.66247e-11
-5.52314e-11
-4.79623e-11
8.86604e-13
2.30375e-13
1.16245e-09
6.45525e-13
2.48893e-13
1.18625e-09
2.97129e-13
1.16164e-14
1.13921e-09
1.22437e-13
1.12542e-09
-1.87442e-11
-2.91689e-12
-4.90064e-12
2.65618e-11
-6.9169e-11
1.14202e-11
-8.42733e-12
7.99827e-12
1.19842e-10
-4.43834e-11
5.84161e-12
-7.0348e-12
1.00458e-11
9.06149e-11
-9.00309e-13
4.83566e-11
7.61522e-10
4.45341e-11
5.78654e-11
-4.49386e-11
-5.67197e-11
4.27304e-11
-4.82519e-11
-4.2398e-11
-1.01016e-14
4.01331e-11
9.73565e-10
5.74823e-11
-4.0785e-11
-5.74278e-11
-2.00446e-13
6.60528e-11
8.77522e-10
6.46908e-11
-6.59606e-11
-6.45376e-11
6.28132e-11
8.7157e-10
6.20272e-11
-6.28205e-11
-6.20344e-11
-2.42139e-11
3.43221e-12
6.95868e-12
6.21815e-11
-4.22524e-11
-7.70509e-12
-1.00387e-12
9.10936e-11
-5.19879e-11
4.37007e-12
-1.51152e-12
1.30511e-11
1.0213e-10
-4.85716e-11
-9.56132e-13
1.08474e-12
1.43586e-11
9.68983e-11
-4.1616e-11
-1.43519e-11
-5.88553e-13
5.65555e-11
-1.85197e-13
2.01778e-13
8.71858e-10
6.20468e-11
6.28898e-11
-6.20439e-11
-6.28891e-11
1.19262e-13
-3.12806e-13
1.12573e-09
-1.61364e-13
2.64996e-13
1.12907e-09
-7.26848e-14
-1.5603e-13
1.13065e-09
-2.46351e-13
1.28637e-13
1.1356e-09
-2.5358e-13
-6.29216e-14
1.13872e-09
-3.38413e-13
5.77962e-14
1.14042e-09
-3.5457e-13
-1.58676e-15
1.14179e-09
-3.81983e-13
6.77867e-14
1.14281e-09
-3.63904e-13
5.40878e-14
1.14389e-09
-3.18294e-13
9.5088e-14
1.14488e-09
-2.37499e-13
9.66072e-14
1.14598e-09
-1.31681e-13
1.15522e-13
1.14701e-09
1.18584e-13
1.14788e-09
-3.49769e-11
1.40849e-12
-1.42005e-11
-2.03638e-12
4.98053e-11
-3.35219e-14
9.90271e-15
8.78243e-10
6.47867e-11
6.61421e-11
-6.46254e-11
-6.6045e-11
2.94455e-13
-6.52886e-13
1.13988e-09
-9.34692e-14
6.35486e-13
1.13737e-09
-2.47835e-14
-2.84379e-13
1.13501e-09
-2.19885e-13
2.84404e-13
1.13762e-09
-2.31991e-13
-1.12872e-13
1.13939e-09
-3.23195e-13
1.27844e-13
1.14043e-09
-3.43651e-13
5.76236e-15
1.14154e-09
-3.70929e-13
1.40464e-13
1.14248e-09
-3.53031e-13
1.11403e-13
1.14357e-09
-3.10523e-13
1.85293e-13
1.14458e-09
-2.3399e-13
1.85623e-13
1.14563e-09
-1.28779e-13
2.18546e-13
1.14651e-09
2.24575e-13
1.14706e-09
-8.73742e-12
1.9664e-12
-8.45972e-12
1.52307e-11
-2.62401e-13
9.0059e-13
9.74016e-10
5.75423e-11
4.01559e-11
-5.7484e-11
-4.08022e-11
-7.2782e-15
-8.95549e-13
1.18678e-09
-2.12583e-13
8.48032e-13
1.15498e-09
-1.40468e-13
-4.10421e-13
1.14068e-09
-1.98472e-13
2.99197e-13
1.13983e-09
-2.25998e-13
-1.47547e-13
1.14012e-09
-2.71252e-13
1.45799e-13
1.14037e-09
-2.98683e-13
1.14892e-14
1.14113e-09
-3.11849e-13
1.80655e-13
1.14196e-09
-2.99948e-13
1.51713e-13
1.14301e-09
-2.6633e-13
2.46369e-13
1.14402e-09
-2.00658e-13
2.49623e-13
1.14498e-09
-1.08535e-13
2.96423e-13
1.14565e-09
3.03478e-13
1.146e-09
-2.41203e-13
5.78734e-11
7.61645e-10
4.27447e-11
4.83712e-11
-4.24098e-11
-4.82627e-11
4.45387e-11
-5.67329e-11
-4.49384e-11
9.1737e-13
-2.05611e-12
1.16278e-09
-2.12842e-13
1.97497e-12
1.16984e-09
-2.98633e-14
-6.45687e-13
1.14458e-09
-1.68484e-13
4.01179e-13
1.13964e-09
-1.8428e-13
-1.95876e-13
1.13943e-09
-2.50299e-13
1.78689e-13
1.13941e-09
-2.80552e-13
1.02655e-14
1.14006e-09
-3.00798e-13
2.11288e-13
1.14093e-09
-2.94798e-13
1.73153e-13
1.14207e-09
-2.59665e-13
2.82393e-13
1.14311e-09
-1.98431e-13
2.8814e-13
1.14401e-09
-1.06579e-13
3.42711e-13
1.14458e-09
3.49485e-13
1.14491e-09
-6.43294e-11
6.5133e-12
-1.35378e-11
1.24057e-11
1.16822e-10
-1.37627e-12
7.67238e-13
9.01369e-10
4.66437e-11
5.51021e-11
-4.79694e-11
-5.52347e-11
9.02606e-14
5.1037e-13
1.15664e-09
-4.51122e-13
-1.34881e-13
1.14733e-09
-6.20495e-14
-3.66675e-14
1.13704e-09
-1.56598e-13
-1.71821e-13
1.13678e-09
-1.38388e-13
1.12537e-13
1.13729e-09
-1.86308e-13
1.16178e-14
1.13828e-09
-1.85931e-13
1.93793e-13
1.13951e-09
-1.8799e-13
1.74233e-13
1.14087e-09
-1.63027e-13
2.90463e-13
1.14201e-09
-1.23283e-13
3.02837e-13
1.143e-09
-6.6906e-14
3.6236e-13
1.14357e-09
3.72304e-13
1.1439e-09
-2.93568e-11
-2.54746e-12
-9.67366e-12
-8.47329e-13
4.24252e-11
-2.35089e-13
6.509e-11
7.21768e-10
5.79996e-11
6.16774e-11
-5.75491e-11
-6.09311e-11
4.47874e-11
-6.47099e-11
-4.53241e-11
1.0345e-12
-7.23311e-13
1.1315e-09
-1.15084e-13
9.96091e-13
1.15532e-09
-1.22531e-14
-1.67569e-13
1.13478e-09
-1.34353e-13
-1.01045e-13
1.13249e-09
-1.44705e-13
7.89365e-14
1.1341e-09
-1.9283e-13
8.93123e-15
1.13595e-09
-2.05263e-13
1.82103e-13
1.13777e-09
-2.23638e-13
1.75991e-13
1.13948e-09
-1.91461e-13
2.71055e-13
1.14087e-09
-1.5099e-13
2.90004e-13
1.14194e-09
-7.94137e-14
3.35057e-13
1.14248e-09
3.46526e-13
1.14282e-09
-5.30979e-11
1.63198e-11
-1.44805e-11
1.40399e-11
1.02308e-10
-1.45511e-12
1.87457e-12
8.81867e-10
4.70432e-11
5.89738e-11
-4.81854e-11
-5.89641e-11
-3.17376e-14
-4.25856e-13
1.14626e-09
-2.00669e-13
-2.7359e-14
1.13666e-09
8.97666e-14
-4.35359e-13
1.12787e-09
1.09815e-14
1.01989e-13
1.13004e-09
-1.83867e-14
-2.16246e-14
1.13333e-09
-2.16522e-14
1.3478e-13
1.13595e-09
-2.14658e-14
1.28331e-13
1.13822e-09
-2.27104e-14
2.41303e-13
1.14001e-09
-1.72592e-14
2.62922e-13
1.14109e-09
-1.05555e-14
3.15155e-13
1.14152e-09
3.30994e-13
1.14178e-09
-3.53375e-11
-1.87111e-12
-1.1322e-11
-3.10776e-12
5.16384e-11
-1.52385e-13
5.84643e-11
7.4655e-10
5.85126e-11
6.28886e-11
-5.79731e-11
-6.19692e-11
4.38878e-11
-5.72925e-11
-4.44853e-11
1.24962e-12
-1.80572e-12
1.13614e-09
-1.91598e-13
1.41644e-12
1.14428e-09
-9.53382e-14
-5.76011e-13
1.12388e-09
-1.13793e-13
8.49448e-14
1.12506e-09
-9.05181e-14
-9.92354e-14
1.13014e-09
-1.24153e-13
1.24332e-13
1.13406e-09
-1.89802e-13
1.46804e-13
1.13721e-09
-1.56087e-13
1.78113e-13
1.13932e-09
-1.45477e-13
2.18822e-13
1.1403e-09
-7.58119e-14
2.2609e-13
1.14037e-09
2.45165e-13
1.1404e-09
-7.26239e-11
1.14652e-11
-1.43887e-11
6.05366e-12
1.27957e-10
-1.80876e-12
1.2134e-12
8.81315e-10
4.5296e-11
5.2877e-11
-4.63166e-11
-5.30585e-11
5.8677e-13
-9.89263e-13
1.13192e-09
5.66647e-13
-5.92112e-13
1.12718e-09
4.28357e-13
1.81247e-13
1.12409e-09
9.53677e-14
1.88457e-13
1.12786e-09
1.67313e-13
5.44187e-15
1.13241e-09
1.94004e-13
5.37714e-14
1.13665e-09
1.44591e-13
1.61662e-13
1.13929e-09
1.07524e-13
1.89113e-13
1.13999e-09
5.55662e-14
2.14555e-13
1.1393e-09
2.3853e-13
1.13868e-09
-1.38379e-11
2.64443e-12
-1.23387e-11
2.35321e-11
9.67964e-13
4.33353e-11
7.20231e-10
5.68539e-11
5.06445e-11
-5.63747e-11
-5.08795e-11
3.37525e-11
-4.23545e-11
-3.4706e-11
9.80697e-13
-9.77044e-13
1.12255e-09
-1.42628e-12
1.80249e-12
1.13198e-09
1.53922e-14
-1.25906e-12
1.1442e-09
1.51516e-13
2.27138e-14
1.13653e-09
2.34397e-14
1.05099e-13
1.13461e-09
-4.10917e-13
4.39882e-13
1.13686e-09
-3.1117e-13
2.27153e-14
1.13944e-09
-2.96784e-13
1.32311e-13
1.13964e-09
-1.42217e-13
2.0414e-14
1.13747e-09
6.32031e-14
1.13553e-09
-1.25781e-11
1.06337e-11
4.52799e-11
-1.21694e-12
5.05891e-11
7.1899e-10
3.38946e-11
4.33429e-11
-3.48512e-11
-4.23909e-11
5.68473e-11
-5.08188e-11
-5.63641e-11
1.79424e-12
5.30165e-11
8.80683e-10
4.53485e-11
-5.31965e-11
-4.63718e-11
4.16588e-13
1.40115e-13
1.1357e-09
-1.00216e-12
1.44186e-12
1.14597e-09
1.29108e-13
-1.04419e-12
1.15509e-09
6.34852e-13
-9.98951e-14
1.1471e-09
4.01821e-13
2.03162e-13
1.14432e-09
2.77923e-13
2.00452e-13
1.1404e-09
1.48399e-13
8.80535e-14
1.13476e-09
1.52455e-13
1.13052e-09
-1.55504e-11
1.891e-11
4.72293e-11
-4.12948e-11
-6.88279e-12
2.88461e-13
1.0209e-11
9.06946e-11
-1.87775e-12
6.28976e-11
7.46276e-10
4.38388e-11
5.84255e-11
-4.44399e-11
-5.72581e-11
5.85252e-11
-6.19759e-11
-5.7987e-11
7.14251e-13
5.89838e-11
8.81626e-10
4.70505e-11
-5.8977e-11
-4.81965e-11
-5.19204e-13
2.24183e-13
1.13129e-09
-1.97907e-12
1.35981e-12
1.15641e-09
-8.53911e-13
-9.25644e-13
1.16954e-09
-6.47716e-13
-1.275e-15
1.15459e-09
-2.75752e-13
-3.02104e-13
1.13697e-09
-1.27795e-13
1.12889e-09
-5.67331e-11
5.81241e-12
-4.47286e-12
1.08498e-11
1.07443e-10
-4.34792e-11
5.53858e-12
-6.98194e-12
1.27025e-11
9.12054e-11
-7.6924e-13
6.16772e-11
7.21681e-10
4.47814e-11
6.50825e-11
-4.53184e-11
-6.47062e-11
5.80005e-11
-6.09329e-11
-5.75529e-11
2.04486e-12
5.51012e-11
9.01216e-10
4.66387e-11
-5.52383e-11
-4.79679e-11
8.85039e-13
2.29699e-13
1.16246e-09
6.4418e-13
2.48601e-13
1.18624e-09
3.04976e-13
2.44097e-14
1.13922e-09
1.74171e-13
1.12542e-09
-1.87459e-11
-2.9177e-12
-4.9022e-12
2.65659e-11
-6.91772e-11
1.14202e-11
-8.42898e-12
8.0006e-12
1.19862e-10
-4.43929e-11
5.8427e-12
-7.03554e-12
1.00512e-11
9.06369e-11
-9.00292e-13
4.83688e-11
7.61484e-10
4.45465e-11
5.78743e-11
-4.49479e-11
-5.67381e-11
4.27403e-11
-4.82625e-11
-4.24084e-11
-1.73474e-14
4.01447e-11
9.73526e-10
5.74941e-11
-4.07925e-11
-5.74417e-11
-2.10719e-13
6.60689e-11
8.77486e-10
6.47076e-11
-6.59748e-11
-6.45512e-11
6.28292e-11
8.71549e-10
6.20424e-11
-6.28333e-11
-6.20464e-11
-2.42176e-11
3.43313e-12
6.96048e-12
6.21935e-11
-4.22601e-11
-7.70526e-12
-1.00324e-12
9.11134e-11
-5.19973e-11
4.37069e-12
-1.51203e-12
1.30559e-11
1.02153e-10
-4.85823e-11
-9.5701e-13
1.08574e-12
1.43628e-11
9.69206e-11
-4.16208e-11
-1.43566e-11
-5.8813e-13
5.65663e-11
-2.2398e-13
2.12894e-13
8.71857e-10
6.20649e-11
6.29082e-11
-6.20593e-11
-6.2905e-11
6.0395e-14
-3.16808e-13
1.12575e-09
-2.67321e-13
2.86036e-13
1.12911e-09
-2.30569e-13
-1.50362e-13
1.13076e-09
-4.44279e-13
1.53413e-13
1.13565e-09
-4.89609e-13
-5.45013e-14
1.13882e-09
-6.02552e-13
1.00391e-13
1.14042e-09
-6.38518e-13
4.03574e-14
1.14178e-09
-6.7635e-13
1.2114e-13
1.14271e-09
-6.30154e-13
1.14308e-13
1.14372e-09
-5.73611e-13
1.74217e-13
1.14464e-09
-4.22907e-13
1.73138e-13
1.14565e-09
-2.39946e-13
2.15089e-13
1.14662e-09
2.18297e-13
1.14743e-09
-3.49814e-11
1.40843e-12
-1.42056e-11
-2.03643e-12
4.98151e-11
-5.52361e-14
2.06181e-14
8.78228e-10
6.48059e-11
6.61594e-11
-6.46413e-11
-6.60635e-11
2.28646e-13
-6.4337e-13
1.13993e-09
-1.86825e-13
6.5916e-13
1.13741e-09
-1.70916e-13
-2.70015e-13
1.13512e-09
-4.07186e-13
3.31658e-13
1.13768e-09
-4.60418e-13
-9.37901e-14
1.13949e-09
-5.80608e-13
2.12243e-13
1.14043e-09
-6.19908e-13
8.3801e-14
1.14154e-09
-6.57055e-13
2.42838e-13
1.1424e-09
-6.1657e-13
2.23964e-13
1.14343e-09
-5.61851e-13
3.27234e-13
1.14437e-09
-4.15534e-13
3.29039e-13
1.14533e-09
-2.34162e-13
3.94428e-13
1.14615e-09
4.00478e-13
1.14666e-09
-8.73977e-12
1.9663e-12
-8.46217e-12
1.52356e-11
-2.68103e-13
9.00985e-13
9.73989e-10
5.75569e-11
4.01697e-11
-5.75006e-11
-4.08106e-11
-4.38772e-14
-8.82122e-13
1.1868e-09
-3.0518e-13
8.91179e-13
1.15501e-09
-2.77323e-13
-3.93393e-13
1.14077e-09
-3.70367e-13
3.52588e-13
1.1399e-09
-4.3997e-13
-1.1452e-13
1.14021e-09
-5.08e-13
2.38386e-13
1.14041e-09
-5.54475e-13
1.19436e-13
1.14114e-09
-5.6716e-13
3.17974e-13
1.1419e-09
-5.3857e-13
3.0642e-13
1.14289e-09
-4.72806e-13
4.40492e-13
1.14384e-09
-3.47708e-13
4.50127e-13
1.14473e-09
-1.92999e-13
5.42995e-13
1.14535e-09
5.51955e-13
1.14567e-09
-2.36738e-13
5.78845e-11
7.61608e-10
4.2755e-11
4.83847e-11
-4.24227e-11
-4.82756e-11
4.45542e-11
-5.67554e-11
-4.49496e-11
8.72078e-13
-2.01102e-12
1.1628e-09
-2.8705e-13
2.02742e-12
1.16986e-09
-1.4248e-13
-6.33281e-13
1.14467e-09
-3.24425e-13
4.68789e-13
1.13971e-09
-3.77256e-13
-1.57311e-13
1.13953e-09
-4.68769e-13
2.88078e-13
1.13945e-09
-5.16224e-13
1.38497e-13
1.14009e-09
-5.36844e-13
3.75917e-13
1.14089e-09
-5.14633e-13
3.63012e-13
1.14199e-09
-4.60171e-13
5.04838e-13
1.143e-09
-3.46937e-13
5.26232e-13
1.14382e-09
-1.90773e-13
6.01707e-13
1.14437e-09
6.11872e-13
1.14467e-09
-6.43405e-11
6.5171e-12
-1.35468e-11
1.24066e-11
1.16848e-10
-1.41342e-12
8.33978e-13
9.01377e-10
4.66588e-11
5.5121e-11
-4.79765e-11
-5.52446e-11
3.74811e-14
5.45069e-13
1.15667e-09
-5.40072e-13
-1.29521e-13
1.1474e-09
-1.78782e-13
1.99322e-14
1.13713e-09
-3.20444e-13
-1.0482e-13
1.13687e-09
-3.22662e-13
2.27862e-13
1.13736e-09
-3.88396e-13
1.48484e-13
1.13834e-09
-3.8751e-13
3.70368e-13
1.13951e-09
-3.73906e-13
3.77581e-13
1.14084e-09
-3.17293e-13
5.26666e-13
1.14194e-09
-2.34809e-13
5.5619e-13
1.14288e-09
-1.24859e-13
6.4234e-13
1.14342e-09
6.56244e-13
1.14374e-09
-2.936e-11
-2.54766e-12
-9.67806e-12
-8.47697e-13
4.24334e-11
-2.24956e-13
6.51065e-11
7.21774e-10
5.80175e-11
6.16937e-11
-5.75629e-11
-6.09476e-11
4.4806e-11
-6.47318e-11
-4.53314e-11
1.02833e-12
-7.07494e-13
1.1315e-09
-1.87596e-13
1.04163e-12
1.15536e-09
-1.14285e-13
-1.2742e-13
1.13486e-09
-2.71434e-13
-3.25106e-14