/*--------------------------------*- C++ -*----------------------------------*\
| =========                 |                                                 |
| \\      /  F ield         | OpenFOAM: The Open Source CFD Toolbox           |
|  \\    /   O peration     | Version:  2.1.1                                 |
|   \\  /    A nd           | Web:      www.OpenFOAM.org                      |
|    \\/     M anipulation  |                                                 |
\*---------------------------------------------------------------------------*/
FoamFile
{
    version     2.0;
    format      ascii;
    class       surfaceScalarField;
    location    "0.004";
    object      phi;
}
// * * * * * * * * * * * * * * * * * * * * * * * * * * * * * * * * * * * * * //

dimensions      [0 3 -1 0 0 0 0];

internalField   nonuniform List<scalar> 
29352
(
-1.45568e-13
-1.45776e-13
2.50293e-10
1.19964e-13
-4.3975e-13
-1.45354e-13
2.50467e-10
2.46015e-13
-7.41369e-13
-1.48992e-13
2.50642e-10
3.71928e-13
-1.06463e-12
-1.52941e-13
2.50841e-10
5.20241e-13
-1.40963e-12
-1.59586e-13
2.51044e-10
6.61736e-13
-1.7994e-12
-1.66665e-13
2.513e-10
8.56343e-13
-2.23682e-12
-1.76483e-13
2.5155e-10
1.03037e-12
-2.78462e-12
-1.89036e-13
2.51938e-10
1.34471e-12
-3.43383e-12
-2.0293e-13
2.52285e-10
1.5892e-12
-4.4272e-12
-2.21825e-13
2.53057e-10
2.36171e-12
-6.02991e-12
-2.34396e-13
2.53916e-10
3.33448e-12
-1.08874e-11
-2.49638e-13
2.58033e-10
8.31634e-12
-2.10347e-11
6.72485e-14
2.64369e-10
1.59457e-11
-3.46608e-11
1.25057e-12
2.73499e-10
3.75038e-11
-6.38399e-11
3.67792e-12
2.64672e-10
1.20023e-13
-1.45269e-13
-4.39712e-13
2.50467e-10
1.19863e-13
1.19469e-13
-4.45055e-13
-4.44841e-13
2.5065e-10
1.20412e-13
2.44901e-13
-7.48514e-13
-4.53915e-13
2.50837e-10
1.21527e-13
3.6829e-13
-1.07342e-12
-4.66791e-13
2.5105e-10
1.22747e-13
5.15325e-13
-1.42149e-12
-4.84647e-13
2.51268e-10
1.27617e-13
6.55333e-13
-1.81499e-12
-5.11088e-13
2.51543e-10
1.34079e-13
8.49029e-13
-2.25804e-12
-5.4521e-13
2.5182e-10
1.47662e-13
1.02519e-12
-2.81344e-12
-5.92321e-13
2.52232e-10
1.68931e-13
1.34124e-12
-3.47417e-12
-6.52295e-13
2.52616e-10
2.18639e-13
1.60233e-12
-4.48048e-12
-7.44372e-13
2.53404e-10
3.12173e-13
2.39898e-12
-6.08538e-12
-8.34475e-13
2.54212e-10
6.04328e-13
3.47468e-12
-1.08945e-11
-9.49686e-13
2.5786e-10
2.69469e-13
8.5685e-12
-2.11626e-11
-9.62514e-14
2.63458e-10
-1.71786e-12
1.63037e-11
-3.34364e-11
2.89201e-12
2.70463e-10
-7.05546e-12
3.41977e-11
-5.73477e-11
1.05859e-11
2.59374e-10
2.45905e-13
-1.48783e-13
-7.41294e-13
2.50642e-10
2.44624e-13
1.20064e-13
-4.53262e-13
-7.48692e-13
2.50837e-10
2.45221e-13
2.4706e-13
-7.64248e-13
-7.64523e-13
2.51036e-10
2.48324e-13
3.6582e-13
-1.09453e-12
-7.86132e-13
2.51266e-10
2.5345e-13
5.13049e-13
-1.44964e-12
-8.18083e-13
2.51501e-10
2.61648e-13
6.55854e-13
-1.8542e-12
-8.60428e-13
2.51797e-10
2.79326e-13
8.50294e-13
-2.31033e-12
-9.1742e-13
2.52098e-10
3.0758e-13
1.03056e-12
-2.88145e-12
-9.97366e-13
2.5254e-10
3.49566e-13
1.34883e-12
-3.57286e-12
-1.09985e-12
2.52974e-10
4.44656e-13
1.63114e-12
-4.61373e-12
-1.27645e-12
2.53814e-10
6.07131e-13
2.43521e-12
-6.26218e-12
-1.50077e-12
2.54716e-10
9.97864e-13
3.61537e-12
-1.08256e-11
-2.09656e-12
2.5832e-10
9.45075e-13
8.28737e-12
-2.02035e-11
-2.0207e-12
2.63642e-10
-3.33762e-12
1.62812e-11
-3.71843e-11
1.92993e-12
2.7569e-10
-1.34498e-11
5.464e-11
-8.20908e-11
1.93283e-12
3.04516e-10
3.71763e-13
-1.52858e-13
-1.06448e-12
2.50842e-10
3.68214e-13
1.21097e-13
-4.66797e-13
-1.07348e-12
2.5105e-10
3.66266e-13
2.48711e-13
-7.86732e-13
-1.09442e-12
2.51266e-10
3.70776e-13
3.68318e-13
-1.12684e-12
-1.12647e-12
2.51514e-10
3.74191e-13
5.12396e-13
-1.4925e-12
-1.1761e-12
2.51782e-10
3.7915e-13
6.52043e-13
-1.90997e-12
-1.24148e-12
2.5212e-10
3.90667e-13
8.48789e-13
-2.3835e-12
-1.33075e-12
2.52474e-10
4.06919e-13
1.02836e-12
-2.97601e-12
-1.4591e-12
2.52999e-10
4.23487e-13
1.33238e-12
-3.72308e-12
-1.65452e-12
2.53621e-10
4.76385e-13
1.63793e-12
-4.86558e-12
-2.01825e-12
2.54769e-10
5.72668e-13
2.41707e-12
-6.94496e-12
-2.72905e-12
2.56677e-10
1.20967e-12
3.99108e-12
-1.17782e-11
-4.69925e-12
2.61312e-10
2.84338e-12
8.18737e-12
-1.91843e-11
-8.42349e-12
2.67528e-10
6.54522e-12
1.55028e-11
-2.73553e-11
-1.85019e-11
2.76676e-10
3.66812e-13
7.83028e-11
-2.13912e-11
1.77919e-10
5.19962e-13
-1.59693e-13
-1.4094e-12
2.51044e-10
5.14963e-13
1.22172e-13
-4.84659e-13
-1.42147e-12
2.51269e-10
5.12465e-13
2.5326e-13
-8.1764e-13
-1.44974e-12
2.51501e-10
5.11133e-13
3.73247e-13
-1.17502e-12
-1.49255e-12
2.51783e-10
5.21605e-13
5.25998e-13
-1.55946e-12
-1.56002e-12
2.52071e-10
5.362e-13
6.63822e-13
-2.00271e-12
-1.64715e-12
2.52449e-10
5.58665e-13
8.60814e-13
-2.51416e-12
-1.7746e-12
2.52869e-10
5.91161e-13
1.05054e-12
-3.17328e-12
-1.95663e-12
2.53488e-10
6.50806e-13
1.38945e-12
-4.06918e-12
-2.25437e-12
2.54283e-10
7.81821e-13
1.80075e-12
-5.61984e-12
-2.80842e-12
2.55845e-10
1.18898e-12
2.91655e-12
-8.99168e-12
-4.10198e-12
2.58992e-10
2.82704e-12
5.75577e-12
-1.57293e-11
-7.17798e-12
2.64572e-10
8.30602e-12
1.19972e-11
-2.55367e-11
-1.341e-11
2.70667e-10
2.51404e-11
2.72018e-11
-3.90426e-11
-3.76321e-11
2.76295e-10
1.48589e-11
7.86792e-11
6.45886e-11
6.61273e-13
-1.67097e-13
-1.79908e-12
2.51301e-10
6.54749e-13
1.26639e-13
-5.11157e-13
-1.81514e-12
2.51544e-10
6.55365e-13
2.61144e-13
-8.60319e-13
-1.8548e-12
2.51798e-10
6.53031e-13
3.78894e-13
-1.24016e-12
-1.91079e-12
2.52119e-10
6.59499e-13
5.36382e-13
-1.64786e-12
-2.00404e-12
2.52456e-10
6.68208e-13
6.69464e-13
-2.12185e-12
-2.12249e-12
2.52906e-10
6.88302e-13
8.84925e-13
-2.68062e-12
-2.30358e-12
2.53411e-10
7.11944e-13
1.08704e-12
-3.43982e-12
-2.56312e-12
2.54204e-10
7.63807e-13
1.48847e-12
-4.57727e-12
-2.99722e-12
2.55322e-10
9.20195e-13
2.12137e-12
-6.93002e-12
-3.83594e-12
2.57724e-10
1.62293e-12
3.9942e-12
-1.2366e-11
-5.92798e-12
2.62746e-10
4.51247e-12
8.54403e-12
-2.08357e-11
-1.02172e-11
2.68807e-10
1.23968e-11
1.60317e-11
-2.88842e-11
-1.89817e-11
2.73012e-10
3.44024e-11
3.28757e-11
-7.49505e-11
-3.07331e-11
2.7767e-10
8.55676e-13
-1.77384e-13
-2.23647e-12
2.51552e-10
8.48182e-13
1.32768e-13
-5.45612e-13
-2.25819e-12
2.51822e-10
8.49573e-13
2.78741e-13
-9.17584e-13
-2.31106e-12
2.521e-10
8.48027e-13
3.89815e-13
-1.33028e-12
-2.38462e-12
2.52477e-10
8.61021e-13
5.58408e-13
-1.77459e-12
-2.5157e-12
2.5287e-10
8.84455e-13
6.88922e-13
-2.30292e-12
-2.68202e-12
2.53411e-10
9.42322e-13
9.42691e-13
-2.94359e-12
-2.94486e-12
2.54003e-10
1.02731e-12
1.1873e-12
-3.86129e-12
-3.28765e-12
2.54934e-10
1.22732e-12
1.76848e-12
-5.4136e-12
-3.83509e-12
2.56254e-10
1.7339e-12
2.86503e-12
-9.14651e-12
-5.01646e-12
2.59596e-10
3.61017e-12
6.38018e-12
-1.71386e-11
-7.76641e-12
2.65262e-10
9.65731e-12
1.31735e-11
-2.95666e-11
-1.28242e-11
2.71507e-10
2.36791e-11
2.82798e-11
-2.71826e-11
-2.03133e-11
2.49439e-10
4.05976e-11
5.73237e-11
-7.93316e-12
1.70876e-10
1.02939e-12
-1.9058e-13
-2.78412e-12
2.51941e-10
1.02387e-12
1.45607e-13
-5.93138e-13
-2.81377e-12
2.52237e-10
1.02934e-12
3.06831e-13
-9.97938e-13
-2.88249e-12
2.52544e-10
1.02725e-12
4.05981e-13
-1.45912e-12
-2.97754e-12
2.53003e-10
1.04967e-12
5.90878e-13
-1.95653e-12
-3.17522e-12
2.53491e-10
1.08608e-12
7.11943e-13
-2.56211e-12
-3.44209e-12
2.54206e-10
1.18625e-12
1.02708e-12
-3.2859e-12
-3.86367e-12
2.54936e-10
1.31738e-12
1.31808e-12
-4.3551e-12
-4.35851e-12
2.56081e-10
1.57422e-12
2.13669e-12
-6.50947e-12
-5.28146e-12
2.58125e-10
2.33404e-12
3.96756e-12
-1.19497e-11
-7.0333e-12
2.63025e-10
5.28682e-12
9.37945e-12
-2.20848e-11
-1.10051e-11
2.6992e-10
1.20858e-11
1.80425e-11
-3.10624e-11
-1.97137e-11
2.74444e-10
2.75239e-11
3.33166e-11
-5.70945e-11
-2.43351e-11
2.63967e-10
1.34325e-12
-2.05268e-13
-3.43333e-12
2.5229e-10
1.33943e-12
1.66582e-13
-6.53733e-13
-3.47444e-12
2.52622e-10
1.3472e-12
3.4866e-13
-1.10112e-12
-3.57417e-12
2.52979e-10
1.33097e-12
4.22467e-13
-1.65513e-12
-3.7251e-12
2.53627e-10
1.38834e-12
6.50483e-13
-2.25478e-12
-4.07192e-12
2.54288e-10
1.48775e-12
7.63645e-13
-2.99603e-12
-4.58015e-12
2.55325e-10
1.76807e-12
1.22647e-12
-3.83253e-12
-5.41664e-12
2.56256e-10
2.13756e-12
1.57447e-12
-5.27557e-12
-6.51375e-12
2.58123e-10
3.04849e-12
3.04538e-12
-8.20842e-12
-8.21777e-12
2.60702e-10
4.91841e-12
6.0519e-12
-1.54142e-11
-1.07368e-11
2.66783e-10
1.05064e-11
1.32857e-11
-2.7155e-11
-1.38852e-11
2.71442e-10
2.86264e-11
2.75496e-11
-3.70669e-11
-4.0428e-11
2.74226e-10
2.32395e-11
7.4776e-11
1.0655e-10
1.58722e-12
-2.25564e-13
-4.42666e-12
2.53064e-10
1.59946e-12
2.14187e-13
-7.46796e-13
-4.48125e-12
2.53414e-10
1.6286e-12
4.4383e-13
-1.27882e-12
-4.61562e-12
2.53822e-10
1.63572e-12
4.75232e-13
-2.01958e-12
-4.86875e-12
2.54777e-10
1.79893e-12
7.81689e-13
-2.80901e-12
-5.62364e-12
2.55851e-10
2.11965e-12
9.19684e-13
-3.83386e-12
-6.93398e-12
2.57728e-10
2.86284e-12
1.73152e-12
-5.01098e-12
-9.15049e-12
2.59599e-10
3.9651e-12
2.33009e-12
-7.01796e-12
-1.1955e-11
2.63021e-10
6.05297e-12
4.90358e-12
-1.0708e-11
-1.5427e-11
2.6678e-10
9.26664e-12
9.24484e-12
-1.79917e-11
-1.80529e-11
2.71655e-10
1.18746e-11
1.61061e-11
-3.01249e-11
-2.39504e-11
2.80957e-10
3.37749e-11
4.1813e-11
-2.83108e-11
-2.34228e-11
2.40848e-10
2.35889e-12
-2.40165e-13
-6.03005e-12
2.53928e-10
2.39643e-12
3.05916e-13
-8.38374e-13
-6.08726e-12
2.54227e-10
2.43287e-12
6.06513e-13
-1.50476e-12
-6.266e-12
2.54727e-10
2.41561e-12
5.7222e-13
-2.73142e-12
-6.94957e-12
2.56686e-10
2.91607e-12
1.18978e-12
-4.10264e-12
-8.99636e-12
2.58997e-10
3.99379e-12
1.62245e-12
-5.92456e-12
-1.237e-11
2.62747e-10
6.37854e-12
3.60551e-12
-7.75736e-12
-1.7142e-11
2.65263e-10
9.37842e-12
5.27707e-12
-1.09795e-11
-2.20875e-11
2.69907e-10
1.32949e-11
1.04733e-11
-1.38592e-11
-2.71605e-11
2.71437e-10
1.61683e-11
1.18639e-11
-2.38262e-11
-3.01129e-11
2.80742e-10
4.4388e-11
4.42547e-11
-4.7237e-11
-4.73999e-11
2.785e-10
3.33249e-12
-2.58736e-13
-1.08876e-11
2.58047e-10
3.4707e-12
5.95851e-13
-9.56599e-13
-1.08977e-11
2.57882e-10
3.61272e-12
9.99288e-13
-2.10355e-12
-1.08307e-11
2.58333e-10
3.98991e-12
1.20966e-12
-4.70117e-12
-1.17836e-11
2.6132e-10
5.75557e-12
2.8297e-12
-7.17782e-12
-1.57337e-11
2.64574e-10
8.54271e-12
4.5119e-12
-1.02125e-11
-2.08396e-11
2.68809e-10
1.31703e-11
9.65012e-12
-1.28134e-11
-2.95694e-11
2.7151e-10
1.80381e-11
1.20726e-11
-1.96933e-11
-3.10649e-11
2.74444e-10
2.75482e-11
2.86021e-11
-4.04025e-11
-3.70703e-11
2.74217e-10
4.17896e-11
3.37561e-11
-2.33668e-11
-2.83103e-11
2.4075e-10
8.31574e-12
6.22592e-14
-2.10454e-11
2.64379e-10
8.56552e-12
2.7333e-13
-1.08044e-13
-2.11654e-11
2.63471e-10
8.28434e-12
9.51647e-13
-2.02694e-12
-2.02091e-11
2.6365e-10
8.18445e-12
2.84695e-12
-8.42509e-12
-1.91858e-11
2.6753e-10
1.19978e-11
8.3097e-12
-1.34096e-11
-2.55393e-11
2.70665e-10
1.60346e-11
1.23952e-11
-1.89775e-11
-2.88869e-11
2.73009e-10
2.82829e-11
2.36737e-11
-2.03049e-11
-2.71889e-11
2.49441e-10
3.33217e-11
2.75144e-11
-2.43251e-11
-5.7106e-11
2.63976e-10
7.4783e-11
2.32381e-11
1.06552e-10
1.59484e-11
1.22794e-12
-3.46467e-11
2.73485e-10
1.62991e-11
-1.70284e-12
2.86312e-12
-3.34093e-11
2.70446e-10
1.62976e-11
-3.30199e-12
1.84179e-12
-3.71669e-11
2.75706e-10
1.54962e-11
6.56768e-12
-1.85063e-11
-2.73628e-11
2.76671e-10
2.72002e-11
2.51466e-11
-3.76318e-11
-3.90415e-11
2.76288e-10
3.28762e-11
3.43993e-11
-3.07259e-11
-7.49499e-11
2.77665e-10
5.73329e-11
4.05838e-11
-7.92468e-12
1.7088e-10
3.74284e-11
3.47487e-12
-6.36638e-11
2.64808e-10
3.41615e-11
-6.90269e-12
1.05154e-11
-5.73266e-11
2.59281e-10
5.46268e-11
-1.34207e-11
1.92229e-12
-8.20715e-11
3.04479e-10
7.83024e-11
3.71868e-13
-2.13941e-11
1.77916e-10
7.86719e-11
1.48624e-11
6.45883e-11
-6.6614e-12
-6.66373e-12
1.01444e-09
-2.50825e-10
-2.50273e-10
-2.50272e-10
-2.49727e-10
-1.35557e-11
-6.73588e-12
1.01477e-09
-2.51402e-10
-2.49717e-10
-2.50833e-10
-2.49174e-10
-2.09189e-11
-6.92014e-12
1.01541e-09
-2.51981e-10
-2.49143e-10
-2.51391e-10
-2.48601e-10
-2.90929e-11
-7.17059e-12
1.01659e-09
-2.52636e-10
-2.48566e-10
-2.5202e-10
-2.48022e-10
-3.85364e-11
-7.59777e-12
1.01825e-09
-2.53283e-10
-2.47919e-10
-2.52635e-10
-2.47371e-10
-4.98565e-11
-8.18716e-12
1.02104e-09
-2.54121e-10
-2.47264e-10
-2.53431e-10
-2.46716e-10
-6.42863e-11
-9.02813e-12
1.02483e-09
-2.5489e-10
-2.46429e-10
-2.54157e-10
-2.45889e-10
-8.29795e-11
-1.04013e-11
1.03135e-09
-2.56162e-10
-2.45604e-10
-2.55375e-10
-2.45096e-10
-1.09638e-10
-1.1979e-11
1.04028e-09
-2.57089e-10
-2.44338e-10
-2.56288e-10
-2.43903e-10
-1.4536e-10
-1.49867e-11
1.05522e-09
-2.59505e-10
-2.43274e-10
-2.58677e-10
-2.43015e-10
-2.06659e-10
-1.60527e-11
1.08034e-09
-2.60043e-10
-2.41649e-10
-2.5944e-10
-2.41791e-10
-3.15665e-10
-1.68279e-11
1.15409e-09
-2.72659e-10
-2.40797e-10
-2.72802e-10
-2.41879e-10
-5.25556e-10
-2.47452e-12
1.27937e-09
-2.98213e-10
-2.33034e-10
-2.99872e-10
-2.35693e-10
2.34044e-11
9.33418e-12
1.01516e-09
-3.35253e-10
-2.24479e-10
-3.37162e-10
-2.25479e-10
2.34571e-11
-2.36446e-10
-2.37751e-10
-2.2306e-10
-2.34436e-11
4.65216e-12
2.65396e-10
-6.7386e-12
-1.35582e-11
1.01477e-09
-2.51402e-10
-2.50834e-10
-2.49716e-10
-2.49173e-10
-1.37163e-11
-1.3711e-11
1.01511e-09
-2.52001e-10
-2.50272e-10
-2.50271e-10
-2.48622e-10
-2.1155e-11
-1.4107e-11
1.01578e-09
-2.52607e-10
-2.49697e-10
-2.50812e-10
-2.48043e-10
-2.94261e-11
-1.46187e-11
1.01702e-09
-2.533e-10
-2.49123e-10
-2.51417e-10
-2.47452e-10
-3.89832e-11
-1.55238e-11
1.01875e-09
-2.53997e-10
-2.48488e-10
-2.51998e-10
-2.46788e-10
-5.04829e-11
-1.6721e-11
1.02166e-09
-2.54897e-10
-2.4785e-10
-2.52752e-10
-2.46123e-10
-6.51476e-11
-1.852e-11
1.02567e-09
-2.55747e-10
-2.47051e-10
-2.53427e-10
-2.45295e-10
-8.42461e-11
-2.13659e-11
1.03252e-09
-2.57106e-10
-2.46268e-10
-2.54555e-10
-2.44528e-10
-1.11356e-10
-2.48878e-11
1.04213e-09
-2.58169e-10
-2.45097e-10
-2.55422e-10
-2.43422e-10
-1.47284e-10
-3.15557e-11
1.05764e-09
-2.60693e-10
-2.44125e-10
-2.57566e-10
-2.42758e-10
-2.0866e-10
-3.47476e-11
1.08457e-09
-2.61143e-10
-2.42879e-10
-2.58145e-10
-2.42331e-10
-3.15884e-10
-4.2965e-11
1.16394e-09
-2.72189e-10
-2.42868e-10
-2.69763e-10
-2.45763e-10
-5.24899e-10
-1.91188e-11
1.3019e-09
-2.9536e-10
-2.35482e-10
-2.99227e-10
-2.46175e-10
3.69792e-11
-1.48042e-11
1.02065e-09
-3.24302e-10
-2.17583e-10
-3.38706e-10
-2.47593e-10
3.12961e-11
-2.29429e-10
-2.32073e-10
-2.15047e-10
-8.78378e-12
-1.81501e-11
2.67325e-11
2.52229e-10
-6.9212e-12
-2.09232e-11
1.01541e-09
-2.51981e-10
-2.51391e-10
-2.49143e-10
-2.486e-10
-1.41106e-11
-2.11502e-11
1.01578e-09
-2.52607e-10
-2.50811e-10
-2.49696e-10
-2.48042e-10
-2.17895e-11
-2.17878e-11
1.01651e-09
-2.53246e-10
-2.50229e-10
-2.50228e-10
-2.4745e-10
-3.04199e-11
-2.25523e-11
1.01784e-09
-2.53983e-10
-2.49646e-10
-2.50814e-10
-2.46842e-10
-4.04603e-11
-2.39868e-11
1.01973e-09
-2.54726e-10
-2.48998e-10
-2.51362e-10
-2.46141e-10
-5.27666e-11
-2.57319e-11
1.02287e-09
-2.55683e-10
-2.48358e-10
-2.52066e-10
-2.45444e-10
-6.86375e-11
-2.85622e-11
1.02732e-09
-2.56596e-10
-2.47554e-10
-2.52674e-10
-2.44572e-10
-8.9794e-11
-3.28483e-11
1.03485e-09
-2.58011e-10
-2.46765e-10
-2.53676e-10
-2.43753e-10
-1.19481e-10
-3.88964e-11
1.04547e-09
-2.59149e-10
-2.45614e-10
-2.5443e-10
-2.42588e-10
-1.58634e-10
-5.00195e-11
1.06204e-09
-2.61662e-10
-2.44669e-10
-2.56129e-10
-2.41964e-10
-2.22481e-10
-6.06752e-11
1.09495e-09
-2.61916e-10
-2.44164e-10
-2.56737e-10
-2.4236e-10
-3.37139e-10
-9.25928e-11
1.19923e-09
-2.71919e-10
-2.48619e-10
-2.65131e-10
-2.49277e-10
-5.34548e-10
-1.12663e-10
1.38932e-09
-2.9428e-10
-2.51007e-10
-2.9398e-10
-2.59101e-10
4.37341e-11
-1.91846e-10
1.18995e-09
-3.35776e-10
-2.64216e-10
-3.44166e-10
-2.9637e-10
-1.80376e-11
-1.80611e-10
-1.52018e-10
-2.32448e-10
-3.95294e-11
-6.26534e-12
6.33331e-11
2.58643e-10
-7.1744e-12
-2.90987e-11
1.01659e-09
-2.52636e-10
-2.5202e-10
-2.48566e-10
-2.4802e-10
-1.46256e-11
-2.9418e-11
1.01702e-09
-2.53301e-10
-2.51419e-10
-2.49122e-10
-2.47451e-10
-2.2558e-11
-3.04141e-11
1.01784e-09
-2.53985e-10
-2.5082e-10
-2.49644e-10
-2.46841e-10
-3.14811e-11
-3.1469e-11
1.01932e-09
-2.54789e-10
-2.50238e-10
-2.50234e-10
-2.46213e-10
-4.18224e-11
-3.36676e-11
1.02146e-09
-2.55608e-10
-2.49595e-10
-2.50758e-10
-2.45481e-10
-5.46026e-11
-3.60216e-11
1.0249e-09
-2.56666e-10
-2.48977e-10
-2.51431e-10
-2.44754e-10
-7.0998e-11
-4.02822e-11
1.02998e-09
-2.57756e-10
-2.48242e-10
-2.52017e-10
-2.43852e-10
-9.30706e-11
-4.60743e-11
1.03818e-09
-2.59373e-10
-2.47572e-10
-2.52947e-10
-2.42985e-10
-1.22663e-10
-5.56686e-11
1.04962e-09
-2.61045e-10
-2.46691e-10
-2.53719e-10
-2.41809e-10
-1.62895e-10
-7.126e-11
1.06808e-09
-2.63927e-10
-2.46273e-10
-2.55048e-10
-2.41361e-10
-2.30255e-10
-9.57896e-11
1.11755e-09
-2.66828e-10
-2.48174e-10
-2.57423e-10
-2.42656e-10
-3.69393e-10
-1.49517e-10
1.2546e-09
-2.82948e-10
-2.59952e-10
-2.68098e-10
-2.47545e-10
-4.9649e-10
-2.14852e-10
1.37725e-09
-3.15587e-10
-2.78994e-10
-2.95819e-10
-2.57564e-10
1.03759e-11
-1.5523e-11
9.59844e-10
-3.46007e-10
-3.01767e-10
-2.96516e-10
-2.32265e-10
5.19762e-11
-1.24705e-10
-1.20474e-10
7.66395e-11
-1.88966e-10
-1.60945e-10
-1.34478e-10
-2.83236e-12
-2.24326e-11
1.70119e-10
-7.60193e-12
-3.85444e-11
1.01825e-09
-2.53284e-10
-2.52633e-10
-2.47919e-10
-2.47368e-10
-1.55297e-11
-3.89718e-11
1.01875e-09
-2.53999e-10
-2.52e-10
-2.48488e-10
-2.46786e-10
-2.39909e-11
-4.04551e-11
1.01973e-09
-2.54727e-10
-2.51364e-10
-2.48996e-10
-2.46138e-10
-3.36785e-11
-4.18124e-11
1.02145e-09
-2.55608e-10
-2.50757e-10
-2.49589e-10
-2.45477e-10
-4.49984e-11
-4.49876e-11
1.02399e-09
-2.56508e-10
-2.50079e-10
-2.50078e-10
-2.44674e-10
-5.94674e-11
-4.78153e-11
1.028e-09
-2.57682e-10
-2.49449e-10
-2.50716e-10
-2.43884e-10
-7.86371e-11
-5.36491e-11
1.03413e-09
-2.5888e-10
-2.48644e-10
-2.51218e-10
-2.42853e-10
-1.05572e-10
-6.02867e-11
1.04358e-09
-2.60704e-10
-2.47875e-10
-2.52066e-10
-2.41786e-10
-1.43197e-10
-7.26619e-11
1.05712e-09
-2.62783e-10
-2.46794e-10
-2.52613e-10
-2.40314e-10
-2.02666e-10
-9.12517e-11
1.08605e-09
-2.65944e-10
-2.4669e-10
-2.54091e-10
-2.39868e-10
-3.20989e-10
-1.2916e-10
1.17461e-09
-2.73648e-10
-2.50032e-10
-2.58955e-10
-2.40284e-10
-5.02901e-10
-2.06811e-10
1.31911e-09
-3.00536e-10
-2.60876e-10
-2.79317e-10
-2.39171e-10
-5.20106e-11
-2.92171e-10
1.11247e-09
-3.30482e-10
-2.62799e-10
-2.99694e-10
-2.18411e-10
1.8196e-11
-2.0685e-10
-1.86002e-10
-2.61089e-10
-5.64456e-11
-7.97335e-11
3.29735e-10
-3.53252e-11
1.13959e-11
-1.24248e-11
3.63541e-11
-8.1923e-12
-4.98684e-11
1.02104e-09
-2.54124e-10
-2.53429e-10
-2.47265e-10
-2.4671e-10
-1.67279e-11
-5.04664e-11
1.02166e-09
-2.54902e-10
-2.52754e-10
-2.47851e-10
-2.46119e-10
-2.57369e-11
-5.27605e-11
1.02286e-09
-2.55687e-10
-2.52069e-10
-2.48355e-10
-2.45439e-10
-3.60263e-11
-5.45879e-11
1.0249e-09
-2.56671e-10
-2.51436e-10
-2.48973e-10
-2.4475e-10
-4.78203e-11
-5.94593e-11
1.02799e-09
-2.5768e-10
-2.50723e-10
-2.49439e-10
-2.43882e-10
-6.29587e-11
-6.29581e-11
1.03262e-09
-2.59053e-10
-2.50113e-10
-2.50103e-10
-2.43071e-10
-8.26695e-11
-7.12799e-11
1.03975e-09
-2.60531e-10
-2.4932e-10
-2.50589e-10
-2.41962e-10
-1.10179e-10
-7.82612e-11
1.04936e-09
-2.62935e-10
-2.48582e-10
-2.51474e-10
-2.40883e-10
-1.4911e-10
-9.37202e-11
1.06523e-09
-2.65616e-10
-2.47642e-10
-2.52237e-10
-2.39749e-10
-2.2132e-10
-1.14835e-10
1.11073e-09
-2.7054e-10
-2.4853e-10
-2.55847e-10
-2.40027e-10
-3.79648e-10
-1.60483e-10
1.24285e-09
-2.8859e-10
-2.54589e-10
-2.7029e-10
-2.39735e-10
-5.5072e-10
-2.37908e-10
1.33775e-09
-3.2574e-10
-2.64932e-10
-3.041e-10
-2.40816e-10
6.58702e-12
-1.71263e-11
9.13726e-10
-3.46443e-10
-2.6996e-10
-2.95305e-10
-2.11558e-10
7.76575e-11
-2.16659e-10
-1.84034e-10
8.8816e-11
-1.95961e-10
-1.92631e-10
-2.36059e-10
3.59145e-11
-3.36927e-11
-1.80463e-11
2.58471e-10
-9.03804e-12
-6.43023e-11
1.02483e-09
-2.54895e-10
-2.54153e-10
-2.46432e-10
-2.4588e-10
-1.85322e-11
-6.51225e-11
1.02567e-09
-2.55753e-10
-2.53428e-10
-2.47052e-10
-2.45289e-10
-2.85715e-11
-6.86286e-11
1.02731e-09
-2.56602e-10
-2.52676e-10
-2.4755e-10
-2.44563e-10
-4.02902e-11
-7.09773e-11
1.02997e-09
-2.57761e-10
-2.52023e-10
-2.48235e-10
-2.43846e-10
-5.36527e-11
-7.8626e-11
1.03412e-09
-2.58884e-10
-2.51226e-10
-2.48634e-10
-2.42848e-10
-7.1279e-11
-8.26701e-11
1.03974e-09
-2.60532e-10
-2.50599e-10
-2.49307e-10
-2.41959e-10
-9.44948e-11
-9.44959e-11
1.04861e-09
-2.623e-10
-2.49624e-10
-2.49611e-10
-2.40642e-10
-1.29103e-10
-9.96843e-11
1.05991e-09
-2.65074e-10
-2.48721e-10
-2.5042e-10
-2.39668e-10
-1.84978e-10
-1.19445e-10
1.08742e-09
-2.67382e-10
-2.47843e-10
-2.51544e-10
-2.39056e-10
-3.07088e-10
-1.39545e-10
1.17067e-09
-2.75981e-10
-2.49633e-10
-2.58277e-10
-2.39957e-10
-4.95457e-10
-2.05738e-10
1.31279e-09
-3.02917e-10
-2.53127e-10
-2.85915e-10
-2.3721e-10
-4.57185e-11
-2.67988e-10
1.09768e-09
-3.35872e-10
-2.40978e-10
-3.1273e-10
-2.16288e-10
2.1711e-11
-2.236e-10
-2.09587e-10
-2.3117e-10
-9.0444e-11
-6.54543e-11
3.24222e-10
-1.20026e-10
-1.37375e-11
1.15904e-11
2.26385e-12
1.19909e-10
-1.04165e-11
-8.30023e-11
1.03134e-09
-2.56169e-10
-2.55367e-10
-2.45608e-10
-2.45083e-10
-2.13821e-11
-8.42074e-11
1.03251e-09
-2.57117e-10
-2.54556e-10
-2.4627e-10
-2.44519e-10
-3.28555e-11
-8.97826e-11
1.03483e-09
-2.58021e-10
-2.53677e-10
-2.4676e-10
-2.43741e-10
-4.60717e-11
-9.30427e-11
1.03816e-09
-2.59382e-10
-2.52955e-10
-2.47564e-10
-2.42977e-10
-6.02643e-11
-1.05561e-10
1.04356e-09
-2.60713e-10
-2.52076e-10
-2.47864e-10
-2.41777e-10
-7.82158e-11
-1.10183e-10
1.04934e-09
-2.62943e-10
-2.51488e-10
-2.48565e-10
-2.40877e-10
-9.96108e-11
-1.29108e-10
1.0599e-09
-2.65082e-10
-2.50439e-10
-2.48706e-10
-2.39666e-10
-1.32591e-10
-1.32673e-10
1.07299e-09
-2.67639e-10
-2.49951e-10
-2.49931e-10
-2.395e-10
-1.939e-10
-1.61595e-10
1.11848e-09
-2.71707e-10
-2.50392e-10
-2.52983e-10
-2.39936e-10
-3.50812e-10
-1.64763e-10
1.23409e-09
-2.88477e-10
-2.55025e-10
-2.67025e-10
-2.41432e-10
-5.41262e-10
-2.14508e-10
1.33973e-09
-3.26083e-10
-2.60062e-10
-3.07972e-10
-2.46391e-10
7.73221e-12
-1.49141e-11
9.60884e-10
-3.51578e-10
-2.50279e-10
-3.24361e-10
-2.33857e-10
7.58739e-11
-2.30513e-10
-1.95393e-10
9.01878e-11
-1.80438e-10
-1.62595e-10
-2.26858e-10
2.48561e-11
-4.28431e-11
-1.20561e-11
2.64632e-10
-1.20136e-11
-1.09666e-10
1.04027e-09
-2.57101e-10
-2.56276e-10
-2.44343e-10
-2.43885e-10
-2.49225e-11
-1.11294e-10
1.04211e-09
-2.58185e-10
-2.55422e-10
-2.45099e-10
-2.4341e-10
-3.89199e-11
-1.19459e-10
1.04544e-09
-2.59163e-10
-2.5443e-10
-2.45607e-10
-2.4257e-10
-5.56792e-11
-1.2262e-10
1.04959e-09
-2.61059e-10
-2.53726e-10
-2.4668e-10
-2.41795e-10
-7.2646e-11
-1.43179e-10
1.05709e-09
-2.628e-10
-2.52622e-10
-2.46778e-10
-2.403e-10
-9.3676e-11
-1.4911e-10
1.06518e-09
-2.65624e-10
-2.52249e-10
-2.47619e-10
-2.39735e-10
-1.1935e-10
-1.84984e-10
1.08736e-09
-2.6739e-10
-2.5156e-10
-2.47821e-10
-2.39044e-10
-1.6147e-10
-1.93949e-10
1.11836e-09
-2.71696e-10
-2.52991e-10
-2.50359e-10
-2.39917e-10
-2.47727e-10
-2.47514e-10
1.2019e-09
-2.79737e-10
-2.54611e-10
-2.5461e-10
-2.40769e-10
-4.17132e-10
-2.10356e-10
1.29127e-09
-3.03968e-10
-2.57312e-10
-2.75774e-10
-2.39223e-10
-3.39789e-11
-2.08544e-10
1.0694e-09
-3.27917e-10
-2.40822e-10
-3.07301e-10
-2.23576e-10
3.19876e-11
-2.0657e-10
-1.84324e-10
-2.59876e-10
-5.7666e-11
-7.50416e-11
3.43691e-10
-6.3733e-11
-5.10009e-12
-8.837e-13
6.97167e-11
-1.50471e-11
-1.45398e-10
1.0552e-09
-2.59525e-10
-2.58656e-10
-2.43279e-10
-2.4299e-10
-3.16128e-11
-1.4718e-10
1.0576e-09
-2.6072e-10
-2.57568e-10
-2.44125e-10
-2.42742e-10
-5.00477e-11
-1.58602e-10
1.06198e-09
-2.61684e-10
-2.56127e-10
-2.44654e-10
-2.41939e-10
-7.12554e-11
-1.62829e-10
1.06802e-09
-2.63951e-10
-2.55058e-10
-2.46258e-10
-2.41342e-10
-9.11961e-11
-2.02643e-10
1.08599e-09
-2.65965e-10
-2.54102e-10
-2.46671e-10
-2.39849e-10
-1.14714e-10
-2.2132e-10
1.11066e-09
-2.70556e-10
-2.55864e-10
-2.48507e-10
-2.40009e-10
-1.39255e-10
-3.07138e-10
1.17054e-09
-2.75996e-10
-2.583e-10
-2.49612e-10
-2.3994e-10
-1.64122e-10
-3.50996e-10
1.23382e-09
-2.88467e-10
-2.67058e-10
-2.5498e-10
-2.414e-10
-2.09091e-10
-4.16971e-10
1.29051e-09
-3.03926e-10
-2.75776e-10
-2.57279e-10
-2.39099e-10
-3.06355e-10
-3.06581e-10
1.33103e-09
-3.2828e-10
-2.72722e-10
-2.72515e-10
-2.6402e-10
6.74712e-11
1.21934e-11
9.29379e-10
-3.4039e-10
-2.48359e-10
-3.22344e-10
-2.29422e-10
5.88171e-11
-1.73513e-10
-1.29419e-10
7.62607e-11
-1.12561e-10
-1.03014e-10
-1.91636e-10
2.63213e-11
2.92493e-12
-1.81318e-11
2.47992e-10
-1.6174e-11
-2.06689e-10
1.0803e-09
-2.6008e-10
-2.59409e-10
-2.41655e-10
-2.41754e-10
-3.48499e-11
-2.08479e-10
1.08448e-09
-2.61189e-10
-2.58145e-10
-2.42874e-10
-2.42303e-10
-6.0745e-11
-2.22407e-10
1.09485e-09
-2.61951e-10
-2.56739e-10
-2.44139e-10
-2.4232e-10
-9.58184e-11
-2.30148e-10
1.11746e-09
-2.66862e-10
-2.57433e-10
-2.48148e-10
-2.4263e-10
-1.29138e-10
-3.20941e-10
1.17452e-09
-2.73671e-10
-2.58965e-10
-2.50007e-10
-2.40261e-10
-1.60429e-10
-3.79601e-10
1.24275e-09
-2.88596e-10
-2.70307e-10
-2.54561e-10
-2.39712e-10
-2.05563e-10
-4.95482e-10
1.31261e-09
-3.02921e-10
-2.85919e-10
-2.53104e-10
-2.37187e-10
-2.14428e-10
-5.41324e-10
1.33945e-09
-3.26036e-10
-3.07911e-10
-2.59986e-10
-2.46325e-10
-2.08012e-10
-3.40411e-11
1.06915e-09
-3.27891e-10
-3.07112e-10
-2.40751e-10
-2.2346e-10
3.18584e-11
-2.06635e-10
-1.84502e-10
1.25751e-11
6.74025e-11
9.29441e-10
-3.40242e-10
-3.22799e-10
-2.48612e-10
-2.29428e-10
7.65957e-11
-1.12711e-10
-1.02905e-10
5.87245e-11
-1.73363e-10
-1.29274e-10
-2.31587e-10
-4.32458e-11
-4.35803e-11
3.4318e-10
-1.70318e-11
-3.15688e-10
1.15398e-09
-2.72715e-10
-2.72742e-10
-2.40795e-10
-2.41824e-10
-4.31539e-11
-3.15481e-10
1.16374e-09
-2.72262e-10
-2.69783e-10
-2.42857e-10
-2.45718e-10
-9.26904e-11
-3.36992e-10
1.19903e-09
-2.71974e-10
-2.65146e-10
-2.48572e-10
-2.4922e-10
-1.49511e-10
-3.69252e-10
1.25447e-09
-2.82979e-10
-2.68129e-10
-2.59915e-10
-2.47525e-10
-2.06717e-10
-5.02833e-10
1.31899e-09
-3.00545e-10
-2.79346e-10
-2.60849e-10
-2.39155e-10
-2.37695e-10
-5.50684e-10
1.33763e-09
-3.25743e-10
-3.04106e-10
-2.64915e-10
-2.40808e-10
-2.67612e-10
-4.5725e-11
1.09751e-09
-3.35871e-10
-3.12721e-10
-2.40973e-10
-2.16284e-10
2.17008e-11
-2.23611e-10
-2.09595e-10
-1.48449e-11
7.73932e-12
9.60632e-10
-3.51553e-10
-3.24322e-10
-2.50267e-10
-2.33825e-10
9.02603e-11
-1.80273e-10
-1.62471e-10
7.58788e-11
-2.30507e-10
-1.95381e-10
-2.59816e-10
-7.49242e-11
-5.77235e-11
3.43578e-10
-1.91426e-10
2.62588e-11
-1.80491e-11
2.94088e-12
2.47678e-10
-2.79476e-12
-5.25537e-10
1.27921e-09
-2.98274e-10
-2.99818e-10
-2.33036e-10
-2.35636e-10
-1.94248e-11
-5.24156e-10
1.30148e-09
-2.95399e-10
-2.9921e-10
-2.35458e-10
-2.46111e-10
-1.12864e-10
-5.34201e-10
1.38896e-09
-2.9431e-10
-2.94001e-10
-2.50956e-10
-2.59046e-10
-2.14917e-10
-4.9633e-10
1.37705e-09
-3.15587e-10
-2.95853e-10
-2.78936e-10
-2.57547e-10
-2.92155e-10
-5.19967e-11
1.11237e-09
-3.3047e-10
-2.99695e-10
-2.62767e-10
-2.18402e-10
1.82036e-11
-2.06843e-10
-1.86002e-10
-1.71193e-11
6.59716e-12
9.13669e-10
-3.46432e-10
-2.95309e-10
-2.69929e-10
-2.11553e-10
8.88276e-11
-1.95948e-10
-1.92611e-10
7.76637e-11
-2.1666e-10
-1.84035e-10
-2.31168e-10
-6.54418e-11
-9.04548e-11
3.24218e-10
-2.26853e-10
2.48442e-11
-1.20332e-11
-4.28478e-11
2.64629e-10
-6.37267e-11
-8.67669e-13
-5.12248e-12
6.97169e-11
8.57989e-12
2.34193e-11
1.01496e-09
-3.35268e-10
-3.37061e-10
-2.24509e-10
-2.25344e-10
2.34983e-11
-2.36542e-10
-2.37566e-10
-1.50542e-11
3.70482e-11
1.02009e-09
-3.24296e-10
-3.38666e-10
-2.17535e-10
-2.475e-10
3.13854e-11
-2.29221e-10
-2.31823e-10
-1.92057e-10
4.38093e-11
1.18958e-09
-3.3571e-10
-3.44112e-10
-2.64122e-10
-2.96283e-10
-1.79748e-11
-1.80453e-10
-1.51932e-10
-1.55166e-11
1.03915e-11
9.59702e-10
-3.45989e-10
-2.96569e-10
-3.01687e-10
-2.32264e-10
7.66572e-11
-1.8897e-10
-1.60937e-10
5.19761e-11
-1.24699e-10
-1.20478e-10
-2.61071e-10
-7.97275e-11
-5.64442e-11
3.2973e-10
-2.36051e-10
3.59071e-11
-1.80387e-11
-3.36902e-11
2.5847e-10
-1.20024e-10
1.15929e-11
-1.37448e-11
2.26714e-12
1.19909e-10
-2.23164e-10
4.45616e-12
-2.35026e-11
2.65486e-10
-2.14902e-10
-8.60677e-12
2.65142e-11
-1.8047e-11
2.52091e-10
-2.32358e-10
-3.94062e-11
6.32606e-11
-6.22137e-12
2.58533e-10
-1.34471e-10
-2.82434e-12
-2.24317e-11
1.70119e-10
-3.53249e-11
-1.24287e-11
1.1398e-11
3.63556e-11
-8.75067e-12
-8.75348e-12
1.03195e-09
-1.76935e-11
-8.81044e-12
1.03254e-09
-2.70312e-11
-8.98353e-12
1.03375e-09
-3.69657e-11
-9.20499e-12
1.03574e-09
-4.78399e-11
-9.57596e-12
1.0387e-09
-5.97312e-11
-1.00726e-11
1.04301e-09
-7.3433e-11
-1.07115e-11
1.04926e-09
-8.82896e-11
-1.18342e-11
1.05805e-09
-1.06721e-10
-1.28245e-11
1.07154e-09
-1.23502e-10
-1.56458e-11
1.08765e-09
-1.42354e-10
-1.66158e-11
1.11582e-09
-1.35197e-10
-2.2262e-11
1.16924e-09
-1.39646e-10
-9.32245e-12
1.29324e-09
6.12246e-11
-9.63165e-12
9.49995e-10
6.13599e-11
-9.34053e-11
-9.38513e-11
-7.49309e-11
1.63753e-11
2.68478e-13
1.19621e-10
-8.81367e-12
-1.76969e-11
1.03254e-09
-1.78277e-11
-1.78226e-11
1.03314e-09
-2.72289e-11
-1.81874e-11
1.03439e-09
-3.72361e-11
-1.86271e-11
1.03644e-09
-4.81678e-11
-1.93924e-11
1.0395e-09
-6.01571e-11
-2.0364e-11
1.04394e-09
-7.39308e-11
-2.16802e-11
1.05042e-09
-8.90264e-11
-2.38748e-11
1.05965e-09
-1.07684e-10
-2.5953e-11
1.07391e-09
-1.25124e-10
-3.15442e-11
1.09097e-09
-1.43553e-10
-3.34584e-11
1.11984e-09
-1.34871e-10
-4.49997e-11
1.178e-09
-1.33574e-10
-1.26759e-11
1.30396e-09
6.46754e-11
-1.76333e-11
9.49566e-10
6.49439e-11
-9.20586e-11
-9.2048e-11
-6.84787e-11
2.42428e-13
1.75509e-11
2.49406e-12
1.12867e-10
-8.98429e-12
-2.70357e-11
1.03375e-09
-1.81901e-11
-2.72215e-11
1.03439e-09
-2.78013e-11
-2.77967e-11
1.03573e-09
-3.80996e-11
-2.84073e-11
1.03792e-09
-4.94054e-11
-2.95687e-11
1.04121e-09
-6.20225e-11
-3.08793e-11
1.046e-09
-7.67064e-11
-3.27969e-11
1.05311e-09
-9.35721e-11
-3.56878e-11
1.06353e-09
-1.14781e-10
-3.86604e-11
1.07939e-09
-1.37076e-10
-4.57486e-11
1.09854e-09
-1.59854e-10
-4.82324e-11
1.1325e-09
-1.63794e-10
-5.98326e-11
1.21801e-09
-1.56596e-10
-1.10584e-11
1.3805e-09
5.72783e-11
-4.42022e-11
1.09575e-09
3.904e-11
-8.00081e-11
-5.2137e-11
-8.23785e-11
-6.15521e-12
1.21247e-11
1.10116e-12
1.32586e-10
-9.20715e-12
-3.69713e-11
1.03574e-09
-1.86328e-11
-3.72245e-11
1.03644e-09
-2.84163e-11
-3.80911e-11