/*--------------------------------*- C++ -*----------------------------------*\
| =========                 |                                                 |
| \\      /  F ield         | OpenFOAM: The Open Source CFD Toolbox           |
|  \\    /   O peration     | Version:  2.1.1                                 |
|   \\  /    A nd           | Web:      www.OpenFOAM.org                      |
|    \\/     M anipulation  |                                                 |
\*---------------------------------------------------------------------------*/
FoamFile
{
    version     2.0;
    format      ascii;
    class       volScalarField;
    location    "0.001";
    object      p;
}
// * * * * * * * * * * * * * * * * * * * * * * * * * * * * * * * * * * * * * //

dimensions      [0 2 -2 0 0 0 0];

internalField   nonuniform List<scalar> 
10343
(
0.146283
0.147629
0.126802
0.130312
0.155352
0.155962
0.154616
0.154101
0.13359
0.152068
0.153745
0.153101
0.15439
0.152882
0.150686
0.149146
0.144542
0.156462
0.156324
0.153314
0.151283
0.14903
0.14705
0.145677
0.144957
0.160358
0.157036
0.15444
0.151752
0.148685
0.14655
0.144815
0.143694
0.142978
0.14264
0.160337
0.157743
0.151501
0.148674
0.146631
0.144748
0.143443
0.142411
0.141743
0.141279
0.141043
0.14451
0.157007
0.151491
0.14755
0.145202
0.143726
0.142557
0.14175
0.141076
0.140623
0.140286
0.140098
0.133569
0.156441
0.154421
0.148664
0.145199
0.143253
0.142122
0.141267
0.14065
0.140133
0.139772
0.13949
0.139323
0.152055
0.15631
0.15174
0.146624
0.143722
0.142121
0.141161
0.140432
0.139895
0.139453
0.139138
0.138895
0.138742
0.126794
0.153736
0.153305
0.148677
0.144742
0.142554
0.141266
0.140432
0.139788
0.139305
0.138908
0.138613
0.138392
0.138248
0.130306
0.153094
0.151276
0.146544
0.143439
0.141748
0.140649
0.139895
0.139305
0.138853
0.138479
0.138197
0.137993
0.13786
0.155347
0.154385
0.149025
0.144811
0.142407
0.141074
0.140133
0.139453
0.13891
0.138483
0.138137
0.137873
0.137673
0.137542
0.155958
0.152877
0.147046
0.14369
0.14174
0.140621
0.139771
0.139137
0.138613
0.1382
0.137877
0.137627
0.137432
0.1373
0.146279
0.154612
0.150682
0.145674
0.142975
0.141276
0.140284
0.139488
0.138894
0.138393
0.137994
0.137674
0.137432
0.137246
0.137119
0.147625
0.154097
0.149141
0.144953
0.142636
0.141039
0.140096
0.139321
0.138741
0.138248
0.13786
0.137542
0.1373
0.137118
0.136994
0.108547
0.109758
0.102961
0.108711
0.098659
0.0974705
0.0965445
0.0970779
0.107053
0.114094
0.100611
0.101013
0.0982655
0.100183
0.0994958
0.0996782
0.116183
0.101074
0.101251
0.0983047
0.0987701
0.0964885
0.0962616
0.0954341
0.0954115
0.0992913
0.101909
0.0987063
0.0992761
0.0968642
0.0967475
0.0953388
0.0954499
0.0949151
0.0948932
0.0993056
0.0992362
0.0988611
0.0970128
0.0966211
0.0951275
0.0948505
0.0938956
0.0936745
0.0932267
0.0931456
0.11616
0.101887
0.0988543
0.097678
0.0957454
0.0952161
0.0940916
0.0937459
0.0930711
0.0929012
0.0925978
0.092536
0.107039
0.101062
0.0986969
0.0970071
0.0957457
0.0945253
0.0938998
0.0930766
0.0926983
0.0921981
0.091984
0.0917374
0.091665
0.114082
0.101238
0.0992649
0.0966139
0.0952125
0.0938977
0.0931951
0.0924614
0.0920769
0.091662
0.0914647
0.0912725
0.0912079
0.102954
0.100605
0.0982974
0.0968581
0.0951229
0.0940894
0.0930753
0.0924614
0.0918624
0.0915028
0.0911493
0.0909526
0.0907871
0.0907233
0.108705
0.101007
0.0987635
0.0967417
0.0948459
0.0937432
0.092697
0.0920762
0.0915035
0.0911423
0.0908139
0.0906221
0.0904776
0.0904178
0.0986551
0.0982614
0.0964841
0.0953349
0.0938924
0.0930692
0.0921971
0.0916619
0.0911503
0.0908169
0.090528
0.0903429
0.0902048
0.090147
0.0974659
0.100179
0.0962573
0.095446
0.0936711
0.0928988
0.0919823
0.0914639
0.0909528
0.0906236
0.0903451
0.0901669
0.0900343
0.0899749
0.108543
0.0965408
0.0994922
0.0954306
0.0949119
0.0932239
0.0925957
0.0917359
0.0912718
0.0907869
0.0904779
0.0902051
0.0900333
0.0899097
0.0898514
0.109754
0.0970736
0.0996741
0.0954075
0.0948895
0.0931422
0.0925332
0.0916628
0.0912063
0.0907223
0.0904172
0.0901463
0.0899741
0.0898509
0.0897953
0.1106
0.109376
0.110051
0.110768
0.106534
0.107725
0.106476
0.106575
0.112214
0.111389
0.106312
0.108634
0.109572
0.11054
0.11004
0.11021
0.11525
0.107141
0.108382
0.109652
0.110034
0.109995
0.110054
0.109531
0.109464
0.108333
0.108799
0.110222
0.110372
0.110227
0.110453
0.110226
0.110398
0.110127
0.110127
0.108334
0.110487
0.11054
0.110467
0.110381
0.110158
0.110087
0.109801
0.109708
0.109456
0.1094
0.115238
0.10879
0.110539
0.11053
0.110435
0.110277
0.109935
0.109806
0.109524
0.109451
0.109276
0.109239
0.112204
0.107132
0.110214
0.110463
0.110435
0.110131
0.109866
0.109519
0.109321
0.109056
0.108925
0.108768
0.108718
0.11138
0.108372
0.110363
0.110375
0.110274
0.109865
0.109576
0.109212
0.108995
0.108744
0.108614
0.108483
0.108437
0.110043
0.106306
0.109645
0.110222
0.110153
0.109933
0.109518
0.109212
0.108865
0.108633
0.108396
0.108254
0.108133
0.108084
0.110765
0.108628
0.110029
0.110448
0.110083
0.109803
0.109319
0.108994
0.108633
0.108391
0.108158
0.108014
0.1079
0.107852
0.10653
0.109568
0.109991
0.110222
0.109798
0.109522
0.109054
0.108743
0.108396
0.108158
0.107936
0.107792
0.107682
0.107634
0.107721
0.110536
0.11005
0.110394
0.109705
0.109448
0.108923
0.108613
0.108254
0.108014
0.107792
0.107648
0.10754
0.107492
0.110596
0.106472
0.110037
0.109528
0.110124
0.109453
0.109273
0.108767
0.108482
0.108132
0.1079
0.107682
0.10754
0.107435
0.107387
0.109372
0.106571
0.110206
0.10946
0.110123
0.109396
0.109236
0.108716
0.108435
0.108083
0.107852
0.107633
0.107491
0.107386
0.107339
0.110739
0.109414
0.110535
0.110456
0.107973
0.108064
0.10774
0.107927
0.11183
0.110152
0.108105
0.108938
0.108707
0.1092
0.108921
0.109004
0.112978
0.108705
0.108906
0.108929
0.108945
0.108981
0.108962
0.108713
0.108713
0.109257
0.109145
0.109305
0.109236
0.10923
0.109325
0.109064
0.109145
0.108941
0.108944
0.109265
0.109009
0.109359
0.109325
0.109293
0.109052
0.108948
0.108703
0.108611
0.108421
0.10838
0.112969
0.109132
0.109355
0.10948
0.109273
0.109122
0.108834
0.108707
0.10845
0.108374
0.108223
0.108192
0.111824
0.108698
0.109297
0.109323
0.109276
0.10898
0.108769
0.108456
0.108274
0.108034
0.107914
0.107776
0.107732
0.110146
0.108899
0.109229
0.109288
0.10912
0.108768
0.108506
0.108182
0.107983
0.107754
0.107634
0.107514
0.107473
0.11053
0.1081
0.108924
0.109225
0.109049
0.108832
0.108455
0.108182
0.107864
0.107653
0.107436
0.107305
0.107193
0.107149
0.110452
0.108933
0.10894
0.10932
0.108944
0.108704
0.108272
0.107982
0.107653
0.107433
0.107219
0.107087
0.10698
0.106936
0.10797
0.108704
0.108978
0.109061
0.1087
0.108448
0.108032
0.107753
0.107435
0.107219
0.107012
0.106879
0.106777
0.106732
0.10806
0.109196
0.108958
0.109141
0.108607
0.108372
0.107912
0.107633
0.107305
0.107086
0.106879
0.106746
0.106645
0.1066
0.110735
0.107737
0.108918
0.10871
0.108938
0.108418
0.108221
0.107774
0.107513
0.107193
0.10698
0.106777
0.106645
0.106546
0.106501
0.10941
0.107923
0.109
0.108709
0.10894
0.108377
0.108189
0.107729
0.107471
0.107148
0.106936
0.106732
0.1066
0.106501
0.106457
0.109633
0.108385
0.10935
0.10905
0.106155
0.106061
0.105986
0.106053
0.110219
0.108489
0.106343
0.106558
0.106423
0.106812
0.106682
0.106752
0.110776
0.106678
0.106602
0.106617
0.106749
0.106875
0.106908
0.10682
0.106836
0.107007
0.106799
0.106878
0.106963
0.107095
0.107219
0.107127
0.107238
0.107143
0.107167
0.106886
0.106651
0.107076
0.107144
0.107231
0.107171
0.10719
0.107117
0.107098
0.107005
0.10699
0.110768
0.106785
0.107071
0.107282
0.107282
0.1073
0.107225
0.107208
0.107084
0.107062
0.106972
0.106959
0.110216
0.106674
0.106875
0.107143
0.107283
0.107251
0.107224
0.107087
0.107009
0.106874
0.106806
0.106718
0.106691
0.108485
0.106597
0.106959
0.107228
0.107299
0.107223
0.107137
0.106972
0.106865
0.106719
0.106643
0.106559
0.106531
0.109347
0.10634
0.106614
0.107092
0.107169
0.107225
0.107086
0.106972
0.106785
0.106655
0.106504
0.106413
0.10633
0.106298
0.109047
0.106555
0.106745
0.107215
0.107187
0.107206
0.107007
0.106864
0.106654
0.106509
0.106353
0.106255
0.106173
0.106139
0.106153
0.10642
0.106873
0.107125
0.107115
0.107082
0.106873
0.106718
0.106504
0.106353
0.106196
0.106094
0.106013
0.105977
0.106058
0.106809
0.106905
0.107235
0.107095
0.10706
0.106804
0.106642
0.106412
0.106255
0.106094
0.105989
0.105907
0.105871
0.10963
0.105984
0.106679
0.106818
0.107141
0.107003
0.106971
0.106717
0.106558
0.10633
0.106173
0.106012
0.105907
0.105826
0.105789
0.108382
0.10605
0.106749
0.106832
0.107164
0.106987
0.106956
0.106689
0.106529
0.106296
0.106138
0.105977
0.105871
0.105789
0.105753
0.108675
0.107435
0.108286
0.107914
0.105024
0.104924
0.104926
0.104951
0.108987
0.107262
0.105143
0.105187
0.105113
0.10537
0.10528
0.105335
0.109323
0.105345
0.105251
0.105299
0.105399
0.105545
0.105567
0.105554
0.105569
0.105478
0.10533
0.105469
0.105534
0.105711
0.10579
0.10578
0.10587
0.105826
0.105851
0.105641
0.105256
0.105628
0.105723
0.105821
0.105842
0.10589
0.105894
0.105902
0.105872
0.105873
0.109335
0.105344
0.105634
0.10579
0.105887
0.105952
0.105978
0.106005
0.105969
0.105977
0.105933
0.105931
0.108988
0.105345
0.105469
0.105724
0.105888
0.105953
0.106
0.105972
0.10596
0.105901
0.10587
0.105822
0.105807
0.10726
0.105248
0.105532
0.10582
0.105951
0.106
0.106012
0.105957
0.105914
0.105834
0.105792
0.105739
0.105722
0.108285
0.105141
0.105297
0.105709
0.105841
0.105977
0.105971
0.105957
0.105867
0.105799
0.105707
0.105648
0.105592
0.10557
0.107912
0.105185
0.105396
0.105788
0.105888
0.106004
0.105958
0.105913
0.105799
0.105712
0.105609
0.105543
0.105484
0.10546
0.105023
0.105112
0.105544
0.105779
0.105893
0.105968
0.1059
0.105834
0.105706
0.105609
0.1055
0.105428
0.105368
0.105342
0.104923
0.105368
0.105565
0.105868
0.1059
0.105976
0.105868
0.105791
0.105647
0.105542
0.105428
0.105352
0.10529
0.105264
0.108674
0.104925
0.105279
0.105553
0.105825
0.105871
0.105931
0.105821
0.105738
0.105591
0.105484
0.105368
0.10529
0.105229
0.105201
0.107432
0.104947
0.105332
0.105566
0.105848
0.10587
0.105928
0.105805
0.10572
0.105568
0.105459
0.105342
0.105263
0.105201
0.105173
0.107708
0.10648
0.107261
0.10688
0.104038
0.103894
0.103944
0.103952
0.107883
0.106169
0.104081
0.104033
0.103932
0.10409
0.104014
0.104052
0.108126
0.104217
0.104097
0.104099
0.104144
0.104282
0.104281
0.104303
0.104313
0.10441
0.104121
0.104214
0.104221
0.104387
0.104422
0.104433
0.104498
0.104479
0.104501
0.104373
0.104012
0.104327
0.104387
0.104469
0.104504
0.104553
0.104591
0.104611
0.104613
0.10462
0.108141
0.104127
0.104328
0.10442
0.104524
0.104585
0.104651
0.104691
0.104699
0.104724
0.104712
0.104721
0.107885
0.104219
0.104217
0.104389
0.104526
0.104611
0.104684
0.104709
0.104737
0.104737
0.104739
0.104724
0.104722
0.106169
0.104096
0.104221
0.104468
0.104585
0.104683
0.104739
0.10476
0.104769
0.104748
0.104738
0.104715
0.104709
0.10726
0.104081
0.104098
0.104387
0.104504
0.104651
0.104709
0.10476
0.104753
0.104742
0.104704
0.104679
0.104651
0.10464
0.10688
0.104032
0.104143
0.104421
0.104552
0.10469
0.104736
0.104769
0.104741
0.104713
0.104663
0.104629
0.104595
0.104581
0.104038
0.103932
0.104282
0.104433
0.104591
0.104698
0.104736
0.104748
0.104704
0.104663
0.104604
0.104562
0.104525
0.104509
0.103894
0.10409
0.10428
0.104497
0.104609
0.104722
0.104738
0.104738
0.104679
0.104628
0.104562
0.104515
0.104476
0.104458
0.10771
0.103945
0.104015
0.104303
0.104479
0.104612
0.104712
0.104724
0.104715
0.10465
0.104595
0.104525
0.104476
0.104434
0.104416
0.10648
0.10395
0.104048
0.10431
0.104498
0.104617
0.104719
0.10472
0.104708
0.104638
0.10458
0.104508
0.104458
0.104415
0.104397
0.106724
0.10551
0.106246
0.105868
0.103031
0.102851
0.102935
0.102931
0.106819
0.105119
0.103025
0.102923
0.102814
0.102927
0.102862
0.102888
0.107023
0.103115
0.10299
0.102961
0.102996
0.103126
0.103112
0.10315
0.103156
0.103256
0.102979
0.103038
0.103028
0.103184
0.103194
0.103212
0.103257
0.103248
0.103266
0.103259
0.102851
0.103136
0.103176
0.103247
0.103282
0.103327
0.103377
0.103397
0.103415
0.103424
0.10703
0.102981
0.103137
0.10319
0.103286
0.103335
0.103414
0.103453
0.103482
0.103511
0.103515
0.103526
0.106822
0.103116
0.103039
0.103177
0.103287
0.103372
0.103448
0.103495
0.103538
0.103565
0.103583
0.10359
0.103596
0.10512
0.10299
0.103028
0.103247
0.103335
0.103447
0.103513
0.103568
0.103603
0.10362
0.103634
0.103632
0.103635
0.106246
0.103025
0.102962
0.103184
0.103282
0.103414
0.103496
0.103569
0.103607
0.103634
0.103638
0.103639
0.103632
0.10363
0.105868
0.102923
0.102995
0.103194
0.103326
0.103453
0.103538
0.103603
0.103633
0.103647
0.103639
0.103631
0.103618
0.103613
0.10303
0.102815
0.103127
0.103213
0.103377
0.103483
0.103565
0.10362
0.103638
0.10364
0.103622
0.103606
0.103589
0.103582
0.102855
0.102928
0.103112
0.103256
0.103396
0.10351
0.103582
0.103633
0.103638
0.103631
0.103606
0.103586
0.103565
0.103556
0.106731
0.10294
0.102865
0.103152
0.103249
0.103415
0.103515
0.103589
0.103632
0.103631
0.103618
0.103589
0.103565
0.103543
0.103533
0.105512
0.102928
0.102885
0.103153
0.103263
0.103422
0.103524
0.103594
0.103633
0.103628
0.103613
0.103581
0.103556
0.103533
0.103522
0.105732
0.104529
0.105235
0.10486
0.102019
0.101834
0.101931
0.10192
0.105777
0.10409
0.101985
0.10186
0.101753
0.101844
0.101784
0.101806
0.105957
0.102046
0.101926
0.101885
0.101916
0.102038
0.102014
0.102059
0.102061
0.102165
0.10189
0.101934
0.101915
0.10206
0.102053
0.102071
0.102101
0.102096
0.10211
0.102171
0.101761
0.102025
0.102047
0.102107
0.102135
0.102173
0.102224
0.10224
0.102264
0.102272
0.105962
0.10189
0.102026
0.102046
0.10213
0.102164
0.102242
0.102273
0.102308
0.102333
0.102344
0.102355
0.105779
0.102047
0.101934
0.102048
0.102131
0.102206
0.102271
0.102323
0.102366
0.102403
0.102426
0.102442
0.102451
0.104091
0.101926
0.101915
0.102107
0.102164
0.102271
0.102329
0.102395
0.102435
0.102468
0.102491
0.102502
0.10251
0.105237
0.101987
0.101887
0.102061
0.102136
0.102243
0.102323
0.102396
0.10245
0.102492
0.10252
0.102538
0.102547
0.102551
0.104862
0.101861
0.101916
0.102053
0.102172
0.102273
0.102366
0.102435
0.102491
0.102529
0.10255
0.102562
0.102565
0.102567
0.102022
0.101756
0.10204
0.102073
0.102226
0.102309
0.102403
0.102468
0.10252
0.102551
0.102564
0.102569
0.102568
0.102568
0.101837
0.101846
0.102015
0.102102
0.10224
0.102333
0.102425
0.10249
0.102538
0.102562
0.102569
0.102569
0.102565
0.102563
0.105745
0.101937
0.101789
0.102062
0.102098
0.102265
0.102344
0.102442
0.102502
0.102546
0.102565
0.102568
0.102565
0.102559
0.102556
0.104535
0.101917
0.101803
0.102058
0.102107
0.102269
0.102352
0.102449
0.102508
0.10255
0.102566
0.102567
0.102562
0.102555
0.102552
0.104739
0.103544
0.10423
0.103858
0.101015
0.100828
0.10093
0.100917
0.10475
0.103072
0.100961
0.100825
0.100721
0.100797
0.10074
0.10076
0.104915
0.101002
0.100885
0.100838
0.100861
0.100979
0.100948
0.100994
0.100994
0.101114
0.100832
0.100867
0.100839
0.100974
0.100955
0.10097
0.10099
0.100984
0.100995
0.101107
0.100708
0.10095
0.100959
0.101005
0.101027
0.101054
0.101103
0.101113
0.101138
0.101144
0.104917
0.10083
0.100949
0.100947
0.101017
0.101035
0.101106
0.101126
0.10116
0.101179
0.10119
0.101199
0.104752
0.101002
0.100866
0.100959
0.101018
0.101078
0.101129
0.101175
0.101212
0.101249
0.10127
0.101289
0.101297
0.103073
0.100885
0.10084
0.101005
0.101036
0.101128
0.101172
0.101235
0.101271
0.101307
0.101331
0.101346
0.101355
0.104231
0.100963
0.100839
0.100975
0.101028
0.101107
0.101176
0.101236
0.10129
0.101332
0.101367
0.101392
0.101407
0.101416
0.103861
0.100826
0.100862
0.100955
0.101055
0.101126
0.101212
0.101271
0.101332
0.101374
0.101409
0.101433
0.101446
0.101453
0.10102
0.100726
0.100982
0.100973
0.101105
0.101161
0.10125
0.101308
0.101367
0.10141
0.101443
0.101462
0.101473
0.101477
0.100831
0.1008
0.100949
0.10099
0.101113
0.101179
0.10127
0.10133
0.101391
0.101433
0.101462
0.101477
0.101485
0.101488
0.104757
0.100939
0.100746
0.100998
0.100987
0.101139
0.101191
0.101289
0.101346
0.101407
0.101446
0.101473
0.101485
0.101491
0.101494
0.103553
0.100914
0.100756
0.100991
0.100992
0.101141
0.101197
0.101296
0.101353
0.101415
0.101452
0.101477
0.101488
0.101494
0.101496
0.10375
0.102563
0.10323
0.102865
0.100019
0.0998355
0.0999362
0.0999226
0.103735
0.102064
0.0999503
0.0998088
0.0997117
0.0997751
0.0997191
0.0997355
0.103888
0.0999744
0.0998565
0.0998094
0.0998246
0.0999408
0.0999034
0.0999484
0.099946
0.100081
0.0997994
0.0998246
0.0997912
0.0999144
0.0998863
0.0998989
0.0999085
0.0999014
0.0999086
0.100072
0.0996818
0.0998983
0.0998991
0.0999299
0.0999443
0.0999609
0.100005
0.100008
0.10003
0.100034
0.103888
0.0997958
0.099897
0.0998793
0.0999331
0.0999373
0.0999958
0.100005
0.100033
0.100045
0.100054
0.10006
0.103736
0.099974
0.0998238
0.0998988
0.0999334
0.0999782
0.100011
0.100047
0.100073
0.100106
0.100121
0.100138
0.100145
0.102065
0.0998563
0.0997912
0.0999298
0.0999375
0.100011
0.100038
0.10009
0.100116
0.100148
0.100167
0.100181
0.100189
0.103232
0.0999523
0.099811
0.0999157
0.0999453
0.0999967
0.100048
0.10009
0.100135
0.100169
0.100203
0.100225
0.100242
0.10025
0.102868
0.0998112
0.0998258
0.0998875
0.0999615
0.100005
0.100073
0.100116
0.100169
0.100205
0.100241
0.100266
0.100283
0.100292
0.100025
0.0997166
0.0999444
0.0999016
0.100007
0.100034
0.100106
0.100149
0.100203
0.100242
0.10028
0.100306
0.100323
0.100331
0.0998386
0.0997787
0.0999048
0.0999095
0.100008
0.100045
0.100121
0.100167
0.100225
0.100266
0.100306
0.10033
0.100346
0.100353
0.103771
0.099946
0.0997263
0.0999525
0.0999045
0.100031
0.100055
0.100138
0.100182
0.100242
0.100283
0.100323
0.100346
0.100361
0.100367
0.102571
0.0999195
0.0997317
0.0999437
0.0999059
0.100032
0.100058
0.100144
0.100188
0.10025
0.100291
0.100331
0.100353
0.100367
0.100373
0.102772
0.101586
0.102239
0.101884
0.0990382
0.0988619
0.0989552
0.0989413
0.102732
0.101065
0.0989544
0.0988126
0.098725
0.0987743
0.098718
0.0987282
0.102872
0.0989634
0.0988372
0.0987962
0.0988029
0.0989186
0.0988772
0.098916
0.098912
0.099065
0.0987882
0.0988027
0.0987637
0.0988744
0.0988394
0.0988481
0.0988477
0.0988373
0.0988401
0.099061
0.0986824
0.0988649
0.0988607
0.0988713
0.0988789
0.0988829
0.0989195
0.0989162
0.098932
0.0989337
0.10287
0.0987836
0.0988634
0.0988358
0.0988691
0.0988593
0.0989022
0.0988995
0.0989192
0.0989225
0.0989269
0.0989302
0.102733
0.0989626
0.0988016
0.0988603
0.0988694
0.0988961
0.0989079
0.0989311
0.0989435
0.0989672
0.0989759
0.0989879
0.0989926
0.101067
0.0988377
0.098764
0.0988714
0.0988595
0.098908
0.0989165
0.0989524
0.0989661
0.0989898
0.0990017
0.0990124
0.099018
0.102242
0.0989566
0.0987981
0.0988759
0.09888
0.0989032
0.0989318
0.098953
0.0989834
0.0990047
0.0990305
0.0990469
0.099061
0.0990679
0.101887
0.0988151
0.0988042
0.0988408
0.0988837
0.0989001
0.0989437
0.0989663
0.0990046
0.0990294
0.0990588
0.0990787
0.0990945
0.0991026
0.0990437
0.0987297
0.0989222
0.0988509
0.0989214
0.0989206
0.0989681
0.0989904
0.0990307
0.0990591
0.0990918
0.099115
0.0991334
0.0991427
0.0988647
0.0987778
0.0988787
0.0988489
0.0989166
0.0989227
0.0989759
0.0990016
0.0990467
0.0990787
0.0991152
0.0991419
0.0991615
0.0991707
0.10279
0.0989641
0.0987249
0.0989199
0.0988403
0.0989338
0.0989281
0.0989886
0.0990129
0.0990612
0.0990948
0.0991337
0.099162
0.0991814
0.0991903
0.101594
0.0989386
0.0987245
0.09891
0.0988377
0.0989322
0.0989287
0.0989915
0.0990171
0.0990672
0.0991021
0.0991424
0.0991706
0.0991899
0.0991992
0.101807
0.100619
0.101261
0.100923
0.0980823
0.0979174
0.097993
0.0979791
0.101742
0.10008
0.0979796
0.0978376
0.0977656
0.0977948
0.097734
0.0977342
0.101864
0.0979685
0.0978265
0.0977968
0.0977961
0.097909
0.0978684
0.0978938
0.0978885
0.0980971
0.0978011
0.0977997
0.0977534
0.0978494
0.0978081
0.0978128
0.0978002
0.0977835
0.097781
0.0980481
0.0977131
0.0978499
0.0978383
0.0978238
0.0978236
0.0978133
0.0978405
0.0978301
0.0978373
0.0978362
0.101861
0.097794
0.0978482
0.0978104
0.0978188
0.0977932
0.097817
0.0978014
0.0978103
0.0978042
0.0978022
0.0978019
0.101744
0.0979694
0.0977994
0.0978383
0.0978192
0.0978236
0.0978122
0.0978189
0.0978159
0.0978283
0.0978287
0.0978343
0.0978361
0.100082
0.0978269
0.0977541
0.0978243
0.0977937
0.0978123
0.0978013
0.097817
0.0978165
0.0978286
0.0978321
0.0978371
0.0978398
0.101263
0.0979818
0.0977986
0.097851
0.0978249
0.097818
0.0978196
0.0978175
0.0978292
0.0978358
0.0978504
0.0978589
0.0978677
0.0978721
0.100926
0.09784
0.0977976
0.0978096
0.0978143
0.0978022
0.0978163
0.0978168
0.0978357
0.0978465
0.0978651
0.0978775
0.0978889
0.0978947
0.0980869
0.0977697
0.0979121
0.0978153
0.0978424
0.0978117
0.0978292
0.0978292
0.0978507
0.0978654
0.0978877
0.0979043
0.097919
0.0979267
0.0979196
0.097798
0.0978699
0.0978014
0.0978307
0.0978046
0.0978288
0.0978321
0.0978588
0.0978775
0.0979044
0.0979249
0.0979429
0.0979521
0.10182
0.098
0.0977398
0.0978972
0.0977862
0.0978389
0.0978034
0.097835
0.0978377
0.097868
0.0978892
0.0979193
0.0979434
0.0979644
0.0979744
0.100625
0.0979769
0.0977307
0.0978867
0.0977791
0.097835
0.0978008
0.0978353
0.0978392
0.0978716
0.0978944
0.0979264
0.097952
0.0979741
0.0979847
0.10086
0.099666
0.100303
0.099999
0.0971721
0.0970204
0.0970614
0.0970459
0.100772
0.0991155
0.0970355
0.0968922
0.0968432
0.0968402
0.096764
0.0967499
0.100855
0.096988
0.0968297
0.0968114
0.0968045
0.0969134
0.0968787
0.0968802
0.0968728
0.0971264
0.0968372
0.096817
0.0967596
0.096837
0.0967887
0.0967887
0.0967601
0.0967319
0.0967231
0.0971186
0.0967842
0.0968532
0.0968284
0.0967837
0.0967728
0.0967461
0.0967618
0.096744
0.0967388
0.0967344
0.10086
0.0968402
0.0968543
0.0967999
0.0967773
0.0967321
0.0967335
0.096703
0.0966992
0.0966831
0.0966724
0.096668
0.100775
0.0969906
0.0968196
0.09683
0.0967783
0.0967537
0.0967166
0.0967037
0.0966841
0.0966834
0.0966747
0.0966723
0.0966711
0.0991178
0.0968315
0.0967614
0.0967848
0.0967329
0.0967168
0.0966842
0.0966772
0.0966613
0.0966599
0.0966542
0.0966523
0.0966517
0.100306
0.0970377
0.0968135
0.096839
0.0967743
0.0967346
0.0967044
0.0966776
0.0966679
0.0966583
0.0966599
0.0966596
0.0966621
0.0966636
0.100001
0.0968944
0.0968061
0.0967902
0.0967473
0.0967038
0.0966846
0.0966616
0.0966584
0.0966538
0.0966602
0.0966641
0.0966694
0.0966725
0.0971755
0.0968461
0.0969157
0.0967909
0.0967636
0.0967004
0.0966843
0.0966605
0.0966602
0.0966603
0.0966702
0.0966785
0.0966874
0.0966925
0.0970217
0.0968435
0.0968802
0.0967613
0.0967447
0.0966835
0.096675
0.0966543
0.0966596
0.0966641
0.0966785
0.0966909
0.0967033
0.0967102
0.100868
0.0970664
0.0967662
0.0968831
0.0967339
0.0967403
0.0966735
0.096673
0.0966528
0.0966624
0.0966696
0.0966876
0.0967035
0.0967196
0.0967288
0.0996693
0.0970438
0.0967483
0.096871
0.0967217
0.0967336
0.0966673
0.0966706
0.0966513
0.0966633
0.0966723
0.0966923
0.0967102
0.0967287
0.09674
0.0999402
0.0987326
0.0993822
0.0991419
0.0963494
0.0962061
0.0961815
0.0961572
0.0998339
0.098185
0.0961408
0.0959918
0.0959709
0.0959189
0.0957986
0.0957694
0.0998356
0.0960286
0.095851
0.0958384
0.0958284
0.0959369
0.0959104
0.0958793
0.0958643
0.0961991
0.0959117
0.0958616
0.0957815
0.0958361
0.0957763
0.0957706
0.0957191
0.0956697
0.0956549
0.0963368
0.0959164
0.0958793
0.0958298
0.095747
0.0957183
0.095673
0.0956756
0.0956496
0.0956279
0.0956197
0.0998538
0.0959328
0.0958839
0.0958011
0.0957395
0.0956679
0.0956438
0.095594
0.095576
0.0955495
0.0955272
0.0955184
0.0998385
0.0960328
0.0958676
0.0958328
0.0957412
0.0956793
0.0956135
0.0955778
0.0955406
0.0955257
0.0955082
0.095497
0.0954927
0.0981879
0.0958536
0.0957844
0.0957486
0.095669
0.0956138
0.0955574
0.0955263
0.0954945
0.0954789
0.0954637
0.0954538
0.0954498
0.0993843
0.096143
0.0958404
0.0958385
0.09572
0.0956449
0.0955785
0.0955267
0.0954943
0.0954683
0.0954562
0.0954473
0.0954429
0.0954416
0.0991435
0.0959935
0.0958299
0.0957778
0.0956744
0.0955948
0.0955412
0.0954949
0.0954685
0.0954486
0.0954431
0.0954383
0.0954373
0.0954374
0.0963514
0.0959727
0.0959385
0.0957722
0.0956773
0.0955769
0.0955266
0.0954794
0.0954567
0.0954431
0.0954401
0.0954399
0.0954424
0.0954445
0.0962065
0.0959202
0.0959112
0.0957199
0.0956503
0.0955499
0.0955086
0.0954639
0.0954474
0.0954383
0.0954399
0.0954435
0.0954494
0.0954532
0.0999435
0.0961843
0.0957999
0.0958808
0.0956709
0.095629
0.0955281
0.0954976
0.0954543
0.0954432
0.0954375
0.0954425
0.0954496
0.0954588
0.0954649
0.0987339
0.0961556
0.0957694
0.0958639
0.0956545
0.0956195
0.0955182
0.0954926
0.0954498
0.0954415
0.0954373
0.0954444
0.0954532
0.0954648
0.0954727
0.0990604
0.0978265
0.0985305
0.0984104
0.0956945
0.0955412
0.09538
0.0953383
0.0989545
0.0973194
0.0953305
0.0951375
0.095155
0.0950099
0.0948035
0.0947545
0.0987807
0.095109
0.0948863
0.0948557
0.0948459
0.0949745
0.0949651
0.0948875
0.0948769
0.0956384
0.095065
0.0949409
0.0948064
0.0948618
0.0947535
0.0947494
0.0946619
0.0945708
0.0945422
0.0955219
0.095135
0.0949336
0.0948429
0.0947057
0.0946484
0.0945816
0.0945794
0.0945547
0.0945182
0.0945104
0.0987865
0.0950512
0.0949318
0.0948078
0.0946937
0.0945886
0.094544
0.0944755
0.0944435
0.0944001
0.0943598
0.0943454
0.0989593
0.0951117
0.0949419
0.094845
0.0946962
0.0945912
0.0944932
0.094434
0.0943793
0.0943519
0.0943277
0.0943074
0.0943008
0.0973226
0.094889
0.0948089
0.0947076
0.0945899
0.0944935
0.0944118
0.0943576
0.0943104
0.0942809
0.0942565
0.0942378
0.0942304
0.0985322
0.0953325
0.0948574
0.0948639
0.0946501
0.0945454
0.0944348
0.094358
0.0943025
0.09426
0.0942348
0.0942182
0.0942072
0.0942034
0.0984112
0.0951387
0.0948472
0.0947549
0.0945829
0.0944765
0.09438
0.0943109
0.0942602
0.0942255
0.0942112
0.0941989
0.0941921
0.0941894
0.0956949
0.0951559
0.0949754
0.0947507
0.0945806
0.0944444
0.0943527
0.0942813
0.0942355
0.0942111
0.0941971
0.0941894
0.0941862
0.0941856
0.0955405
0.09501
0.0949655
0.0946622
0.0945552
0.0944005
0.0943281
0.0942568
0.0942184
0.0941989
0.0941894
0.0941852
0.0941851
0.0941857
0.0990609
0.0953794
0.0948034
0.0948878
0.0945714
0.0945189
0.0943604
0.0943079
0.0942382
0.0942075
0.0941922
0.0941863
0.0941851
0.0941878
0.094191
0.0978269
0.0953387
0.0947552
0.0948772
0.0945425
0.0945106
0.0943456
0.0943009
0.0942307
0.0942035
0.0941895
0.0941856
0.0941858
0.094191
0.0941944
0.0982533
0.0969696
0.0978393
0.0979097
0.0953425
0.0951295
0.0946704
0.0946172
0.0981959
0.096597
0.0946494
0.0943188
0.094447
0.0941443
0.0937609
0.0936874
0.0976251
0.0942513
0.0939222
0.0938571
0.0938452
0.0940026
0.0940251
0.0938687
0.0938691
0.0953454
0.0942567
0.0939965
0.0938322
0.0938728
0.0937143
0.0937135
0.0935841
0.0934305
0.0933935
0.0953716
0.0944462
0.0939015
0.0938404
0.0936314
0.093546
0.0934555
0.0934442
0.0934252
0.0933663
0.0933624
0.0976291
0.0942589
0.0939042
0.0937657
0.093611
0.0934803
0.0934145
0.0933251
0.0932785
0.0932233
0.0931616
0.093144
0.0982014
0.0942548
0.0940011
0.0938429
0.0936127
0.0934796
0.0933452
0.0932647
0.0931928
0.0931543
0.0931269
0.0930981
0.0930912
0.0966008
0.093926
0.0938352
0.0936338
0.0934815
0.0933455
0.0932433
0.0931692
0.0931088
0.0930668
0.0930353
0.0930075
0.0929979
0.0978408
0.0946513
0.0938587
0.0938754
0.0935478
0.0934161
0.0932654
0.0931696
0.0930966
0.0930446
0.0930097
0.0929875
0.0929709
0.0929653
0.0979097
0.0943196
0.0938465
0.0937156
0.0934568
0.0933261
0.0931934
0.0931092
0.0930447
0.0930002
0.0929699
0.09295
0.0929367
0.0929315
0.0953413
0.0944471
0.0940026
0.0937146
0.0934451
0.0932794
0.093155
0.0930672
0.09301
0.0929699
0.0929451
0.0929303
0.0929219
0.0929191
0.095127
0.0941432
0.094025
0.0935839
0.0934253
0.0932235
0.0931272
0.0930355
0.0929876
0.0929501
0.0929303
0.0929181
0.0929125
0.0929104
0.0982507
0.0946663
0.0937593
0.0938676
0.0934304
0.0933664
0.093162
0.0930984
0.0930078
0.0929712
0.0929368
0.092922
0.0929125
0.0929098
0.0929114
0.0969687
0.0946194
0.0936885
0.09387
0.0933941
0.0933627
0.0931443
0.0930915
0.0929982
0.0929655
0.0929317
0.0929192
0.0929107
0.0929114
0.092912
0.097654
0.0962248
0.0976415
0.0979409
0.0955659
0.0951888
0.0939817
0.0940031
0.0977647
0.0962341
0.0941173
0.0934599
0.0938448
0.0932962
0.0926271
0.0925242
0.096591
0.0935252
0.0929728
0.0928142
0.0927706
0.0929252
0.093045
0.0927808
0.0928146
0.0954928
0.0939059
0.0930525
0.092884
0.092844
0.0926359
0.0926236
0.0924725
0.0922239
0.0921901
0.095493
0.0944101
0.0929548
0.0929124
0.0925333
0.0923969
0.0922747
0.0922487
0.0922471
0.0921625
0.0921675
0.0966056
0.0939097
0.0929584
0.0928138
0.0925146
0.0923441
0.0922394
0.0921348
0.0920709
0.0920133
0.091926
0.091909
0.0977725
0.0935306
0.0930614
0.0929162
0.0925169
0.0923451
0.0921597
0.0920575
0.0919708
0.0919225
0.0918959
0.0918592
0.0918537
0.0962392
0.0929784
0.092888
0.0925366
0.0923455
0.0921599
0.0920413
0.0919474
0.091879
0.0918262
0.091792
0.0917558
0.0917454
0.0976428
0.0941191
0.0928158
0.0928474
0.0923991
0.0922413
0.0920582
0.0919478
0.0918618
0.0918024
0.091761
0.0917364
0.0917161
0.0917098
0.0979401
0.0934602
0.0927719
0.0926372
0.0922764
0.092136
0.0919713
0.0918794
0.0918025
0.0917524
0.0917147
0.0916915
0.0916738
0.0916674
0.0955628
0.0938441
0.092924
0.0926249
0.0922498
0.0920719
0.091923
0.0918266
0.0917612
0.0917148
0.0916855
0.091667
0.0916556
0.0916513
0.0951836
0.0932937
0.0930446
0.0924715
0.0922466
0.0920131
0.091896
0.0917921
0.0917365
0.0916916
0.091667
0.0916502
0.0916414
0.0916375
0.0976458
0.0939734
0.0926238
0.0927782
0.0922232
0.0921618
0.0919259
0.0918594
0.091756
0.0917163
0.0916739
0.0916556
0.0916414
0.0916355
0.091633
0.096221
0.0940077
0.0925256
0.0928161
0.0921907
0.0921677
0.0919092
0.0918539
0.0917456
0.09171
0.0916675
0.0916514
0.0916376
0.091633
0.0916303
0.0987611
0.0959479
0.0998188
0.0997875
0.0954985
0.0961625
0.0932206
0.093372
0.098505
0.096825
0.0937009
0.0926708
0.0934122
0.0925136
0.0912786
0.0912363
0.0966421
0.0927914
0.0919988
0.0916384
0.091552
0.0916902
0.0919543
0.091582
0.0916691
0.0999009
0.0933533
0.0916454
0.0917075
0.0916632
0.0914902
0.0914564
0.0913237
0.090937
0.0909266
0.0999089
0.0943654
0.0914699
0.0917903
0.0912677
0.091137
0.0910125
0.0909866
0.0910027
0.0909017
0.0909188
0.096664
0.0933627
0.091474
0.0916877
0.091239
0.0911047
0.0909782
0.090887
0.0908107
0.0907661
0.0906511
0.0906398
0.0985162
0.0928005