/*--------------------------------*- C++ -*----------------------------------*\
| =========                 |                                                 |
| \\      /  F ield         | OpenFOAM: The Open Source CFD Toolbox           |
|  \\    /   O peration     | Version:  2.1.1                                 |
|   \\  /    A nd           | Web:      www.OpenFOAM.org                      |
|    \\/     M anipulation  |                                                 |
\*---------------------------------------------------------------------------*/
FoamFile
{
    version     2.0;
    format      ascii;
    class       surfaceScalarField;
    location    "0.001";
    object      phi;
}
// * * * * * * * * * * * * * * * * * * * * * * * * * * * * * * * * * * * * * //

dimensions      [0 3 -1 0 0 0 0];

internalField   nonuniform List<scalar> 
29724
(
7.0509e-12
-8.70411e-12
7.46264e-11
1.11499e-10
2.5453e-12
-8.97574e-13
5.89839e-11
1.64897e-10
1.94752e-11
5.55164e-11
6.87053e-11
-2.01632e-11
4.35617e-11
4.10557e-11
2.01185e-10
-8.56908e-11
-1.97905e-11
2.02556e-11
3.51475e-11
2.85855e-10
-6.28747e-11
-1.49325e-11
7.74935e-12
2.54807e-11
2.9182e-10
-4.46925e-11
3.40094e-12
-4.82625e-12
3.62382e-11
2.63118e-10
-3.60346e-11
3.24201e-12
-2.08495e-12
3.45495e-11
2.55205e-10
1.23182e-11
4.96426e-11
6.9355e-11
-6.58091e-11
-4.19665e-11
3.01322e-11
3.11444e-11
3.16992e-10
-3.02525e-11
-3.22141e-11
2.1412e-11
2.5514e-11
2.6705e-10
-1.53181e-11
-1.39093e-11
1.14421e-11
2.31925e-11
2.48224e-10
-1.95843e-11
-8.1016e-12
8.73511e-12
2.08926e-11
2.51124e-10
-1.36167e-11
-3.87122e-12
2.8404e-12
1.88354e-11
2.47824e-10
-1.58072e-11
-1.64314e-12
8.6171e-13
2.05229e-11
2.48075e-10
-1.58038e-11
-7.55015e-13
3.9051e-14
2.09603e-11
2.48504e-10
-2.0075e-11
6.41025e-11
4.46602e-11
1.59823e-10
-5.09945e-11
-3.59542e-11
1.77345e-11
3.63416e-11
2.81553e-10
-2.65281e-11
-9.7415e-12
1.19575e-11
2.83404e-11
2.49845e-10
-1.747e-11
-1.28056e-11
1.28322e-11
2.22807e-11
2.47863e-10
-1.30158e-11
-8.3071e-12
1.03186e-11
1.79386e-11
2.44345e-10
-1.05735e-11
-6.43811e-12
7.12866e-12
1.38117e-11
2.46543e-10
-8.33809e-12
-2.89204e-12
2.93402e-12
1.11209e-11
2.47334e-10
-8.19509e-12
-1.63285e-12
1.05934e-12
1.07423e-11
2.4825e-10
-8.24601e-12
-5.52626e-13
2.20216e-13
1.08993e-11
2.48185e-10
-3.66809e-11
-2.37177e-11
2.66176e-11
4.25761e-11
2.71712e-10
-2.39399e-11
-1.30993e-11
1.21486e-11
2.46218e-11
2.54756e-10
-2.17508e-11
-1.0871e-11
1.20326e-11
2.35597e-11
2.51028e-10
-1.51357e-11
-8.69991e-12
1.11004e-11
1.94172e-11
2.44868e-10
-1.00901e-11
-7.71087e-12
8.78803e-12
1.42753e-11
2.45244e-10
-7.65142e-12
-4.35044e-12
6.13653e-12
1.04531e-11
2.45545e-10
-5.58542e-12
-3.02986e-12
3.96976e-12
8.06977e-12
2.46586e-10
-4.08887e-12
-1.47593e-12
1.93192e-12
6.65548e-12
2.46964e-10
-3.41968e-12
-8.1827e-13
8.14233e-13
6.16004e-12
2.47267e-10
-3.25488e-12
-2.44243e-13
1.82267e-13
6.10871e-12
2.47248e-10
-2.35596e-11
-3.67825e-11
4.26671e-11
2.65325e-11
2.71553e-10
-1.92023e-11
-1.9277e-11
1.50616e-11
1.49901e-11
2.63165e-10
-1.32615e-11
-9.08353e-12
1.16911e-11
1.58298e-11
2.48992e-10
-1.08856e-11
-7.31982e-12
8.65554e-12
1.31914e-11
2.4793e-10
-8.30582e-12
-4.52935e-12
6.5326e-12
1.02618e-11
2.46357e-10
-5.8529e-12
-3.5218e-12
4.98077e-12
7.92064e-12
2.46511e-10
-4.46642e-12
-2.28918e-12
3.64353e-12
6.39986e-12
2.46713e-10
-3.46422e-12
-1.73506e-12
2.51663e-12
5.39914e-12
2.47281e-10
-2.867e-12
-9.67984e-13
1.45791e-12
4.83392e-12
2.47541e-10
-2.50465e-12
-6.05199e-13
7.26771e-13
4.55478e-12
2.47828e-10
-2.39808e-12
-2.17004e-13
1.95154e-13
4.49459e-12
2.47927e-10
-2.00703e-11
4.4676e-11
6.40869e-11
1.59795e-10
-1.30602e-11
-2.39762e-11
2.46651e-11
1.21136e-11
2.5472e-10
-9.03616e-12
-1.32789e-11
1.58546e-11
1.16645e-11
2.48957e-10
-7.26924e-12
-7.27289e-12
8.81619e-12
8.80698e-12
2.48516e-10
-5.3844e-12
-4.21239e-12
5.85966e-12
7.13159e-12
2.4697e-10
-4.14175e-12
-2.60728e-12
4.3112e-12
5.89786e-12
2.46579e-10
-3.19073e-12
-2.08889e-12
3.37975e-12
5.01195e-12
2.46888e-10
-2.64439e-12
-1.44299e-12
2.58512e-12
4.43265e-12
2.47069e-10
-2.20024e-12
-1.1713e-12
1.87266e-12
3.97675e-12
2.47522e-10
-1.89365e-12
-7.13417e-13
1.18665e-12
3.69585e-12
2.47724e-10
-1.67425e-12
-4.7666e-13
6.49655e-13
3.52877e-12
2.47972e-10
-1.58618e-12
-1.92552e-13
1.91025e-13
3.47709e-12
2.4811e-10
4.96584e-11
1.2312e-11
6.9355e-11
-3.59441e-11
-5.10064e-11
3.63531e-11
1.77262e-11
2.8155e-10
-1.08478e-11
-2.17617e-11
2.35767e-11
1.20163e-11
2.51012e-10
-7.30589e-12
-1.08863e-11
1.32011e-11
8.6471e-12
2.47914e-10
-4.21053e-12
-5.38268e-12
7.1354e-12
5.8542e-12
2.46968e-10
-3.02792e-12
-3.02771e-12
4.60903e-12
4.60595e-12
2.46888e-10
-2.49183e-12
-1.92045e-12
3.46054e-12
4.05041e-12
2.46904e-10
-2.10441e-12
-1.54146e-12
2.73642e-12
3.64371e-12
2.47266e-10
-1.88581e-12
-1.12251e-12
2.12438e-12
3.36208e-12
2.47522e-10
-1.67392e-12
-9.13421e-13
1.57539e-12
3.11891e-12
2.47893e-10
-1.53424e-12
-6.00946e-13
1.05245e-12
2.96717e-12
2.48115e-10
-1.42288e-12
-4.07012e-13
6.0225e-13
2.86853e-12
2.48359e-10
-1.37308e-12
-1.78673e-13
1.86601e-13
2.83548e-12
2.48529e-10
-4.19531e-11
-6.58092e-11
3.11457e-11
3.01259e-11
3.16985e-10
-9.73647e-12
-2.65296e-11
2.83459e-11
1.19524e-11
2.49842e-10
-8.6917e-12
-1.51388e-11
1.94235e-11
1.1095e-11
2.44862e-10
-4.52613e-12
-8.30464e-12
1.02659e-11
6.52932e-12
2.46352e-10
-2.60794e-12
-4.14117e-12
5.90104e-12
4.30879e-12
2.46578e-10
-1.92069e-12
-2.49143e-12
4.05293e-12
3.45852e-12
2.46903e-10
-1.65874e-12
-1.65832e-12
3.07911e-12
3.07735e-12
2.4716e-10
-1.48127e-12
-1.31883e-12
2.42568e-12
2.81346e-12
2.47561e-10
-1.36568e-12
-9.76031e-13
1.88069e-12
2.6308e-12
2.4783e-10
-1.24448e-12
-7.799e-13
1.40613e-12
2.47491e-12
2.48143e-10
-1.15903e-12
-5.2944e-13
9.58361e-13
2.37511e-12
2.48355e-10
-1.08435e-12
-3.5835e-13
5.59561e-13
2.30693e-12
2.48576e-10
-1.04608e-12
-1.6452e-13
1.77633e-13
2.28011e-12
2.48752e-10
5.55159e-11
1.9475e-11
6.87048e-11
-3.22098e-11
-3.0252e-11
2.55137e-11
2.14111e-11
2.67046e-10
-1.28009e-11
-1.74703e-11
2.22831e-11
1.28302e-11
2.47858e-10
-7.70575e-12
-1.00904e-11
1.42778e-11
8.78672e-12
2.45238e-10
-3.51979e-12
-5.85327e-12
7.92358e-12
4.97964e-12
2.46508e-10
-2.08809e-12
-3.19067e-12
5.01485e-12
3.37876e-12
2.46885e-10
-1.54105e-12
-2.10449e-12
3.64607e-12
2.73528e-12
2.47264e-10
-1.31867e-12
-1.48111e-12
2.81517e-12
2.42447e-12
2.4756e-10
-1.17507e-12
-1.17522e-12
2.22303e-12
2.22171e-12
2.47905e-10
-1.0852e-12
-8.83214e-13
1.72806e-12
2.08648e-12
2.48153e-10
-1.00338e-12
-6.96932e-13
1.29897e-12
1.97767e-12
2.48423e-10
-9.5021e-13
-4.86039e-13
8.95593e-13
1.908e-12
2.48632e-10
-9.04276e-13
-3.26276e-13
5.27725e-13
1.86066e-12
2.48842e-10
-8.77304e-13
-1.53876e-13
1.69842e-13
1.83962e-12
2.49021e-10
-2.01619e-11
4.10551e-11
4.35608e-11
2.01185e-10
-1.39085e-11
-1.53183e-11
2.31927e-11
1.14417e-11
2.48223e-10
-8.30481e-12
-1.30162e-11
1.79398e-11
1.03179e-11
2.44343e-10
-4.34931e-12
-7.65184e-12
1.04548e-11
6.1364e-12
2.45543e-10
-2.28882e-12
-4.46678e-12
6.40196e-12
3.64335e-12
2.46712e-10
-1.44293e-12
-2.64442e-12
4.43493e-12
2.58483e-12
2.47067e-10
-1.12247e-12
-1.88586e-12
3.36403e-12
2.12371e-12
2.4752e-10
-9.76162e-13
-1.36575e-12
2.63225e-12
1.88001e-12
2.47829e-10
-8.83125e-13
-1.08514e-12
2.08764e-12
1.72698e-12
2.48153e-10
-8.21896e-13
-8.22142e-13
1.62515e-12
1.62397e-12
2.48394e-10
-7.69955e-13
-6.44031e-13
1.2245e-12
1.54601e-12
2.48643e-10
-7.32229e-13
-4.54632e-13
8.48789e-13
1.49297e-12
2.48845e-10
-6.98914e-13
-3.01896e-13
5.01074e-13
1.45746e-12
2.49042e-10
-6.77485e-13
-1.44815e-13
1.62905e-13
1.4408e-12
2.49218e-10
-1.979e-11
-8.56903e-11
3.5147e-11
2.02561e-11
2.85854e-10
-8.1012e-12
-1.95836e-11
2.08945e-11
8.73495e-12
2.51121e-10
-6.43578e-12
-1.05747e-11
1.38128e-11
7.12845e-12
2.46541e-10
-3.02881e-12
-5.58589e-12
8.071e-12
3.96967e-12
2.46584e-10
-1.73442e-12
-3.46448e-12
5.40068e-12
2.51647e-12
2.47279e-10
-1.17093e-12
-2.20025e-12
3.97842e-12
1.87242e-12
2.4752e-10
-9.13259e-13
-1.67396e-12
3.12046e-12
1.57505e-12
2.47891e-10
-7.79655e-13
-1.24467e-12
2.47612e-12
1.40558e-12
2.48142e-10
-6.96852e-13
-1.00318e-12
1.97848e-12
1.29842e-12
2.48423e-10
-6.43292e-13
-7.69827e-13
1.54647e-12
1.2239e-12
2.48642e-10
-5.99398e-13
-6.0105e-13
1.16685e-12
1.1655e-12
2.48868e-10
-5.69099e-13
-4.29401e-13
8.12078e-13
1.12704e-12
2.49059e-10
-5.46304e-13
-2.85526e-13
4.81277e-13
1.10112e-12
2.49249e-10
-5.31945e-13
-1.36955e-13
1.56779e-13
1.08896e-12
2.49423e-10
-1.49323e-11
-6.28742e-11
2.54804e-11
7.74845e-12
2.9182e-10
-3.87084e-12
-1.36161e-11
1.88372e-11
2.84027e-12
2.47821e-10
-2.89134e-12
-8.33898e-12
1.11219e-11
2.93399e-12
2.47333e-10
-1.47559e-12
-4.08912e-12
6.65651e-12
1.93177e-12
2.46963e-10
-9.67799e-13
-2.86714e-12
4.83513e-12
1.45765e-12
2.4754e-10
-7.13404e-13
-1.89363e-12
3.69717e-12
1.18638e-12
2.47723e-10
-6.01021e-13
-1.53426e-12
2.96846e-12
1.05212e-12
2.48114e-10
-5.29546e-13
-1.15895e-12
2.37618e-12
9.57993e-13
2.48354e-10
-4.86137e-13
-9.50082e-13
1.9088e-12
8.95167e-13
2.48632e-10
-4.54855e-13
-7.31943e-13
1.49356e-12
8.48444e-13
2.48844e-10
-4.2915e-13
-5.6899e-13
1.12766e-12
8.11898e-13
2.49058e-10
-4.08039e-13
-4.09459e-13
7.86519e-13
7.85979e-13
2.49245e-10
-3.91941e-13
-2.72052e-13
4.6674e-13
7.68334e-13
2.49428e-10
-3.81489e-13
-1.32039e-13
1.52688e-13
7.58982e-13
2.49601e-10
7.05093e-12
7.4626e-11
-8.70406e-12
1.11499e-10
3.40113e-12
-4.46919e-11
3.62376e-11
-4.82654e-12
2.63118e-10
-1.64254e-12
-1.58065e-11
2.05243e-11
8.61559e-13
2.48073e-10
-1.63235e-12
-8.19553e-12
1.07434e-11
1.05907e-12
2.4825e-10
-8.17824e-13
-3.4198e-12
6.16099e-12
8.13907e-13
2.47266e-10
-6.04964e-13
-2.5047e-12
4.55571e-12
7.26376e-13
2.47827e-10
-4.76438e-13
-1.67414e-12
3.52987e-12
6.49304e-13
2.47971e-10
-4.06832e-13
-1.42279e-12
2.86962e-12
6.01901e-13
2.48358e-10
-3.58181e-13
-1.08423e-12
2.30793e-12
5.59215e-13
2.48575e-10
-3.26195e-13
-9.04116e-13
1.86146e-12
5.2739e-13
2.48841e-10
-3.01954e-13
-6.9874e-13
1.45814e-12
5.0082e-13
2.49041e-10
-2.85707e-13
-5.46306e-13
1.10188e-12
4.81078e-13
2.49249e-10
-2.72359e-13
-3.92297e-13
7.69329e-13
4.6641e-13
2.49428e-10
-2.60761e-13
-2.59846e-13
4.55646e-13
4.5555e-13
2.49609e-10
-2.52388e-13
-1.27109e-13
1.49903e-13
4.49971e-13
2.49779e-10
2.54519e-12
5.89838e-11
-8.97617e-13
1.64897e-10
3.24207e-12
-3.60343e-11
3.4549e-11
-2.08534e-12
2.55205e-10
-7.55002e-13
-1.58021e-11
2.0962e-11
3.85412e-14
2.48501e-10
-5.52631e-13
-8.24649e-12
1.09005e-11
2.19669e-13
2.48185e-10
-2.44261e-13
-3.25507e-12
6.10981e-12
1.8173e-13
2.47248e-10
-2.17031e-13
-2.39801e-12
4.49556e-12
1.94633e-13
2.47926e-10
-1.92578e-13
-1.58597e-12
3.47811e-12
1.90547e-13
2.4811e-10
-1.78687e-13
-1.37288e-12
2.83649e-12
1.86154e-13
2.48528e-10
-1.64553e-13
-1.04584e-12
2.28104e-12
1.77255e-13
2.48752e-10
-1.53944e-13
-8.77101e-13
1.84042e-12
1.69535e-13
2.49021e-10
-1.44921e-13
-6.77318e-13
1.44152e-12
1.62653e-13
2.49218e-10
-1.37112e-13
-5.31925e-13
1.08968e-12
1.56542e-13
2.49422e-10
-1.3209e-13
-3.81538e-13
7.59594e-13
1.52458e-13
2.49601e-10
-1.27107e-13
-2.52424e-13
4.50158e-13
1.49619e-13
2.49779e-10
-1.22251e-13
-1.22019e-13
1.47079e-13
1.46977e-13
2.4995e-10
-7.59784e-11
1.42452e-12
-5.75098e-12
1.82686e-11
6.20363e-11
-1.31797e-10
3.66701e-12
-1.98934e-12
2.07548e-11
1.09365e-10
-4.1963e-11
9.58101e-12
-4.89896e-12
3.72809e-11
-1.67621e-10
-7.49807e-13
4.19653e-12
3.87236e-11
1.2545e-10
1.89635e-10
4.78984e-10
9.86552e-10
-2.33386e-10
-3.03018e-10
-2.97315e-10
-3.47502e-10
5.19636e-11
1.03132e-11
-1.20361e-10
-1.24699e-10
7.64822e-11
-1.6164e-11
-1.61125e-10
-1.90358e-10
1.47071e-11
5.1068e-10
1.21118e-09
-2.97186e-10
-2.65056e-10
-3.45052e-10
-3.36633e-10
-1.7489e-11
4.48883e-11
-1.51379e-10
-1.79031e-10
-8.3285e-12
5.00317e-10
1.04669e-09
-2.48875e-10
-2.18946e-10
-3.40258e-10
-3.25976e-10
3.21643e-11
3.75759e-11
-2.31067e-10
-2.2859e-10
4.99347e-10
1.04438e-09
-2.26852e-10
-2.25879e-10
-3.38856e-10
-3.36983e-10
2.43133e-11
2.43412e-11
-2.36575e-10
-2.35217e-10
-4.25803e-11
7.73219e-12
-4.58994e-12
3.9438e-11
-2.71307e-10
-3.94393e-12
8.90897e-12
1.46966e-11
4.40391e-11
2.07606e-10
2.82571e-10
5.27717e-10
9.48397e-10
-2.12729e-10
-2.70934e-10
-2.96528e-10
-3.48166e-10
7.84933e-11
7.17307e-12
-1.82997e-10
-2.15935e-10
8.90761e-11
-1.72928e-11
-1.92279e-10
-1.96566e-10
1.98694e-10
4.82814e-10
1.13601e-09
-2.19107e-10
-2.63219e-10
-3.00584e-10
-3.31254e-10
1.95369e-11
-5.0695e-11
-1.8435e-10
-2.05283e-10
1.01959e-10
3.54654e-10
1.36669e-09
-2.57001e-10
-2.7852e-10
-2.95439e-10
-3.14669e-10
1.94373e-11
3.25584e-10
1.36084e-09
-2.57785e-10
-2.49621e-10
-2.92724e-10
-2.93088e-10
4.5268e-12
3.03072e-10
1.28446e-09
-2.45189e-10
-2.3457e-10
-2.98139e-10
-2.94405e-10
3.01588e-10
1.26551e-09
-2.3483e-10
-2.322e-10
-2.98814e-10
-2.9717e-10
-1.27216e-10
-6.24176e-12
-3.63768e-12
3.9147e-11
9.7948e-11
2.60085e-10
5.19561e-10
9.92412e-10
-2.34921e-10
-2.51509e-10
-3.25541e-10
-3.53146e-10
7.65821e-11
8.1916e-12
-1.94499e-10
-2.29915e-10
9.05781e-11
-1.49978e-11
-1.62054e-10
-1.80825e-10
2.25724e-10
4.76265e-10
1.11917e-09
-2.16922e-10
-2.41555e-10
-3.13613e-10
-3.36709e-10
2.2849e-11
-4.45153e-11
-2.08243e-10
-2.22375e-10
1.97169e-10
3.57956e-10
1.33327e-09
-2.4065e-10
-2.64945e-10
-3.03937e-10
-3.25425e-10
1.46691e-10
3.1027e-10
1.3009e-09
-2.38584e-10
-2.60327e-10
-2.78816e-10
-3.00151e-10
9.52187e-11
2.30996e-10
1.23256e-09
-2.4674e-10
-2.59069e-10
-2.6799e-10
-2.8363e-10
4.86863e-11
2.25596e-10
1.18177e-09
-2.48215e-10
-2.47697e-10
-2.65852e-10
-2.73485e-10
2.00612e-11
2.09963e-10
1.15365e-09
-2.4509e-10
-2.42317e-10
-2.71269e-10
-2.73238e-10
2.06828e-10
1.14399e-09
-2.41387e-10
-2.40304e-10
-2.73801e-10
-2.7355e-10
2.02085e-10
2.94209e-10
9.51276e-10
-2.30455e-10
-2.4963e-10
-3.23531e-10
-3.413e-10
5.88302e-11
6.76394e-11
-1.29173e-10
-1.73231e-10
7.61917e-11
1.23238e-11
-1.02881e-10
-1.12354e-10
2.03079e-10
4.02998e-10
1.08763e-09
-2.24097e-10
-2.41374e-10
-3.0789e-10
-3.28629e-10
3.2737e-11
-3.31653e-11
-1.83396e-10
-2.05815e-10
1.96973e-10
3.30948e-10
1.33408e-09
-2.46095e-10
-2.59932e-10
-3.07647e-10
-3.25683e-10
1.58264e-10
2.97389e-10
1.29404e-09
-2.36508e-10
-2.52462e-10
-2.851e-10
-3.02392e-10
1.28454e-10
2.19313e-10
1.21961e-09
-2.38773e-10
-2.53671e-10
-2.70243e-10
-2.88463e-10
9.60435e-11
2.04554e-10
1.16032e-09
-2.39363e-10
-2.49412e-10
-2.58897e-10
-2.74525e-10
6.14312e-11
1.66935e-10
1.11396e-09
-2.41928e-10
-2.47857e-10
-2.57512e-10
-2.67991e-10
3.56651e-11
1.61254e-10
1.09526e-09
-2.41815e-10
-2.43889e-10
-2.56915e-10
-2.62533e-10
1.63507e-11
1.48681e-10
1.08492e-09
-2.42008e-10
-2.42509e-10
-2.58353e-10
-2.61448e-10
1.46283e-10
1.07959e-09
-2.41391e-10
-2.41203e-10
-2.59713e-10
-2.60331e-10
2.9457e-10
2.0084e-10
9.50691e-10
-2.30131e-10
-3.23419e-10
-2.49397e-10
-3.41165e-10
7.65175e-11
1.26869e-11
-1.02769e-10
-1.1255e-10
5.87295e-11
6.76116e-11
-1.29101e-10
-1.73115e-10
2.00472e-10
1.99447e-10
1.32397e-09
-2.63408e-10
-2.7213e-10
-2.72081e-10
-3.27493e-10
1.63617e-10
2.40231e-10
1.27342e-09
-2.38459e-10
-2.56735e-10
-2.75059e-10
-3.03547e-10
1.39814e-10
1.91632e-10
1.21333e-09
-2.40588e-10
-2.54257e-10
-2.66759e-10
-2.88612e-10
1.16116e-10
1.86789e-10
1.15765e-09
-2.39158e-10
-2.49129e-10
-2.5826e-10
-2.76805e-10
9.17934e-11
1.52245e-10
1.10667e-09
-2.39442e-10
-2.48277e-10
-2.56049e-10
-2.71514e-10
7.1613e-11
1.45212e-10
1.08672e-09
-2.39421e-10
-2.46611e-10
-2.54338e-10
-2.6682e-10
5.03388e-11
1.24693e-10
1.07084e-09
-2.41154e-10
-2.4633e-10
-2.5528e-10
-2.64559e-10
3.1938e-11
1.20785e-10
1.06371e-09
-2.41865e-10
-2.44639e-10
-2.56309e-10
-2.62036e-10
1.5196e-11
1.12595e-10
1.05835e-09
-2.42687e-10
-2.44034e-10
-2.57785e-10
-2.61023e-10
1.10813e-10
1.05551e-09
-2.42901e-10
-2.43154e-10
-2.58936e-10
-2.5981e-10
-1.27158e-10
-6.23257e-12
3.91534e-11
-3.67683e-12
9.79141e-11
4.02774e-10
2.02437e-10
1.08698e-09
-2.23981e-10
-3.07809e-10
-2.41297e-10
-3.28596e-10
3.2689e-11
-3.31903e-11
-1.83345e-10
-2.0583e-10
2.40078e-10
1.6304e-10
1.2728e-09
-2.38395e-10
-2.75091e-10
-2.56693e-10
-3.03525e-10
1.6194e-10
1.61767e-10
1.18543e-09
-2.39941e-10
-2.54203e-10
-2.54182e-10
-2.80501e-10
1.19867e-10
1.34703e-10
1.11435e-09
-2.3935e-10
-2.50201e-10
-2.53037e-10
-2.7275e-10
9.39605e-11
1.30557e-10
1.08848e-09
-2.38633e-10
-2.47804e-10
-2.51736e-10
-2.68173e-10
7.24425e-11
1.1153e-10
1.06806e-09
-2.39524e-10
-2.47677e-10
-2.52407e-10
-2.66212e-10
5.5356e-11
1.06447e-10
1.05861e-09
-2.40101e-10
-2.46759e-10
-2.52662e-10
-2.63244e-10
3.87514e-11
9.4308e-11
1.05025e-09
-2.4164e-10
-2.4662e-10
-2.53724e-10
-2.61273e-10
2.48883e-11
9.09381e-11
1.0453e-09
-2.42422e-10
-2.45482e-10
-2.54426e-10
-2.59267e-10
1.20152e-11
8.55432e-11
1.04183e-09
-2.43254e-10
-2.44939e-10
-2.5544e-10
-2.58268e-10
8.42447e-11
1.04002e-09
-2.43731e-10
-2.44176e-10
-2.56337e-10
-2.57171e-10
-4.25791e-11
-4.59249e-12
7.73305e-12
3.94385e-11
5.19634e-10
2.59753e-10
9.92225e-10
-2.34892e-10
-3.2549e-10
-2.51504e-10
-3.53126e-10
9.06349e-11
-1.49147e-11
-1.61983e-10
-1.8072e-10
7.65967e-11
8.19972e-12
-1.94492e-10
-2.29921e-10
3.31018e-10
1.96558e-10
1.3337e-09
-2.46037e-10
-3.07602e-10
-2.59897e-10
-3.25669e-10
1.91631e-10
1.39525e-10
1.21308e-09
-2.4055e-10
-2.66784e-10
-2.54223e-10
-2.88619e-10
1.34777e-10
1.19725e-10
1.11421e-09
-2.39329e-10
-2.53052e-10
-2.50172e-10
-2.7275e-10
1.0027e-10
1.00189e-10
1.07688e-09
-2.39286e-10
-2.50113e-10
-2.50095e-10
-2.68368e-10
7.82288e-11
9.47382e-11
1.06213e-09
-2.39494e-10
-2.48739e-10
-2.50498e-10
-2.65532e-10
6.02979e-11
8.33168e-11
1.05025e-09
-2.40694e-10
-2.4853e-10
-2.51452e-10
-2.63433e-10
4.62412e-11
7.94186e-11
1.04351e-09
-2.4159e-10
-2.47781e-10
-2.52041e-10
-2.6101e-10
3.31238e-11
7.2246e-11
1.03806e-09
-2.42821e-10
-2.47475e-10
-2.52963e-10
-2.59627e-10
2.16332e-11
6.99219e-11
1.03472e-09
-2.43593e-10
-2.46648e-10
-2.53735e-10
-2.58238e-10
1.05676e-11
6.65927e-11
1.03253e-09
-2.44379e-10
-2.46146e-10
-2.54668e-10
-2.57318e-10
6.57153e-11
1.03142e-09
-2.44956e-10
-2.4548e-10
-2.55526e-10
-2.56349e-10
-2.71299e-10
8.90742e-12
-3.94323e-12
4.40384e-11
1.46947e-11
2.07602e-10
4.76298e-10
2.25527e-10
1.11899e-09
-2.16906e-10
-3.13591e-10
-2.41553e-10
-3.36711e-10
2.28531e-11
-4.45235e-11
-2.08249e-10
-2.22392e-10
2.9739e-10
1.58046e-10
1.29384e-09
-2.36484e-10
-2.8508e-10
-2.52459e-10
-3.02404e-10
1.86781e-10
1.1595e-10
1.15753e-09
-2.39134e-10
-2.58268e-10
-2.49117e-10
-2.76823e-10
1.30571e-10
9.38599e-11
1.08842e-09
-2.38618e-10
-2.5175e-10
-2.47789e-10
-2.68184e-10
9.47583e-11
7.81602e-11
1.06212e-09
-2.39491e-10
-2.50512e-10
-2.48727e-10
-2.65537e-10
7.15291e-11
7.15016e-11
1.0487e-09
-2.40418e-10
-2.49532e-10
-2.49521e-10
-2.62771e-10
5.40371e-11
6.36456e-11
1.03952e-09
-2.41748e-10
-2.49238e-10
-2.5052e-10
-2.60848e-10
4.06849e-11
6.03515e-11
1.03394e-09
-2.42667e-10
-2.48557e-10
-2.51185e-10
-2.59112e-10
2.89456e-11
5.57734e-11
1.03003e-09
-2.43684e-10
-2.48157e-10
-2.52017e-10
-2.57959e-10
1.87985e-11
5.39564e-11
1.02747e-09
-2.4442e-10
-2.47465e-10
-2.52705e-10
-2.56768e-10
9.18769e-12
5.1785e-11
1.0259e-09
-2.45158e-10
-2.4695e-10
-2.53491e-10
-2.55887e-10
5.11446e-11
1.0251e-09
-2.45764e-10
-2.46323e-10
-2.54244e-10
-2.55007e-10
-4.19629e-11
-4.90028e-12
9.58175e-12
3.72814e-11
5.27744e-10
2.82508e-10
9.48368e-10
-2.12722e-10
-2.96516e-10
-2.70946e-10
-3.48161e-10
8.90835e-11
-1.72801e-11
-1.9227e-10
-1.96551e-10
7.84992e-11
7.17464e-12
-1.82995e-10
-2.15936e-10
3.57981e-10
1.97039e-10
1.33318e-09
-2.40635e-10
-3.0392e-10
-2.64943e-10
-3.25427e-10
2.19323e-10
1.28322e-10
1.21952e-09
-2.38756e-10
-2.70236e-10
-2.53669e-10
-2.88474e-10
1.52251e-10
9.16896e-11
1.10661e-09
-2.39424e-10
-2.56052e-10
-2.48269e-10
-2.71528e-10
1.11544e-10
7.23713e-11
1.06801e-09
-2.3951e-10
-2.52414e-10
-2.47665e-10
-2.66221e-10
8.33324e-11
6.02458e-11
1.05023e-09
-2.40688e-10
-2.51461e-10
-2.4852e-10
-2.63438e-10
6.36642e-11
5.40118e-11
1.03951e-09
-2.41745e-10
-2.50527e-10
-2.49228e-10
-2.60849e-10
4.85379e-11
4.85197e-11
1.03255e-09
-2.42886e-10
-2.50057e-10
-2.50049e-10
-2.59309e-10
3.66566e-11
4.58282e-11
1.02811e-09
-2.43721e-10
-2.49392e-10
-2.50694e-10
-2.57893e-10
2.62551e-11
4.28445e-11
1.02515e-09
-2.44606e-10
-2.48921e-10
-2.51439e-10
-2.56862e-10
1.70861e-11
4.1497e-11
1.02318e-09
-2.45313e-10
-2.48296e-10
-2.52098e-10
-2.55849e-10
8.38485e-12
4.01e-11
1.02201e-09
-2.46008e-10
-2.47773e-10
-2.52813e-10
-2.55032e-10
3.96484e-11
1.02143e-09
-2.46615e-10
-2.4718e-10
-2.5352e-10
-2.54236e-10
-1.67622e-10
-7.50209e-13
3.87235e-11
4.19683e-12
1.25451e-10
4.82834e-10
1.98639e-10
1.13598e-09
-2.191e-10
-3.00576e-10
-2.63216e-10
-3.31258e-10
1.95385e-11
-5.06984e-11
-1.84352e-10
-2.05288e-10
3.10283e-10
1.46612e-10
1.30085e-09
-2.38575e-10
-2.78805e-10
-2.6033e-10
-3.00159e-10
2.04555e-10
9.59659e-11
1.16028e-09
-2.39353e-10
-2.58893e-10
-2.49414e-10
-2.7454e-10
1.45211e-10
7.15471e-11
1.08669e-09
-2.3941e-10
-2.5434e-10
-2.46608e-10
-2.66833e-10
1.0645e-10
5.53077e-11
1.05859e-09
-2.40092e-10
-2.52667e-10
-2.46753e-10
-2.63254e-10
7.94222e-11
4.62034e-11
1.0435e-09
-2.41585e-10
-2.52048e-10
-2.47775e-10
-2.61016e-10
6.03572e-11
4.06624e-11
1.03394e-09
-2.42665e-10
-2.51192e-10
-2.4855e-10
-2.59114e-10
4.5836e-11
3.66404e-11
1.02811e-09
-2.4372e-10
-2.50701e-10
-2.49387e-10
-2.57896e-10
3.43842e-11
3.43745e-11
1.02425e-09
-2.44534e-10
-2.50061e-10
-2.50055e-10
-2.56693e-10
2.45544e-11
3.2301e-11
1.0218e-09
-2.4535e-10
-2.49558e-10
-2.50752e-10
-2.55763e-10
1.59081e-11
3.12482e-11
1.02013e-09
-2.46032e-10
-2.48959e-10
-2.51383e-10
-2.54859e-10
7.80227e-12
3.03087e-11
1.01917e-09
-2.46693e-10
-2.48433e-10
-2.5204e-10
-2.54103e-10
2.99733e-11
1.01869e-09
-2.47291e-10
-2.47856e-10
-2.52698e-10
-2.53369e-10
4.78992e-10
1.89622e-10
9.86547e-10
-2.33385e-10
-2.97309e-10
-3.0302e-10
-3.47507e-10
7.64834e-11
-1.61613e-11
-1.61125e-10
-1.90356e-10
5.1965e-11
1.03136e-11
-1.2036e-10
-1.24699e-10
3.54661e-10
1.01922e-10
1.36665e-09
-2.56989e-10
-2.95434e-10
-2.78513e-10
-3.14673e-10
2.31003e-10
9.51696e-11
1.23253e-09
-2.46733e-10
-2.67985e-10
-2.59069e-10
-2.83637e-10
1.66938e-10
6.13816e-11
1.11394e-09
-2.41919e-10
-2.5751e-10
-2.47855e-10
-2.68e-10
1.24695e-10
5.02952e-11
1.07081e-09
-2.41145e-10
-2.55281e-10
-2.46326e-10
-2.64566e-10
9.43114e-11
3.87175e-11
1.05023e-09
-2.41633e-10
-2.53728e-10
-2.46614e-10
-2.61278e-10
7.22494e-11
3.30963e-11
1.03805e-09
-2.42816e-10
-2.52968e-10
-2.47469e-10
-2.5963e-10
5.57776e-11
2.89279e-11
1.03002e-09
-2.4368e-10
-2.52022e-10
-2.48151e-10
-2.57961e-10
4.28482e-11
2.62419e-11
1.02515e-09
-2.44604e-10
-2.51444e-10
-2.48916e-10
-2.56863e-10
3.23082e-11
2.45479e-11
1.0218e-09
-2.4535e-10
-2.5076e-10
-2.49554e-10
-2.55765e-10
2.31875e-11
2.31809e-11
1.0197e-09
-2.46099e-10
-2.50224e-10
-2.5022e-10
-2.5492e-10
1.50427e-11
2.24206e-11
1.01826e-09
-2.46747e-10
-2.49627e-10
-2.50822e-10
-2.54094e-10
7.39062e-12
2.18096e-11
1.01744e-09
-2.47374e-10
-2.49084e-10
-2.51442e-10
-2.53384e-10
2.15776e-11
1.01703e-09
-2.47958e-10
-2.48519e-10
-2.52065e-10
-2.52702e-10
5.10694e-10
1.47011e-11
1.21117e-09
-2.97187e-10
-3.45055e-10
-2.65059e-10
-3.36633e-10
-1.7489e-11
4.48873e-11
-1.5138e-10
-1.79032e-10
3.25587e-10
1.94189e-11
1.36082e-09
-2.57776e-10
-2.92724e-10
-2.49614e-10
-2.93093e-10
2.25598e-10
4.86579e-11
1.18175e-09
-2.48212e-10
-2.65852e-10
-2.47696e-10
-2.73492e-10
1.61253e-10
3.56352e-11
1.09525e-09
-2.4181e-10
-2.56916e-10
-2.43887e-10
-2.62539e-10
1.20784e-10
3.19098e-11
1.0637e-09
-2.4186e-10
-2.56312e-10
-2.44636e-10
-2.62042e-10
9.09367e-11
2.48651e-11
1.04529e-09
-2.42418e-10
-2.5443e-10
-2.45478e-10
-2.5927e-10
6.99202e-11
2.16131e-11
1.03471e-09
-2.4359e-10
-2.5374e-10
-2.46644e-10
-2.5824e-10
5.39553e-11
1.87843e-11
1.02746e-09
-2.44417e-10
-2.5271e-10
-2.4746e-10
-2.56771e-10
4.14963e-11
1.70749e-11
1.02318e-09
-2.45311e-10
-2.52103e-10
-2.48291e-10
-2.55851e-10
3.12485e-11
1.59018e-11
1.02013e-09
-2.46031e-10
-2.51388e-10
-2.48956e-10
-2.54861e-10
2.24232e-11
1.50385e-11
1.01826e-09
-2.46748e-10
-2.50829e-10
-2.49624e-10
-2.54095e-10
1.45271e-11
1.4526e-11
1.01696e-09
-2.47376e-10
-2.50227e-10
-2.50223e-10
-2.53339e-10
7.13745e-12
1.4143e-11
1.01622e-09
-2.47983e-10
-2.49679e-10
-2.50824e-10
-2.52674e-10
1.3985e-11
1.01585e-09
-2.48556e-10
-2.49114e-10
-2.51422e-10
-2.52029e-10
-7.59785e-11
1.42462e-12
1.82685e-11
-5.75098e-12
6.20364e-11
5.00322e-10
-8.3306e-12
1.04668e-09
-2.48876e-10
-3.40258e-10
-2.18946e-10
-3.25976e-10
3.21646e-11
3.75768e-11
-2.31068e-10
-2.2859e-10
3.03072e-10
4.52055e-12
1.28444e-09
-2.45182e-10
-2.9814e-10
-2.34565e-10
-2.94406e-10
2.09962e-10
2.00478e-11
1.15363e-09
-2.45087e-10
-2.71272e-10
-2.42314e-10
-2.7324e-10
1.48679e-10
1.63345e-11
1.08491e-09
-2.42004e-10
-2.58355e-10
-2.42505e-10
-2.6145e-10
1.12593e-10
1.51793e-11
1.05834e-09
-2.42682e-10
-2.57789e-10
-2.44029e-10
-2.61025e-10
8.55415e-11
1.20005e-11
1.04181e-09
-2.4325e-10
-2.55444e-10
-2.44934e-10
-2.5827e-10
6.65909e-11
1.05541e-11
1.03252e-09
-2.44375e-10
-2.54673e-10
-2.46141e-10
-2.5732e-10
5.17837e-11
9.17742e-12
1.0259e-09
-2.45155e-10
-2.53495e-10
-2.46945e-10
-2.55889e-10
4.00991e-11
8.37607e-12
1.02201e-09
-2.46005e-10
-2.52817e-10
-2.47769e-10
-2.55034e-10
3.03088e-11
7.79656e-12
1.01917e-09
-2.46691e-10
-2.52043e-10
-2.48429e-10
-2.54104e-10
2.18111e-11
7.38578e-12
1.01744e-09
-2.47373e-10
-2.51445e-10
-2.49081e-10
-2.53385e-10
1.41438e-11
7.13508e-12
1.01621e-09
-2.47982e-10
-2.50825e-10
-2.49676e-10
-2.52674e-10
6.95896e-12
6.95716e-12
1.01553e-09
-2.48575e-10
-2.50268e-10
-2.50265e-10
-2.52046e-10
6.87606e-12
1.01519e-09
-2.49145e-10
-2.497e-10
-2.50847e-10
-2.51432e-10
-1.31798e-10
3.66727e-12
2.07551e-11
-1.98978e-12
1.09365e-10
4.99353e-10
1.04438e-09
-2.26854e-10
-3.38859e-10
-2.25879e-10
-3.36984e-10
2.43126e-11
2.43413e-11
-2.36576e-10
-2.35217e-10
3.01588e-10
1.2655e-09
-2.34825e-10
-2.98817e-10
-2.32194e-10
-2.9717e-10
2.06827e-10
1.14398e-09
-2.41386e-10
-2.73807e-10
-2.40301e-10
-2.73551e-10
1.4628e-10
1.07958e-09
-2.41389e-10
-2.59719e-10
-2.412e-10
-2.60332e-10
1.10809e-10
1.0555e-09
-2.42899e-10
-2.58941e-10
-2.4315e-10
-2.59812e-10
8.42398e-11
1.04001e-09
-2.43728e-10
-2.56342e-10
-2.44172e-10
-2.57173e-10
6.571e-11
1.03142e-09
-2.44954e-10
-2.55531e-10
-2.45476e-10
-2.56352e-10
5.11394e-11
1.0251e-09
-2.45762e-10
-2.54249e-10
-2.46319e-10
-2.5501e-10
3.96436e-11
1.02143e-09
-2.46613e-10
-2.53524e-10
-2.47177e-10
-2.54239e-10
2.99694e-11
1.01869e-09
-2.47289e-10
-2.52702e-10
-2.47853e-10
-2.53371e-10
2.15747e-11
1.01703e-09
-2.47957e-10
-2.52069e-10
-2.48516e-10
-2.52704e-10
1.39826e-11
1.01585e-09
-2.48555e-10
-2.51425e-10
-2.49111e-10
-2.5203e-10
6.87395e-12
1.01519e-09
-2.49144e-10
-2.50849e-10
-2.49698e-10
-2.51432e-10
1.01486e-09
-2.49712e-10
-2.50273e-10
-2.50272e-10
-2.50842e-10
-2.50182e-11
-1.06046e-12
-3.87351e-13
-1.66958e-11
4.31619e-11
-5.67668e-11
9.431e-13
-7.2011e-13
-1.68296e-11
7.33734e-11
-1.74184e-11
2.90691e-12
-1.25665e-11
2.7078e-11
-5.95349e-11
4.03822e-12
-1.84129e-11
-1.23946e-11
8.63041e-11
4.75128e-11
1.15614e-10
8.64014e-10
5.38507e-11
4.49162e-11
-5.90477e-11
-5.38232e-11
6.65945e-11
4.4078e-11
-7.66477e-11
-6.05073e-11
1.79022e-11
1.5451e-10
1.12281e-09
3.87627e-11
5.72355e-11
-5.23364e-11
-8.0192e-11
9.8757e-12
1.34883e-10
9.77655e-10
6.42824e-11
6.39875e-11
-9.29983e-11
-9.30886e-11
1.41351e-10
9.80991e-10
6.07143e-11
6.05904e-11
-9.48269e-11
-9.43817e-11
-1.73287e-11
4.26841e-12
-1.50764e-11
2.81367e-11
-1.1029e-10
3.81371e-12
7.35382e-12
-1.61335e-11
-1.37949e-11
1.29051e-10
5.88931e-11
1.50579e-10
8.41022e-10
6.64958e-11
5.32471e-11
-8.9716e-11
-9.16028e-11
7.60007e-11
4.17828e-11
-9.23417e-11
-6.59553e-11
7.25109e-12
1.55849e-10
1.07011e-09
6.10659e-11
3.98062e-11
-7.35362e-11
-6.56407e-11
1.05619e-11
1.47945e-10
1.33105e-09
1.39588e-11
1.66138e-10
1.34582e-09
9.50017e-12
1.39713e-10
1.28409e-09
1.40269e-10
1.27619e-09
-3.96606e-11
-2.93248e-12
-1.43897e-11
-1.07715e-11
6.77543e-11
7.13468e-11
1.44542e-10
8.75858e-10
6.61825e-11
5.47263e-11
-9.17937e-11
-9.50575e-11
6.97204e-11
4.01182e-11
-8.18674e-11
-6.13555e-11
4.77049e-11
1.47886e-10
1.04955e-09
6.35172e-11
3.83658e-11
-8.47798e-11
-7.17272e-11
7.5918e-11
1.43028e-10
1.31261e-09
7.48671e-11
1.58711e-10
1.29909e-09
6.36033e-11
1.5196e-10
1.23981e-09
4.63159e-11
1.63112e-10
1.20208e-09
2.19851e-11
1.47681e-10
1.17001e-09
1.46437e-10
1.15987e-09
6.49474e-11
7.31819e-11
8.296e-10
6.07174e-11
6.2577e-11
-5.664e-11
-7.44014e-11
5.00444e-11
3.34217e-11
-4.83741e-11
-4.37905e-11
4.52747e-11
1.22699e-10
1.02754e-09
5.69254e-11
4.08933e-11
-7.49532e-11
-6.57952e-11
8.34447e-11
1.27268e-10
1.31318e-09
9.01346e-11
1.43477e-10
1.29176e-09
8.26907e-11
1.40704e-10
1.22938e-09
6.64335e-11
1.47474e-10
1.18781e-09
4.66856e-11
1.35639e-10
1.15003e-09
3.17099e-11
1.35251e-10
1.1381e-09
1.55162e-11
1.23881e-10
1.12491e-09
1.22306e-10
1.11926e-09
7.34344e-11
6.47745e-11
8.28864e-10
5.01469e-11
3.35454e-11
-4.83474e-11
-4.39208e-11
6.06481e-11
6.25591e-11
-5.66288e-11
-7.43763e-11
8.50617e-11
8.50945e-11
1.30043e-09
1.00897e-10
1.15125e-10
1.26515e-09
9.91559e-11
1.22317e-10
1.22002e-09
8.85731e-11
1.31679e-10
1.18004e-09
7.38516e-11
1.23334e-10
1.13876e-09
6.02089e-11
1.22754e-10
1.12508e-09
4.51255e-11
1.13172e-10
1.10839e-09
3.094e-11
1.12246e-10
1.10091e-09
1.53102e-11
1.05819e-10
1.09204e-09
1.04819e-10
1.08831e-09
-3.96417e-11
-2.93567e-12
-1.07611e-11
-1.43978e-11
6.77362e-11
1.228e-10
4.50772e-11
1.02685e-09
5.68975e-11
4.0891e-11
-7.49461e-11
-6.58077e-11
1.14926e-10
1.00617e-10
1.26515e-09
1.10346e-10
1.1017e-10
1.19496e-09
9.47648e-11
1.08265e-10
1.14398e-09
8.07862e-11
1.08723e-10
1.12542e-09
6.5607e-11
1.01373e-10
1.1052e-09
5.18006e-11
9.95521e-11
1.09563e-09
3.77591e-11
9.28099e-11
1.08465e-09
2.52581e-11
9.11728e-11
1.07888e-09
1.24819e-11
8.691e-11
1.07351e-09
8.60499e-11
1.07127e-09
-1.73284e-11
-1.50792e-11
4.26982e-12
2.81378e-11
1.44551e-10
7.11905e-11
8.75673e-10
6.97395e-11
4.01395e-11
-8.18295e-11
-6.13062e-11
6.61964e-11
5.47382e-11
-9.17964e-11
-9.50631e-11
1.27295e-10
8.32372e-11
1.31279e-09
1.22211e-10
9.89866e-11
1.21979e-09
1.08244e-10
9.4634e-11
1.14371e-09
8.99796e-11
8.99304e-11
1.11348e-09
7.44917e-11
8.78927e-11