/*--------------------------------*- C++ -*----------------------------------*\
| =========                 |                                                 |
| \\      /  F ield         | OpenFOAM: The Open Source CFD Toolbox           |
|  \\    /   O peration     | Version:  2.1.1                                 |
|   \\  /    A nd           | Web:      www.OpenFOAM.org                      |
|    \\/     M anipulation  |                                                 |
\*---------------------------------------------------------------------------*/
FoamFile
{
    version     2.0;
    format      ascii;
    class       volVectorField;
    location    "0.001";
    object      U;
}
// * * * * * * * * * * * * * * * * * * * * * * * * * * * * * * * * * * * * * //

dimensions      [0 1 -1 0 0 0 0];

internalField   nonuniform List<vector> 
10343
(
(-0.0131364 0.00494086 0.0631382)
(-0.00131967 0.000530344 0.0725107)
(0.00232086 -0.00722526 0.0533743)
(-0.00454449 -0.00691287 0.062901)
(0.00252414 -0.00535462 0.0796325)
(-0.00212884 -0.00762881 0.0804579)
(-0.00424037 0.0141 0.0814215)
(-0.0013212 0.016181 0.0805432)
(0.000971428 -0.00405451 0.0557991)
(-0.00129261 -0.00888195 0.0774909)
(0.00700785 0.00414097 0.0801158)
(0.00248011 0.00537455 0.0778229)
(0.00201975 0.00292331 0.080525)
(-2.48812e-05 0.00193662 0.0830844)
(-8.80584e-05 0.00496897 0.083803)
(7.52693e-05 0.00651246 0.0839401)
(-0.00495373 -0.000197574 0.0621111)
(0.00202078 0.00772724 0.0821984)
(0.00155586 0.0081004 0.0786703)
(0.00441524 0.00600876 0.0802406)
(0.00308429 0.00426932 0.0822727)
(0.00224107 0.00297907 0.0835937)
(0.000660901 0.0023851 0.0843281)
(0.000249959 0.00274549 0.0846083)
(7.17673e-05 0.00306126 0.084633)
(-0.000952304 0.00285718 0.0771488)
(0.00223795 0.00938099 0.0812675)
(0.00316337 0.00694354 0.080873)
(0.00306215 0.0053431 0.0824879)
(0.00290744 0.00387144 0.0833621)
(0.00187902 0.00272837 0.0838332)
(0.00124629 0.0019994 0.0841342)
(0.000461439 0.00150894 0.0844367)
(0.000203473 0.00130489 0.0845876)
(2.11774e-05 0.00127383 0.0846438)
(0.00286296 -0.00094587 0.0771351)
(0.00386941 0.00386485 0.0842881)
(0.003777 0.00511621 0.0837491)
(0.0024557 0.00377286 0.0839454)
(0.00181252 0.00289104 0.0840144)
(0.00157656 0.0022069 0.0840737)
(0.00107107 0.00181271 0.0842141)
(0.000764576 0.00149432 0.0843667)
(0.000360269 0.00131283 0.0845346)
(0.000187362 0.00118198 0.08464)
(2.6479e-05 0.00114361 0.0847125)
(-0.000194029 -0.0049526 0.0621059)
(0.00938938 0.00224352 0.0812637)
(0.00511045 0.00378712 0.0837412)
(0.00237358 0.00238035 0.0844427)
(0.00162741 0.00190724 0.0841868)
(0.00118859 0.00163307 0.0841854)
(0.00102549 0.00137201 0.0842556)
(0.000714341 0.00121993 0.0843705)
(0.000541845 0.00106758 0.0845086)
(0.000291854 0.000959296 0.084635)
(0.000164986 0.000869358 0.084731)
(2.52312e-05 0.000830275 0.0848077)
(-0.00405477 0.000968731 0.0557979)
(0.00772855 0.00201812 0.0821974)
(0.00694676 0.00316214 0.0808705)
(0.00377047 0.00245955 0.0839418)
(0.00190412 0.00162989 0.0841865)
(0.00128787 0.0012891 0.0842137)
(0.00094367 0.00115133 0.0842904)
(0.000787185 0.00101733 0.0843966)
(0.000569259 0.000941818 0.0845172)
(0.000438991 0.00086213 0.0846347)
(0.000262989 0.000810808 0.0847384)
(0.000150873 0.00076446 0.0848247)
(2.53274e-05 0.000743506 0.0849009)
(-0.00888051 -0.00129389 0.0774905)
(0.0081016 0.00155474 0.0786695)
(0.00534426 0.00306183 0.082486)
(0.00289027 0.00181411 0.0840126)
(0.00163245 0.00119036 0.084185)
(0.00115082 0.000944516 0.0842901)
(0.000837629 0.00083818 0.0844075)
(0.000681427 0.000760507 0.0845271)
(0.00050094 0.000712643 0.0846368)
(0.000384332 0.000662203 0.0847386)
(0.000241028 0.000626817 0.0848294)
(0.000137508 0.000594456 0.0849105)
(2.33206e-05 0.000577432 0.0849851)
(-0.0072252 0.00232121 0.0533744)
(0.0041411 0.00700732 0.0801155)
(0.00600965 0.00441422 0.0802397)
(0.00387176 0.00290709 0.0833604)
(0.00220731 0.00157688 0.0840726)
(0.00137213 0.00102601 0.0842548)
(0.00101732 0.000787499 0.0843961)
(0.000760276 0.000681636 0.0845269)
(0.000613871 0.00061393 0.0846403)
(0.000459288 0.000573901 0.0847395)
(0.000349817 0.000537895 0.084831)
(0.000226327 0.000514595 0.0849146)
(0.00012778 0.000494412 0.0849911)
(2.19719e-05 0.000482411 0.085063)
(-0.00691295 -0.00454471 0.062901)
(0.00537472 0.00247998 0.077823)
(0.00426978 0.00308399 0.082272)
(0.00272882 0.00187909 0.0838323)
(0.00181318 0.0010714 0.0842133)
(0.00122019 0.000714729 0.0843698)
(0.000941927 0.000569522 0.0845167)
(0.000712578 0.000501198 0.0846366)
(0.000573858 0.000459361 0.0847394)
(0.0004321 0.000432056 0.0848303)
(0.000327363 0.000408977 0.0849149)
(0.000214865 0.000391878 0.0849927)
(0.000119647 0.00037717 0.0850652)
(2.05175e-05 0.000367971 0.0851343)
(-0.00535478 0.00252423 0.0796324)
(0.00292373 0.00201966 0.0805248)
(0.00297944 0.00224072 0.0835931)
(0.00199978 0.00124611 0.0841336)
(0.0014947 0.000764504 0.0843661)
(0.0010678 0.000541843 0.084508)
(0.000862278 0.000439049 0.0846342)
(0.000662227 0.000384358 0.0847383)
(0.000537811 0.000349868 0.0848308)
(0.000408835 0.000327288 0.0849147)
(0.000308644 0.000308233 0.084993)
(0.000204551 0.000295119 0.085066)
(0.000113611 0.000284695 0.0851354)
(1.89719e-05 0.000278213 0.085202)
(-0.00762885 -0.00212904 0.0804579)
(0.00193701 -2.49219e-05 0.0830842)
(0.00238541 0.000660794 0.0843277)
(0.00150922 0.000461336 0.0844363)
(0.00131312 0.000360193 0.0845342)
(0.000959481 0.000291882 0.0846346)
(0.000810957 0.000263076 0.0847381)
(0.000626835 0.000241141 0.0848291)
(0.000514555 0.00022643 0.0849144)
(0.000391754 0.000214997 0.0849926)
(0.000295111 0.000204613 0.0850658)
(0.000196506 0.000196346 0.0851351)
(0.000108671 0.000189506 0.0852016)
(1.81661e-05 0.000184732 0.0852665)
(0.00494084 -0.0131364 0.0631382)
(0.0141 -0.00424057 0.0814214)
(0.00496936 -8.82599e-05 0.0838028)
(0.00274581 0.000249734 0.0846081)
(0.00130512 0.000203248 0.0845873)
(0.00118219 0.000187197 0.0846398)
(0.000869493 0.000164857 0.0847307)
(0.00076457 0.00015079 0.0848244)
(0.000594495 0.000137463 0.0849102)
(0.000494389 0.000127772 0.0849909)
(0.000377114 0.000119695 0.0850651)
(0.000284745 0.000113691 0.0851352)
(0.000189632 0.000108704 0.0852016)
(0.000104007 0.000104186 0.0852662)
(1.70592e-05 0.000101009 0.0853295)
(0.00053033 -0.00131968 0.0725107)
(0.016181 -0.00132125 0.0805432)
(0.0065129 7.50932e-05 0.0839399)
(0.00306163 7.16172e-05 0.0846329)
(0.00127416 2.10507e-05 0.0846436)
(0.00114379 2.64095e-05 0.0847123)
(0.000830358 2.5185e-05 0.0848074)
(0.000743568 2.5308e-05 0.0849006)
(0.00057743 2.33446e-05 0.0849848)
(0.000482384 2.20352e-05 0.0850628)
(0.000367925 2.06082e-05 0.0851341)
(0.000278242 1.90724e-05 0.0852019)
(0.000184752 1.8234e-05 0.0852664)
(0.000100977 1.71085e-05 0.0853295)
(1.46717e-05 1.47868e-05 0.0853922)
(-0.00587628 -0.00485636 0.0401465)
(-0.00213823 -0.00605922 0.0570963)
(0.002525 -0.0050977 0.0342617)
(-0.00543474 -0.00591183 0.0587876)
(0.0213308 0.0240381 0.117964)
(0.00422442 0.0369249 0.137295)
(-0.000726123 0.0452761 0.124944)
(-0.000729024 0.0500339 0.123651)
(-0.00071497 -0.00667993 0.0367846)
(-0.00461361 -0.0101345 0.0784958)
(0.0253791 0.035763 0.107766)
(0.0121331 0.032677 0.12343)
(0.00972982 0.019589 0.151434)
(-0.000821098 0.0167907 0.150323)
(-0.000146679 0.0180974 0.14485)
(-0.000449858 0.0203674 0.14304)
(-0.0114252 -0.00254194 0.0534768)
(0.022877 0.0398225 0.115014)
(0.0113234 0.0373513 0.124059)
(0.0148592 0.026434 0.149444)
(0.0085663 0.020904 0.147379)
(0.00750289 0.0130103 0.145484)
(0.0027609 0.0146454 0.141252)
(0.00176726 0.0151575 0.13953)
(0.000108872 0.0159959 0.13858)
(0.0195787 0.024362 0.11991)
(0.00772797 0.0351383 0.124875)
(0.0140248 0.0271458 0.150675)
(0.00838244 0.0226549 0.147317)
(0.00898351 0.0144562 0.144428)
(0.00609815 0.0134142 0.139161)
(0.0047144 0.00995133 0.136478)
(0.00211292 0.00991776 0.134575)
(0.00150626 0.00930483 0.13417)
(0.00020121 0.00947875 0.133684)
(0.0243439 0.0195653 0.119833)
(0.0151444 0.015117 0.15393)
(0.00893562 0.0195904 0.147931)
(0.00881893 0.0135244 0.144361)
(0.0069809 0.01365 0.139419)
(0.00634124 0.0103704 0.13629)
(0.00469574 0.0101313 0.134519)
(0.00383697 0.00835721 0.134085)
(0.00226345 0.00850394 0.133642)
(0.00149436 0.00806527 0.133628)
(0.000327762 0.00812753 0.133444)
(-0.00254423 -0.0114245 0.0534654)
(0.0351115 0.00775238 0.124829)
(0.0195559 0.0089439 0.147909)
(0.0111111 0.0111233 0.141378)
(0.00837745 0.00923779 0.136628)
(0.00618072 0.00939474 0.134525)
(0.00518147 0.00773083 0.133775)
(0.00382604 0.00749714 0.133233)
(0.00297888 0.00640699 0.133186)
(0.00183837 0.00623418 0.132914)
(0.00118567 0.00581559 0.132887)
(0.00029756 0.00577075 0.132774)
(-0.00668033 -0.00071215 0.0367843)
(0.0398155 0.0228562 0.114997)
(0.0271333 0.0140077 0.150644)
(0.0135064 0.00881855 0.144343)
(0.00922973 0.0083832 0.136619)
(0.00696816 0.00697152 0.134286)
(0.00536003 0.00694122 0.133475)
(0.00435199 0.00597881 0.133221)
(0.00329533 0.00579074 0.132959)
(0.00255814 0.00517192 0.13295)
(0.00168893 0.00508399 0.132825)
(0.00106 0.00483962 0.132833)
(0.000299441 0.00481174 0.132786)
(-0.0101343 -0.00461347 0.0784951)
(0.0373496 0.0113152 0.124048)
(0.0226453 0.00837589 0.147304)
(0.0136377 0.00698037 0.13941)
(0.00938721 0.00618476 0.134521)
(0.00693561 0.00536267 0.133475)
(0.00513824 0.00514207 0.132984)
(0.00400715 0.00456211 0.132863)
(0.002994 0.00438365 0.132693)
(0.0022623 0.00399844 0.132689)
(0.0015106 0.00388661 0.132605)
(0.000924214 0.00370729 0.132607)
(0.000276353 0.00366877 0.132576)
(-0.00509807 0.00252584 0.034262)
(0.0357624 0.0253737 0.107761)
(0.0264338 0.0148489 0.149437)
(0.0144521 0.00897541 0.144421)
(0.0103646 0.00633792 0.136284)
(0.00772637 0.00518113 0.13377)
(0.00597538 0.00435241 0.133219)
(0.00455944 0.00400908 0.132862)
(0.00358723 0.00358884 0.132762)
(0.00272329 0.00342787 0.13264)
(0.00205798 0.00318559 0.132634)
(0.00140067 0.00310587 0.132584)
(0.000847288 0.00299629 0.132588)
(0.000264234 0.0029704 0.132574)
(-0.00591192 -0.00543462 0.058788)
(0.0326782 0.0121305 0.123428)
(0.020904 0.00856157 0.147376)
(0.0134115 0.00609459 0.139158)
(0.0101272 0.00469397 0.134516)
(0.00749354 0.00382611 0.133231)
(0.00578755 0.00329577 0.132958)
(0.00438105 0.00299533 0.132692)
(0.00342597 0.00272446 0.13264)
(0.00258866 0.00258997 0.132553)
(0.00193951 0.00243122 0.132549)
(0.0013226 0.00236287 0.132513)
(0.000790974 0.00228735 0.132515)
(0.00025182 0.00226466 0.132505)
(0.0240377 0.0213303 0.117964)
(0.0195896 0.00972698 0.151431)
(0.0130103 0.00749934 0.145482)
(0.00994977 0.00471139 0.136476)
(0.00835486 0.00383519 0.134083)
(0.00640474 0.0029783 0.133184)
(0.0051698 0.00255814 0.132948)
(0.00399655 0.00226299 0.132688)
(0.00318402 0.00205876 0.132633)
(0.00243006 0.0019405 0.132549)
(0.00183099 0.00183175 0.13254)
(0.00125765 0.00177895 0.13251)
(0.00075031 0.00172988 0.132508)
(0.000242062 0.00171364 0.132501)
(0.0369248 0.00422402 0.137295)
(0.0167907 -0.000821904 0.150322)
(0.0146453 0.00275946 0.141251)
(0.00991652 0.00211166 0.134573)
(0.00850223 0.00226264 0.133641)
(0.00623232 0.00183816 0.132913)
(0.00508208 0.00168897 0.132824)
(0.00388482 0.00151105 0.132604)
(0.0031043 0.00140117 0.132584)
(0.00236156 0.00132333 0.132513)
(0.00177798 0.00125822 0.13251)
(0.00122106 0.00122174 0.132486)
(0.000726247 0.00119078 0.132484)
(0.000235606 0.00117934 0.132479)
(-0.0048564 -0.00587636 0.0401466)
(0.0452756 -0.000726562 0.124943)
(0.0180973 -0.00014689 0.144848)
(0.0151571 0.0017667 0.139528)
(0.00930388 0.00150578 0.134168)
(0.00806395 0.00149413 0.133626)
(0.00581415 0.00118575 0.132886)
(0.00483815 0.00106022 0.132832)
(0.00370587 0.000924677 0.132606)
(0.00299502 0.000847774 0.132588)
(0.00228628 0.000791602 0.132514)
(0.00172906 0.00075088 0.132508)
(0.00119021 0.000726857 0.132484)
(0.00070805 0.000708542 0.132482)
(0.000230751 0.000700495 0.132477)
(-0.00605922 -0.00213845 0.0570963)
(0.0500338 -0.000728551 0.123651)
(0.0203672 -0.000449497 0.143039)
(0.0159955 0.00010899 0.138579)
(0.0094779 0.000201181 0.133684)
(0.00812634 0.000327664 0.133444)
(0.00576932 0.000297516 0.132774)
(0.0048102 0.000299335 0.132786)
(0.00366724 0.000276335 0.132576)
(0.00296899 0.000264174 0.132573)
(0.00226343 0.000251877 0.132505)
(0.00171265 0.000242065 0.132501)
(0.00117858 0.000235765 0.132479)
(0.00069988 0.000230836 0.132477)
(0.000228321 0.000228704 0.132472)
(-0.000434201 -0.00589783 0.0187339)
(-0.000786291 -0.00598118 0.0293736)
(0.00147701 -0.00384796 0.0179601)
(-0.00575396 -0.00578815 0.0286037)
(0.00466294 0.00621679 0.0846948)
(0.00179907 0.0106991 0.105642)
(0.00222745 0.0104952 0.0962296)
(-0.000108163 0.0117798 0.0970158)
(0.000283796 -0.0047383 0.0186459)
(-0.00592481 -0.00671168 0.0381534)
(0.00765017 0.0101377 0.0836677)
(-0.00140223 0.00657593 0.102525)
(-4.68784e-05 0.00342855 0.125184)
(-0.000793667 0.00425408 0.12692)
(0.00115145 0.00265264 0.122829)
(-0.000338028 0.00350836 0.123118)
(-0.00574991 -0.00588625 0.0244271)
(0.00827947 0.0110984 0.0871108)
(-0.000322886 0.00794054 0.102866)
(0.00367213 0.00510558 0.125706)
(0.00374626 0.00649823 0.12257)
(0.00412819 0.00685218 0.113925)
(0.00302289 0.00967046 0.109794)
(0.00240716 0.00936112 0.107749)
(0.000302154 0.00997789 0.107538)
(0.00783426 0.00499249 0.0812828)
(-0.000387071 0.00814296 0.102599)
(0.00364291 0.00576756 0.125939)
(0.00440984 0.00652573 0.123097)
(0.00509972 0.00704378 0.114372)
(0.00417723 0.0082932 0.108811)
(0.00324662 0.00761675 0.103661)
(0.00198553 0.00785807 0.102406)
(0.00156126 0.00698441 0.101513)
(0.000244184 0.00704187 0.101239)
(0.00497448 0.00781131 0.0812566)
(0.0034188 0.00340221 0.126893)
(0.00525633 0.00565699 0.122142)
(0.00568867 0.00670452 0.11407)
(0.00550928 0.00825551 0.10885)
(0.00487119 0.00778381 0.103243)
(0.00402664 0.00809115 0.101512)
(0.00332529 0.00742108 0.099493)
(0.00230032 0.00775899 0.0988403)
(0.00158337 0.00739984 0.0981486)
(0.000379197 0.00749473 0.0978994)
(-0.00588868 -0.00574964 0.0244245)
(0.00811887 -0.000367749 0.102556)
(0.00563603 0.00526424 0.122119)
(0.00688164 0.00687897 0.112426)
(0.00606769 0.00700079 0.10451)
(0.00537665 0.00732479 0.102034)
(0.00462101 0.00682023 0.0994851)
(0.00367355 0.00681254 0.0984458)
(0.00289825 0.00626904 0.0972198)
(0.00195238 0.00622459 0.096662)
(0.00128495 0.00588044 0.0961786)
(0.000340052 0.00585603 0.0959939)
(-0.00473862 0.000285627 0.0186464)
(0.0110926 0.00826902 0.0870971)
(0.00575931 0.00364099 0.125914)
(0.006689 0.00570059 0.114052)
(0.00699531 0.00607398 0.104498)
(0.00609339 0.00609614 0.100568)
(0.00519465 0.00624476 0.0989512)
(0.00436282 0.00585774 0.0973053)
(0.00348928 0.0058414 0.0964275)
(0.00275336 0.00550484 0.0955814)
(0.00191156 0.00551232 0.0951425)
(0.0012105 0.00533026 0.0948036)
(0.000354667 0.00532589 0.0946668)
(-0.0067125 -0.00592494 0.0381533)
(0.00794001 -0.000326375 0.102848)
(0.00651895 0.00440784 0.12308)
(0.00824602 0.005512 0.10884)
(0.00731713 0.0053816 0.102028)
(0.00623817 0.0051977 0.0989503)
(0.00512526 0.00512979 0.0972586)
(0.00423233 0.0048471 0.0959103)
(0.00332734 0.00477088 0.0951328)
(0.00257124 0.00452379 0.0945129)
(0.0017747 0.00446162 0.0941557)
(0.00109512 0.00431627 0.0939085)
(0.000335043 0.00428948 0.0938008)
(-0.00384836 0.00147783 0.0179605)
(0.0101377 0.00764656 0.0836657)
(0.00510661 0.00366501 0.125697)
(0.00704068 0.0050939 0.114364)
(0.00777849 0.00486933 0.103237)
(0.00681524 0.00462087 0.0994808)
(0.00585352 0.00436363 0.0973039)
(0.0048437 0.00423482 0.0959096)
(0.00400706 0.00400926 0.0948884)
(0.00316708 0.00392796 0.0942565)
(0.00244437 0.00376231 0.0937857)
(0.00170263 0.0037174 0.0934965)
(0.00103697 0.00362923 0.0933061)
(0.000328066 0.00361205 0.0932204)
(-0.00578813 -0.00575426 0.0286041)
(0.00657757 -0.00140447 0.102521)
(0.0064986 0.00374227 0.122564)
(0.00829087 0.00417427 0.108807)
(0.00808723 0.00402523 0.101509)
(0.00680853 0.00367383 0.0984435)
(0.0058374 0.00348994 0.0964264)
(0.00476755 0.00332906 0.0951323)
(0.00392542 0.00316868 0.0942565)
(0.00308015 0.00308205 0.0936929)
(0.00236043 0.00296446 0.0933)
(0.00164069 0.00291478 0.0930488)
(0.000988991 0.00285063 0.0928918)
(0.000317853 0.00283282 0.092819)
(0.00621635 0.00466187 0.0846939)
(0.00342959 -4.94814e-05 0.125181)
(0.00685244 0.00412492 0.113922)
(0.0076157 0.0032439 0.103658)
(0.00741882 0.00332368 0.0994906)
(0.00626646 0.00289769 0.0972179)
(0.00550214 0.00275347 0.0955804)
(0.00452131 0.00257219 0.0945123)
(0.00376024 0.00244544 0.0937855)
(0.00296284 0.00236182 0.0932999)
(0.00227708 0.00227831 0.0929675)
(0.0015884 0.00223827 0.0927488)
(0.000954649 0.0021963 0.0926148)
(0.000310101 0.00218333 0.0925514)
(0.0106995 0.00179862 0.10564)
(0.00425458 -0.000794226 0.126918)
(0.00967014 0.00302178 0.109792)
(0.0078572 0.00198452 0.102404)
(0.00775724 0.0022996 0.098839)
(0.0062224 0.00195225 0.0966611)
(0.00550987 0.00191168 0.095142)
(0.00445925 0.00177532 0.0941554)
(0.00371529 0.00170331 0.0934964)
(0.00291304 0.00164163 0.0930488)
(0.00223687 0.00158922 0.092749)
(0.00155849 0.00155948 0.092549)
(0.00093391 0.00153258 0.0924283)
(0.000304613 0.00152288 0.092371)
(-0.00589791 -0.000434385 0.0187342)
(0.0104948 0.00222751 0.096228)
(0.00265284 0.00115126 0.122828)
(0.00936076 0.00240702 0.107748)
(0.00698375 0.00156114 0.101511)
(0.00739849 0.00158341 0.0981472)
(0.00587875 0.00128523 0.0961776)
(0.00532834 0.00121091 0.0948029)
(0.00431435 0.00109579 0.093908)
(0.00362748 0.00103764 0.0933058)
(0.00284915 0.000989806 0.0928916)
(0.00219512 0.000955347 0.0926148)
(0.00153176 0.00093473 0.0924282)
(0.000918019 0.000918647 0.0923165)
(0.00030023 0.000911507 0.0922632)
(-0.00598122 -0.000786383 0.0293739)
(0.01178 -0.000107517 0.0970153)
(0.00350863 -0.000337515 0.123118)
(0.00997772 0.000302536 0.107538)
(0.0070412 0.00024444 0.101239)
(0.00749339 0.000379321 0.097899)
(0.00585423 0.000340194 0.0959937)
(0.00532384 0.000354689 0.0946667)
(0.00428738 0.000335144 0.0938008)
(0.00361008 0.000328076 0.0932205)
(0.00283109 0.000317981 0.0928191)
(0.00218194 0.000310141 0.0925516)
(0.00152182 0.000304871 0.092371)
(0.000910687 0.000300362 0.0922632)
(0.000297967 0.000298452 0.0922112)
(0.000175215 -0.00397215 0.0150019)
(-1.94508e-05 -0.00507938 0.0224527)
(0.000964128 -0.00201674 0.0145358)
(-0.00414988 -0.00417269 0.0229545)
(-0.00220591 -0.00141839 0.0785145)
(0.000845862 -0.00127903 0.0988176)
(0.00119511 -0.00195986 0.0914679)
(-0.000353281 -0.00203586 0.0916088)
(0.000924989 -0.00314214 0.0147609)
(-0.00484803 -0.00527334 0.0293031)
(-0.00128999 -0.000814404 0.0768889)
(-0.000961208 -0.00198669 0.0955703)
(2.38744e-05 0.00141419 0.117768)
(0.000631216 0.00287253 0.120187)
(0.00112849 0.00211535 0.11706)
(-0.00018783 0.00269034 0.117513)
(-0.00304761 -0.0050691 0.0187828)
(-0.0010927 -0.000957572 0.079227)
(-9.33251e-05 -0.00168094 0.0943721)
(0.0018703 0.00130493 0.117586)
(0.00310732 0.00407604 0.116871)
(0.00270753 0.00547358 0.113131)
(0.00227237 0.00682146 0.11134)
(0.00150646 0.00654295 0.109647)
(0.000154705 0.00689908 0.109399)
(-0.000453675 -0.00146952 0.0751787)
(0.00028839 -0.00132677 0.0950252)
(0.00172031 0.00171755 0.118178)
(0.00361113 0.0037216 0.117057)
(0.0032791 0.00560357 0.113346)
(0.00311205 0.00600206 0.111353)
(0.00234571 0.00597123 0.109493)
(0.0015422 0.00597919 0.109329)
(0.00111091 0.00556634 0.108604)
(0.000173526 0.00568195 0.108393)
(-0.00147328 -0.000453794 0.0751509)
(0.00167097 0.00167496 0.119539)
(0.00358721 0.0028818 0.116843)
(0.00384849 0.00517054 0.113449)
(0.00403671 0.0057779 0.111147)
(0.00358104 0.00602195 0.109018)
(0.00315552 0.0061389 0.108537)
(0.00256095 0.00588565 0.107541)
(0.00183516 0.00611588 0.107166)
(0.00121548 0.00594721 0.106531)
(0.000295875 0.00604826 0.106321)
(-0.00507212 -0.00304605 0.0187791)
(-0.00132777 0.000299471 0.0950016)
(0.00286972 0.00358971 0.116839)
(0.00454581 0.00454355 0.112367)
(0.00437854 0.00524044 0.109632)
(0.00411475 0.0054389 0.108812)
(0.00358329 0.00540644 0.107575)
(0.00298126 0.00539896 0.106996)
(0.00235511 0.00516488 0.106211)
(0.00161997 0.00515197 0.105855)
(0.00104814 0.0049562 0.105464)
(0.000279344 0.00495901 0.105329)
(-0.00314277 0.000925866 0.0147617)
(-0.00095888 -0.00109378 0.0792167)
(0.00171342 0.00172063 0.118164)
(0.00515618 0.00385098 0.113439)
(0.00523606 0.00438005 0.109625)
(0.00473184 0.00472637 0.10821)
(0.00416057 0.00487655 0.10729)
(0.00357022 0.00479227 0.106249)
(0.00292415 0.00482182 0.10564)
(0.00231466 0.00464964 0.105022)
(0.0016266 0.00467815 0.104694)
(0.00102303 0.00456864 0.104403)
(0.000301635 0.00457888 0.10429)
(-0.0052741 -0.00484793 0.0293033)
(-0.00167943 -9.34445e-05 0.0943582)
(0.003719 0.00361024 0.117045)
(0.00577206 0.00404007 0.111139)
(0.00543336 0.00412426 0.108806)
(0.0048733 0.00416227 0.107287)
(0.0041796 0.00418314 0.106228)
(0.00352878 0.00407086 0.105292)
(0.00283235 0.00403998 0.104726)
(0.0022058 0.00389457 0.104241)
(0.00153641 0.003862 0.10396)
(0.000947842 0.00376561 0.103745)
(0.000290678 0.00375249 0.103655)
(-0.002017 0.000964515 0.0145362)
(-0.000814368 -0.00129118 0.0768865)
(0.00130597 0.00186733 0.117578)
(0.00560168 0.00327605 0.11334)
(0.00601765 0.00358007 0.109012)
(0.00540329 0.0035847 0.10757)
(0.00479011 0.00357011 0.106246)
(0.00406856 0.00353057 0.105291)
(0.00342407 0.00342544 0.10453)
(0.00274401 0.00338826 0.104035)
(0.0021341 0.00328588 0.103639)
(0.00149639 0.00326483 0.103392)
(0.000913009 0.00320536 0.103218)
(0.00028947 0.00319731 0.103141)
(-0.00417281 -0.00414997 0.0229549)
(-0.00198552 -0.00096241 0.0955659)
(0.00407654 0.00310491 0.116865)
(0.00600072 0.00311031 0.111348)
(0.00613577 0.0031549 0.108533)
(0.00539633 0.00298255 0.106993)
(0.00481915 0.00292465 0.105638)
(0.00403756 0.00283385 0.104725)
(0.00338637 0.00274517 0.104035)
(0.00269146 0.00269296 0.103575)
(0.00208123 0.00261574 0.103228)
(0.00145507 0.00258497 0.103006)
(0.000879841 0.00253968 0.102858)
(0.000283177 0.00252849 0.10279)
(-0.00141888 -0.00220673 0.0785127)
(0.00141471 2.24074e-05 0.117765)
(0.00547371 0.0027058 0.113127)
(0.00597083 0.00234401 0.109489)
(0.00588387 0.00256015 0.107538)
(0.0051633 0.00235523 0.106208)
(0.00464792 0.00231485 0.10502)
(0.00389288 0.00220668 0.104239)
(0.00328444 0.00213493 0.103639)
(0.00261456 0.00208239 0.103228)
(0.00202583 0.00202679 0.102925)
(0.00141999 0.00200149 0.102725)
(0.000856298 0.00197182 0.102596)
(0.000278581 0.00196374 0.102535)
(-0.00127863 0.000845701 0.0988151)
(0.0028729 0.000631014 0.120184)
(0.00682133 0.00227216 0.111337)
(0.00597873 0.00154164 0.109326)
(0.00611454 0.00183492 0.107164)
(0.00515046 0.00162022 0.105853)
(0.00467638 0.0016268 0.104693)
(0.00386024 0.00153701 0.103959)
(0.0032632 0.00149691 0.103392)
(0.00258359 0.00145583 0.103005)
(0.00200032 0.00142059 0.102725)
(0.00139996 0.00140078 0.102538)
(0.000841987 0.0013814 0.10242)
(0.00027513 0.00137502 0.102364)
(-0.00397217 0.000174919 0.0150021)
(-0.00196033 0.00119581 0.0914657)
(0.00211558 0.00112893 0.117057)
(0.00654272 0.00150706 0.109645)
(0.00556597 0.00111127 0.108602)
(0.00594624 0.00121597 0.106529)
(0.00495507 0.00104878 0.105462)
(0.00456731 0.00102363 0.104402)
(0.00376425 0.000948604 0.103744)
(0.00320408 0.00091366 0.103218)
(0.00253857 0.000880609 0.102858)
(0.00197091 0.000856897 0.102596)
(0.00138079 0.000842727 0.10242)
(0.000830519 0.000831018 0.10231)
(0.000271821 0.000826315 0.102257)
(-0.00507928 -1.95616e-05 0.0224529)
(-0.0020354 -0.000352443 0.0916078)
(0.00269055 -0.000187178 0.117512)
(0.00689895 0.000155241 0.109398)
(0.00568144 0.000173845 0.108392)
(0.00604718 0.000296052 0.10632)
(0.0049576 0.000279532 0.105328)
(0.00457724 0.00030165 0.10429)
(0.00375079 0.000290765 0.103654)
(0.00319568 0.000289421 0.10314)
(0.00252704 0.000283263 0.10279)
(0.00196254 0.000278543 0.102535)
(0.0013741 0.000275337 0.102364)
(0.000825574 0.000271856 0.102257)
(0.000271275 0.000271715 0.102205)
(0.000569504 -0.0040443 0.0149448)
(0.000132566 -0.0051675 0.0219911)
(0.000800749 -0.0017263 0.014701)
(-0.00394388 -0.00445479 0.0223674)
(-0.00102441 -0.000811154 0.0816444)
(0.00077173 -0.000746792 0.101243)
(0.00044509 -0.000739715 0.0949998)
(-0.000191828 -0.000856114 0.0949414)
(0.000987183 -0.00293039 0.0148802)
(-0.00465573 -0.00517346 0.0277265)
(-0.000852252 -0.000513013 0.079307)
(0.00054397 -0.000562819 0.0969722)
(0.000750384 0.00198337 0.119277)
(0.00062234 0.00250452 0.120987)
(0.000634682 0.00251503 0.117983)
(-6.51579e-05 0.0028684 0.117956)
(-0.00253588 -0.00527439 0.0183607)
(-0.000856313 -0.00070721 0.0815803)
(0.000967296 -0.000544494 0.095548)
(0.00156719 0.00193941 0.1185)
(0.00176332 0.0030081 0.118286)
(0.0013464 0.00327235 0.11695)
(0.00120719 0.0037727 0.115489)
(0.000757829 0.00373235 0.114028)
(9.20946e-05 0.0039145 0.113714)
(-0.000654019 -0.000763811 0.0777847)
(0.00109355 -0.000547023 0.0966464)
(0.00159548 0.00210179 0.119115)
(0.00212262 0.00275432 0.118245)
(0.00172641 0.0034728 0.116859)
(0.00182534 0.00346412 0.115439)
(0.00141216 0.00365385 0.114198)
(0.000972964 0.00372827 0.113815)
(0.000699955 0.00366509 0.113083)
(0.000117994 0.00376417 0.112832)
(-0.00076282 -0.00066184 0.0777392)
(0.00190054 0.0019044 0.119722)
(0.001839 0.0021242 0.118272)
(0.00222602 0.00314472 0.116806)
(0.00238313 0.00325415 0.115068)
(0.00222917 0.0036372 0.113678)
(0.00200863 0.00382908 0.112988)
(0.00165454 0.00384796 0.112062)
(0.0012438 0.00407316 0.111562)
(0.000820755 0.00404763 0.110929)
(0.00020917 0.00413447 0.110699)
(-0.00527738 -0.00253483 0.0183553)
(-0.000547425 0.00109517 0.09662)
(0.00212119 0.00184063 0.118264)
(0.00256645 0.00256729 0.115783)
(0.00272739 0.00310182 0.114062)
(0.00262168 0.0033556 0.113161)
(0.00236469 0.0035357 0.11205)
(0.00206944 0.00365822 0.111357)
(0.0016735 0.00368165 0.110574)
(0.00118814 0.00374114 0.110158)
(0.000769817 0.0036785 0.109749)
(0.000209235 0.00370027 0.109597)
(-0.00293091 0.00098797 0.0148804)
(-0.000707978 -0.000854591 0.0815692)
(0.00209766 0.00159573 0.119101)
(0.00313963 0.00222749 0.116799)
(0.00309919 0.0027281 0.114066)
(0.00302836 0.00302468 0.112661)
(0.00282883 0.00324791 0.111622)
(0.00254168 0.00337727 0.110581)
(0.00215136 0.00349871 0.109893)
(0.00173291 0.00347886 0.109241)
(0.00124376 0.00354643 0.108863)
(0.000783685 0.0035087 0.108541)
(0.000234717 0.00353145 0.108411)
(-0.00517444 -0.00465532 0.0277266)
(-0.0005438 0.00096782 0.0955356)
(0.00275271 0.00212225 0.118233)
(0.00325191 0.0023863 0.115059)
(0.0033517 0.00262661 0.113158)
(0.00324514 0.00282925 0.111619)
(0.00297254 0.00297348 0.110503)
(0.00260949 0.00301722 0.109527)
(0.00216449 0.0030654 0.108898)
(0.00171736 0.00303394 0.108359)
(0.0012178 0.00304739 0.108034)
(0.000755235 0.00300804 0.107787)
(0.000233415 0.00301066 0.107682)
(-0.00172656 0.000801057 0.0147015)
(-0.000513199 -0.000852641 0.0793036)
(0.00193948 0.00156654 0.118493)
(0.00347139 0.00172472 0.116852)
(0.00363439 0.00222917 0.113671)
(0.00353381 0.00236539 0.112047)
(0.00337607 0.00254283 0.110579)
(0.00301625 0.00261086 0.109526)
(0.00263026 0.0026312 0.108679)
(0.00216417 0.00265868 0.108109)
(0.00171236 0.00263304 0.107649)
(0.00121724 0.00264549 0.107358)
(0.000747001 0.00262149 0.10715)
(0.000238124 0.0026248 0.107058)
(-0.00445504 -0.00394393 0.0223679)
(-0.000562087 0.000543286 0.0969675)
(0.00300791 0.00176219 0.118281)
(0.0034631 0.00182418 0.115433)
(0.00382755 0.00200869 0.112983)
(0.00365663 0.00207071 0.111354)
(0.003497 0.0021522 0.109891)
(0.00306393 0.00216566 0.108897)
(0.00265724 0.00216499 0.108109)
(0.00216506 0.00216622 0.107576)
(0.00170302 0.00214236 0.107164)
(0.00120569 0.00213931 0.106898)
(0.000734359 0.00211969 0.106718)
(0.000237079 0.00211767 0.106635)
(-0.000811651 -0.00102482 0.081642)
(0.00198377 0.000749873 0.119273)
(0.00327201 0.0013458 0.116946)
(0.00365359 0.00141185 0.114193)
(0.00384721 0.00165469 0.112059)
(0.00368058 0.00167406 0.110571)
(0.0034778 0.00173347 0.109239)
(0.00303291 0.00171823 0.108357)
(0.00263204 0.00171306 0.107648)
(0.00214153 0.00170403 0.107164)
(0.00168514 0.0016859 0.106793)
(0.00119433 0.00168177 0.106548)
(0.000725261 0.00166887 0.106386)
(0.00023631 0.00166717 0.106311)
(-0.000746339 0.000771812 0.10124)
(0.00250493 0.000622165 0.120984)
(0.00377257 0.00120711 0.115486)
(0.00372805 0.00097298 0.113811)
(0.00407254 0.00124368 0.111559)
(0.00374011 0.00118855 0.110156)
(0.00354517 0.00124408 0.108862)
(0.00304609 0.00121839 0.108033)
(0.00264418 0.00121766 0.107357)
(0.00213817 0.00120635 0.106897)
(0.00168075 0.00119478 0.106548)
(0.00118858 0.00118928 0.106316)
(0.000719701 0.00118027 0.106166)
(0.000235449 0.00117832 0.106094)
(-0.00404434 0.000569086 0.0149451)
(-0.000740235 0.000446402 0.0949968)
(0.00251521 0.000636039 0.11798)
(0.00373228 0.000759249 0.114024)
(0.00366494 0.000701315 0.113079)
(0.00404714 0.000821804 0.110926)
(0.00367781 0.000770911 0.109747)
(0.00350784 0.000784578 0.108539)
(0.00300712 0.000756165 0.107786)
(0.00262055 0.000747711 0.107149)
(0.00211888 0.000735156 0.106717)
(0.00166816 0.000725822 0.106386)
(0.00117981 0.000720417 0.106165)
(0.000714285 0.00071471 0.106022)
(0.000234011 0.000712806 0.105954)
(-0.00516742 0.000132466 0.0219912)
(-0.000855382 -0.000190609 0.0949402)
(0.00286875 -6.40824e-05 0.117955)
(0.00391437 9.29296e-05 0.113713)
(0.00376369 0.000118646 0.112831)
(0.00413354 0.000209504 0.110697)
(0.00369906 0.000209564 0.109595)
(0.00353002 0.000234812 0.10841)
(0.00300918 0.000233557 0.107681)
(0.00262335 0.000238075 0.107057)
(0.00211638 0.000237172 0.106635)
(0.00166606 0.00023623 0.106311)
(0.00117747 0.000235651 0.106094)
(0.000712088 0.000233991 0.105954)
(0.00023438 0.000234815 0.105888)
(0.000612434 -0.00399565 0.0149102)
(0.000173856 -0.00505658 0.0218321)
(0.000671267 -0.00171496 0.0145685)
(-0.00380845 -0.00438216 0.0220918)
(-0.000540135 -0.000668253 0.080321)
(0.000537346 -0.000366126 0.0992223)
(0.000221899 -0.000339946 0.0936293)
(-4.00466e-05 -0.000412276 0.0933687)
(0.000953618 -0.00292235 0.0147653)
(-0.00449488 -0.00506457 0.0271771)
(-0.00055801 -0.00041328 0.0778597)
(0.000425284 -0.000292295 0.0944263)
(0.000405854 0.00119204 0.116791)