/*--------------------------------*- C++ -*----------------------------------*\
| =========                 |                                                 |
| \\      /  F ield         | OpenFOAM: The Open Source CFD Toolbox           |
|  \\    /   O peration     | Version:  2.1.1                                 |
|   \\  /    A nd           | Web:      www.OpenFOAM.org                      |
|    \\/     M anipulation  |                                                 |
\*---------------------------------------------------------------------------*/
FoamFile
{
    version     2.0;
    format      ascii;
    class       surfaceScalarField;
    location    "0.005";
    object      phi;
}
// * * * * * * * * * * * * * * * * * * * * * * * * * * * * * * * * * * * * * //

dimensions      [0 3 -1 0 0 0 0];

internalField   nonuniform List<scalar> 
29776
(
-3.06588e-12
-2.93803e-12
-9.40556e-14
6.09744e-12
5.06617e-12
2.29538e-12
9.80237e-10
6.92229e-11
6.93555e-11
-6.67588e-11
-6.68706e-11
6.67949e-12
-1.21717e-13
1.22194e-09
6.08818e-12
9.69263e-13
1.19807e-09
5.01504e-12
-8.17406e-13
1.18329e-09
3.76831e-12
1.47184e-13
1.18285e-09
3.09856e-12
-2.99181e-13
1.18023e-09
2.44573e-12
-8.59208e-14
1.17844e-09
1.94595e-12
-2.38799e-13
1.17682e-09
1.47648e-12
-1.88359e-13
1.17591e-09
1.10172e-12
-2.36198e-13
1.17534e-09
7.73691e-13
-2.22167e-13
1.17513e-09
4.94296e-13
-2.39412e-13
1.17523e-09
2.43008e-13
-2.32399e-13
1.17555e-09
-2.36214e-13
1.17598e-09
-2.61326e-12
2.22852e-13
-2.94162e-12
-3.05986e-13
5.63801e-12
4.61755e-12
7.47942e-11
7.96972e-10
6.99667e-11
7.3095e-11
-6.57568e-11
-7.03743e-11
4.96784e-11
-7.04552e-11
-4.70088e-11
5.98106e-12
-1.34996e-12
1.20242e-09
5.72648e-12
2.27001e-12
1.2144e-09
4.95699e-12
-1.61952e-12
1.18778e-09
3.66871e-12
3.03097e-13
1.18296e-09
2.98428e-12
-6.12509e-13
1.18023e-09
2.35693e-12
-2.34184e-13
1.17848e-09
1.89092e-12
-5.10118e-13
1.17693e-09
1.44685e-12
-4.123e-13
1.17598e-09
1.0828e-12
-4.93606e-13
1.17541e-09
7.61758e-13
-4.64436e-13
1.17515e-09
4.87657e-13
-4.9442e-13
1.17518e-09
2.39471e-13
-4.80954e-13
1.17538e-09
-4.80827e-13
1.17558e-09
1.95146e-11
-5.82534e-11
-1.63263e-11
1.81603e-11
1.11699e-10
2.28074e-12
2.46481e-12
9.6269e-10
4.79018e-11
6.17369e-11
-4.66917e-11
-6.06043e-11
5.82272e-12
1.64664e-12
1.20408e-09
5.17657e-12
-4.24314e-13
1.19572e-09
4.23476e-12
5.00535e-13
1.1848e-09
3.19445e-12
-3.95625e-13
1.18172e-09
2.58369e-12
-3.69745e-13
1.17912e-09
1.97787e-12
-6.69052e-13
1.17755e-09
1.52093e-12
-6.46651e-13
1.17633e-09
1.11472e-12
-7.53353e-13
1.1757e-09
7.85765e-13
-7.35943e-13
1.17528e-09
5.03685e-13
-7.79295e-13
1.17527e-09
2.46858e-13
-7.55647e-13
1.17525e-09
-7.64356e-13
1.17525e-09
1.38666e-11
-5.83389e-11
-7.73746e-12
-1.85979e-11
2.37056e-12
7.59086e-11
1.37222e-11
-1.06921e-11
-1.05016e-11
1.85714e-12
2.61648e-12
9.6727e-10
6.48226e-11
6.70552e-11
-6.28122e-11
-6.51916e-11
5.06415e-12
1.66272e-15
1.2124e-09
4.36294e-12
6.23112e-14
1.19469e-09
3.62555e-12
1.04319e-14
1.18318e-09
2.79952e-12
-4.46721e-13
1.18128e-09
2.33893e-12
-7.07793e-13
1.17915e-09
1.83393e-12
-9.31229e-13
1.17776e-09
1.43435e-12
-9.70622e-13
1.17652e-09
1.05525e-12
-1.06155e-12
1.17594e-09
7.40945e-13
-1.04728e-12
1.17546e-09
4.75196e-13
-1.10829e-12
1.17534e-09
2.32149e-13
-1.07755e-12
1.17516e-09
-1.09918e-12
1.17514e-09
-4.86372e-11
1.35015e-11
-1.83597e-11
6.19816e-11
-2.86507e-13
1.18715e-11
-1.02907e-11
-9.69849e-12
-1.01202e-11
1.38426e-11
8.71861e-12
-1.25229e-11
2.84501e-12
4.38573e-12
9.77851e-10
6.71379e-11
6.76002e-11
-6.55622e-11
-6.51096e-11
5.29751e-12
-5.19229e-13
1.22248e-09
4.55393e-12
2.46496e-13
1.19752e-09
3.57738e-12
-4.66897e-13
1.18287e-09
2.89049e-12
-7.39977e-13
1.18209e-09
2.3923e-12
-1.03983e-12
1.18e-09
1.86801e-12
-1.26418e-12
1.17868e-09
1.45771e-12
-1.34842e-12
1.17726e-09
1.06107e-12
-1.4431e-12
1.17664e-09
7.56664e-13
-1.42915e-12
1.17595e-09
5.00428e-13
-1.51678e-12
1.17571e-09
2.45864e-13
-1.44317e-12
1.17542e-09
-1.47604e-12
1.17535e-09
-3.72618e-12
-5.95645e-13
-2.55017e-12
-3.23353e-13
7.19535e-12
3.46003e-12
6.6838e-11
8.07096e-10
6.77418e-11
6.84924e-11
-6.3724e-11
-6.5655e-11
4.69411e-11
-6.27046e-11
-4.46927e-11
4.93796e-12
-6.19261e-13
1.19611e-09
3.94193e-12
2.19435e-13
1.20781e-09
3.33326e-12
-1.54194e-12
1.18459e-09
2.59713e-12
-1.08879e-12
1.18178e-09
2.25086e-12
-1.52546e-12
1.18065e-09
1.7712e-12
-1.6086e-12
1.17952e-09
1.36178e-12
-1.76355e-12
1.17801e-09
9.71594e-13
-1.86477e-12
1.1773e-09
6.55422e-13
-1.83014e-12
1.17653e-09
4.22831e-13
-1.97609e-12
1.17634e-09
1.99789e-13
-1.88574e-12
1.17598e-09
-1.9461e-12
1.17591e-09
-4.02796e-11
1.31592e-11
-1.40001e-11
1.6308e-11
9.00693e-11
1.71699e-11
-7.76919e-12
-7.81929e-12
1.28336e-12
2.88427e-12
9.44099e-10
4.78181e-11
6.22553e-11
-4.69318e-11
-6.12165e-11
4.61636e-12
-2.24702e-12
1.2055e-09
2.94798e-12
-1.63796e-12
1.19592e-09
2.6735e-12
-2.27222e-12
1.18416e-09
2.09869e-12
-2.0892e-12
1.18192e-09
1.61806e-12
-2.08689e-12
1.18127e-09
1.2598e-12
-2.24948e-12
1.17957e-09
9.27797e-13
-2.38902e-12
1.1787e-09
6.73254e-13
-2.33659e-12
1.17778e-09
5.15266e-13
-2.58279e-12
1.17756e-09
2.49513e-13
-2.3578e-12
1.17694e-09
-2.452e-12
1.17683e-09
3.68144e-13
-1.46264e-11
1.51392e-12
-2.99331e-12
2.31331e-12
1.34243e-11
2.07688e-12
6.82597e-11
8.21791e-10
6.42283e-11
6.43472e-11
-6.1397e-11
-6.19018e-11
4.64539e-11
-6.38692e-11
-4.52605e-11
3.62838e-12
-8.66604e-13
1.19037e-09
4.01814e-12
-1.94027e-12
1.22489e-09
2.77696e-12
-2.82799e-12
1.19593e-09
2.09358e-12
-2.78297e-12
1.18371e-09
1.52354e-12
-2.67424e-12
1.182e-09
1.04441e-12
-2.61301e-12
1.1807e-09
7.20016e-13
-2.89437e-12
1.18003e-09
3.96096e-13
-2.80403e-12
1.17917e-09
2.5894e-13
-3.19831e-12
1.17915e-09
1.01282e-13
-2.97756e-12
1.17848e-09
-3.1054e-12
1.17844e-09
-2.87675e-11
1.05245e-11
-5.42481e-12
7.87811e-11
1.69071e-11
-6.47546e-12
-7.20702e-12
-7.99852e-12
1.5839e-11
1.11458e-11
-9.06367e-12
1.62764e-12
6.73323e-11
7.62539e-10
4.46273e-11
6.79681e-11
-4.40736e-11
-6.52538e-11
4.93214e-11
-6.44817e-11
-4.64039e-11
2.80978e-12
-1.87375e-12
1.18007e-09
2.8331e-12
-2.79598e-12
1.22816e-09
2.27256e-12
-4.02239e-12
1.19601e-09
1.0768e-12
-2.93675e-12
1.18424e-09
7.28312e-13
-3.35196e-12
1.18182e-09
4.49934e-13
-3.59015e-12
1.18213e-09
4.00929e-13
-3.63978e-12
1.18132e-09
6.1239e-13
-4.25269e-12
1.18176e-09
3.05711e-13
-3.6826e-12
1.18026e-09
-3.79512e-12
1.18024e-09
-9.63344e-13
5.97305e-13
-2.03504e-12
2.40108e-12
1.83891e-11
-6.0222e-11
-1.5245e-11
1.36759e-11
1.10735e-10
1.87117e-12
6.84366e-11
7.68856e-10
5.04784e-11
6.83282e-11
-4.82614e-11
-6.67267e-11
5.05444e-11
-6.68304e-11
-4.83094e-11
1.92694e-12
-1.6184e-12
1.1802e-09
1.61048e-12
-3.64825e-12
1.22513e-09
1.5288e-12
-4.64768e-12
1.19602e-09
4.8503e-13
-4.01315e-12
1.18468e-09
4.20391e-14
-4.60412e-12
1.18293e-09
-4.3015e-13
-4.39458e-12
1.18321e-09
-2.40866e-13
-5.22929e-12
1.18485e-09
-9.82369e-14
-4.96957e-12
1.18295e-09
-5.03979e-12
1.18281e-09
2.90137e-12
-1.01105e-11
1.42958e-12
5.77956e-12
1.89351e-11
-6.36301e-11
-1.55044e-11
1.33591e-11
1.15277e-10
9.07912e-13
6.79606e-11
7.63078e-10
4.45953e-11
-6.52682e-11
-4.40653e-11
4.92828e-11
6.73214e-11
-4.63708e-11
-6.44691e-11
2.26251e-12
-2.08752e-12
1.19072e-09
-2.52947e-13
-1.23907e-12
1.20554e-09
-2.94541e-13
-5.05204e-12
1.20785e-09
-9.11423e-14
-5.4409e-12
1.19755e-09
4.80604e-13
-5.22672e-12
1.19472e-09
1.60644e-12
-5.94328e-12
1.19581e-09
8.19668e-13
-5.79881e-12
1.18787e-09
-6.16879e-12
1.18335e-09
3.22157e-12
-1.10091e-11
1.57323e-12
6.2143e-12
-3.97901e-11
1.9176e-11
-8.92201e-12
9.04873e-11
-7.95197e-12
1.29189e-11
1.11526e-11
-9.10955e-12
-2.97191e-12
6.43421e-11
8.2194e-10
4.64729e-11
6.82834e-11
-4.52649e-11
-6.38493e-11
6.42366e-11
-6.19006e-11
-6.13539e-11
6.76677e-13
6.2092e-11
9.44379e-10
4.76739e-11
-6.11877e-11
-4.69314e-11
6.53957e-13
-3.6293e-12
1.19629e-09
1.88896e-13
-3.0728e-12
1.22256e-09
-1.42265e-12
-2.04877e-12
1.2123e-09
-2.09345e-12
-2.42396e-12
1.20407e-09
-8.67196e-13
-6.09347e-12
1.21437e-09
-6.78404e-12
1.19798e-09
-3.85502e-11
1.1052e-11
-7.18173e-12
8.95117e-11
1.96933e-11
-9.05819e-12
-9.76557e-12
-1.00804e-11
1.3581e-11
1.47788e-11
-9.63789e-12
-5.02389e-11
2.99389e-12
-6.09932e-12
1.40917e-11
1.01345e-10
-4.41078e-12
6.79965e-11
8.07443e-10
4.6911e-11
6.7023e-11
-4.46966e-11
-6.25868e-11
6.71193e-11
-6.59855e-11
-6.40634e-11
-2.65447e-12
6.75343e-11
9.78031e-10
6.66063e-11
-6.52351e-11
-6.56207e-11
-2.29924e-12
6.67194e-11
9.67426e-10
6.4412e-11
-6.51159e-11
-6.2856e-11
1.44097e-12
6.15386e-11
9.62906e-10
4.78646e-11
-6.06384e-11
-4.67345e-11
1.32584e-13
-4.54555e-12
1.20275e-09
-5.05655e-12
1.22229e-09
1.30362e-12
-1.12439e-11
6.56261e-13
-1.89539e-13
9.47356e-12
-4.07894e-11
1.16093e-11
-6.11767e-12
9.26983e-11
1.655e-11
-7.90231e-12
-7.62067e-12
-9.38594e-12
1.28876e-11
1.44182e-11
-8.35079e-12
-4.02023e-11
1.7894e-13
5.55372e-12
9.14277e-11
-7.20783e-12
1.44969e-11
1.28401e-11
-9.55271e-12
-2.05464e-12
-5.04843e-11
-1.13954e-12
1.93996e-11
1.00998e-10
-4.24278e-11
5.34134e-12
-8.25702e-12
1.56404e-11
9.12418e-11
-2.28481e-12
7.22748e-11
7.97526e-10
6.96561e-11
-7.06778e-11
-6.58603e-11
4.96206e-11
7.46694e-11
-4.6996e-11
-7.03259e-11
6.89414e-11
9.80626e-10
6.85699e-11
-6.70566e-11
-6.70027e-11
-1.25061e-12
-3.14679e-13
-5.07002e-13
2.0723e-12
1.63271e-12
9.12506e-13
-1.41713e-11
1.80778e-13
2.06496e-12
9.38035e-12
4.23576e-12
3.3871e-13
-1.37453e-11
-1.48403e-12
2.32637e-12
8.32847e-12
-6.07399e-11
2.19465e-11
-1.5312e-11
1.17801e-10
-9.59464e-12
1.12293e-11
1.42354e-11
-7.29048e-12
-4.29576e-11
6.58178e-12
-1.85147e-12
9.63582e-11
-9.8856e-12
1.53942e-11
1.54095e-11
-1.01077e-11
-3.22865e-12
-2.77823e-12
-9.11566e-14
6.09994e-12
9.30694e-13
1.50817e-12
9.76524e-10
6.67776e-11
6.70753e-11
-6.62539e-11
-6.63258e-11
2.06426e-12
-9.94129e-13
1.22179e-09
1.13457e-12
5.2197e-13
1.19848e-09
8.46912e-13
-4.94666e-13
1.18406e-09
6.27674e-13
1.78477e-13
1.18289e-09
6.12492e-13
-1.24746e-13
1.18037e-09
5.18863e-13
-6.07744e-15
1.17855e-09
4.2244e-13
-7.3275e-14
1.17699e-09
3.22696e-13
-4.06895e-14
1.17605e-09
2.42272e-13
-5.90725e-14
1.17549e-09
1.73495e-13
-4.89182e-14
1.17526e-09
1.1249e-13
-5.32074e-14
1.17535e-09
5.5948e-14
-5.01497e-14
1.17566e-09
-4.90828e-14
1.17608e-09
-2.7697e-12
2.22825e-13
-2.76305e-12
-3.03021e-13
5.61294e-12
1.63117e-12
7.24527e-11
7.93471e-10
6.7265e-11
7.05087e-11
-6.54191e-11
-7.00553e-11
4.84208e-11
-7.13383e-11
-4.84582e-11
2.73055e-12
-2.28143e-12
1.2026e-09
1.41004e-12
1.93622e-12
1.21431e-09
9.65262e-13
-9.31944e-13
1.18867e-09
6.1602e-13
3.39333e-13
1.18315e-09
5.65405e-13
-2.75286e-13
1.18043e-09
4.89977e-13
-4.65622e-14
1.17859e-09
4.08008e-13
-1.54103e-13
1.17709e-09
3.18007e-13
-9.08622e-14
1.17612e-09
2.4103e-13
-1.21567e-13
1.17556e-09
1.72475e-13
-1.04071e-13
1.17527e-09
1.11396e-13
-1.12051e-13
1.1753e-09
5.79324e-14
-1.0675e-13
1.17549e-09
-1.02455e-13
1.17569e-09
1.77129e-11
-5.9394e-11
-1.49186e-11
1.6171e-11
1.12882e-10
-6.14147e-13
9.83726e-13
9.60201e-10
4.71747e-11
6.09282e-11
-4.76265e-11
-6.06382e-11
2.03436e-12
1.00662e-12
1.20236e-09
9.78591e-13
-1.6544e-13
1.19601e-09
9.0876e-13
2.97368e-13
1.18491e-09
6.37192e-13
-1.75814e-13
1.1819e-09
5.8605e-13
-9.32781e-14
1.17922e-09
4.38555e-13
-1.79981e-13
1.17772e-09
3.49333e-13
-1.46852e-13
1.17648e-09
2.52259e-13
-1.80117e-13
1.17585e-09
1.82739e-13
-1.69187e-13
1.17542e-09
1.18502e-13
-1.78962e-13
1.1754e-09
6.1526e-14
-1.68072e-13
1.17537e-09
-1.67061e-13
1.17537e-09
1.32747e-11
-5.87227e-11
-6.88252e-12
-1.67096e-11
1.92384e-12
7.55833e-11
1.31319e-11
-1.09225e-11
-1.06764e-11
-1.23706e-12
1.70581e-12
9.65994e-10
6.3672e-11
6.54824e-11
-6.26503e-11
-6.47127e-11
1.74548e-12
-5.03643e-13
1.21092e-09
6.63955e-13
2.94581e-13
1.19531e-09
7.33635e-13
-3.96617e-14
1.18345e-09
5.37207e-13
-1.32395e-13
1.18143e-09
5.34517e-13
-2.0778e-13
1.17927e-09
4.10044e-13
-2.24854e-13
1.17793e-09
3.33766e-13
-2.26939e-13
1.17668e-09
2.4028e-13
-2.41917e-13
1.17609e-09
1.72717e-13
-2.37207e-13
1.17559e-09
1.10961e-13
-2.4954e-13
1.17547e-09
5.83769e-14
-2.37027e-13
1.17529e-09
-2.41255e-13
1.17527e-09
-4.8696e-11
1.29611e-11
-1.58545e-11
6.17772e-11
8.19631e-14
1.12996e-11
-1.05232e-11
-9.86891e-12
-1.03022e-11
1.33389e-11
8.45306e-12
-1.2667e-11
-5.97291e-14
2.80796e-12
9.75566e-10
6.48911e-11
6.62687e-11
-6.54745e-11
-6.44427e-11
1.73001e-12
-1.40112e-12
1.22159e-09
8.18528e-13
5.17407e-13
1.19821e-09
6.93947e-13
-1.79088e-13
1.18314e-09
6.03717e-13
-1.72369e-13
1.18223e-09
5.59976e-13
-2.87228e-13
1.18012e-09
4.27158e-13
-3.135e-13
1.1789e-09
3.39934e-13
-3.32795e-13
1.17745e-09
2.42111e-13
-3.37438e-13
1.17684e-09
1.8203e-13
-3.3197e-13
1.1761e-09
1.25843e-13
-3.48657e-13
1.17587e-09
6.69694e-14
-3.1636e-13
1.17556e-09
-3.23461e-13
1.17549e-09
-3.87842e-12
-5.36329e-13
-2.43443e-12
-3.33056e-13
7.18223e-12
1.5753e-12
6.59312e-11
8.0473e-10
6.49163e-11
6.71164e-11
-6.40689e-11
-6.59952e-11
4.6133e-11
-6.40515e-11
-4.63824e-11
2.33093e-12
-1.90627e-12
1.19586e-09
8.92276e-13
1.18161e-12
1.20858e-09
8.16826e-13
-5.7222e-13
1.18506e-09
5.68791e-13
-5.29401e-14
1.18191e-09
5.77231e-13
-4.00525e-13
1.18076e-09
4.39971e-13
-3.73672e-13
1.17972e-09
3.34622e-13
-4.3719e-13
1.17822e-09
2.28152e-13
-4.27265e-13
1.17749e-09
1.51437e-13
-4.10733e-13
1.17669e-09
9.76465e-14
-4.40185e-13
1.17649e-09
4.93191e-14
-4.069e-13
1.17612e-09
-4.24139e-13
1.17605e-09
-4.13502e-11
1.22273e-11
-1.19396e-11
1.49518e-11
9.18884e-11
1.66541e-11
-8.35334e-12
-8.14694e-12
-1.73731e-12
2.72102e-12
9.4235e-10
4.65865e-11
6.11042e-11
-4.77752e-11
-6.10548e-11
1.82264e-12
-1.91618e-12
1.20504e-09
4.16586e-13
1.61072e-13
1.1966e-09
6.04752e-13
-5.14607e-13
1.18444e-09
4.7062e-13
-4.2822e-13
1.18208e-09
3.69598e-13
-4.69309e-13
1.18146e-09
3.08267e-13
-5.81652e-13
1.17977e-09
2.20645e-13
-5.6392e-13
1.17893e-09
1.80506e-13
-5.39759e-13
1.17795e-09
1.57373e-13
-5.89102e-13
1.17774e-09
8.0815e-14
-4.92517e-13
1.1771e-09
-5.25189e-13
1.177e-09
4.09766e-15
-1.43244e-11
1.52296e-12
-2.81884e-12
2.16965e-12
1.34466e-11
1.33668e-12
6.75641e-11
8.19316e-10
6.26317e-11
6.36574e-11
-6.18051e-11
-6.23116e-11
4.52993e-11
-6.43599e-11
-4.68129e-11
1.45871e-12
-4.12924e-13
1.18874e-09
1.55373e-12
-5.34516e-13
1.22549e-09
5.74504e-13
-2.99627e-13
1.1967e-09
4.23707e-13
-5.845e-13
1.18402e-09
3.93831e-13
-6.15881e-13
1.18218e-09
2.87406e-13
-5.80472e-13
1.18081e-09
2.13165e-13
-6.13472e-13
1.18015e-09
1.03765e-13
-5.45714e-13
1.17929e-09
6.28047e-14
-6.45324e-13
1.17924e-09
2.27441e-14
-5.67378e-13
1.1786e-09
-6.2211e-13
1.17855e-09
-3.00736e-11
9.91678e-12
-3.30688e-12
8.04224e-11
1.65665e-11
-6.94589e-12
-7.52178e-12
-8.33267e-12
1.54971e-11
1.07104e-11
-9.36728e-12
-7.25977e-13
6.59402e-11
7.61022e-10
4.31659e-11
6.71111e-11
-4.51598e-11
-6.47906e-11
4.83467e-11
-6.50107e-11
-4.77701e-11
7.55891e-13
-1.0985e-13
1.17817e-09
2.94846e-13
-6.79934e-13
1.22901e-09
5.08558e-13
-1.57374e-12
1.19678e-09
4.06592e-14
-4.37761e-13
1.18453e-09
1.7145e-13
-8.42861e-13
1.18195e-09
1.32864e-13
-7.09502e-13
1.18227e-09
1.77589e-13
-7.48837e-13
1.18148e-09
2.79638e-13
-9.25419e-13
1.18194e-09
1.3375e-13
-6.26604e-13
1.18046e-09
-6.50092e-13
1.18038e-09
-9.88534e-13
5.60224e-13
-1.9835e-12
2.41181e-12
1.72444e-11
-6.18187e-11
-1.39101e-11
1.20561e-11
1.12369e-10
1.15455e-13
6.74614e-11
7.67722e-10
4.96716e-11
6.73577e-11
-4.95664e-11
-6.70078e-11
4.97289e-11
-6.71185e-11
-4.96187e-11
5.9612e-13
7.30473e-13
1.17831e-09
-1.47326e-13
-1.45626e-12
1.22575e-09
5.69206e-13
-1.86088e-12
1.19673e-09
1.90382e-13
-9.25799e-13
1.18514e-09
6.28951e-14
-8.50579e-13
1.1832e-09
-2.63835e-13
-7.02273e-13
1.18349e-09
-3.04671e-13
-1.01731e-12
1.18498e-09
-1.46793e-13
-9.89383e-13
1.18315e-09
-8.92515e-13
1.18288e-09
2.70971e-12
-9.93575e-12
1.47287e-12
5.75319e-12
1.79159e-11
-6.53188e-11
-1.3945e-11
1.18982e-11
1.16912e-10
4.18621e-13
6.71069e-11
7.6157e-10
4.31417e-11
-6.48011e-11
-4.51433e-11
4.83109e-11
6.59364e-11
-4.77371e-11
-6.49918e-11
1.90644e-12
-1.34997e-12
1.18913e-09
-1.23975e-12
1.68484e-12
1.20515e-09
-5.66066e-13
-2.41278e-12
1.20867e-09
-3.27858e-13
-1.82057e-12
1.19828e-09
1.50554e-13
-1.84985e-12
1.19539e-09
9.44223e-13
-2.13143e-12
1.19613e-09
5.1173e-13
-1.44133e-12
1.18875e-09
-1.17731e-12
1.18411e-09
3.02172e-12
-1.08335e-11
1.612e-12
6.19975e-12
-4.10961e-11
1.78343e-11
-7.10222e-12
9.18718e-11
-8.32807e-12
1.26269e-11
1.06247e-11
-9.32421e-12
-2.73164e-12
6.36431e-11
8.19447e-10
4.53163e-11
6.75795e-11
-4.68206e-11
-6.43491e-11
6.26292e-11
-6.23185e-11
-6.18025e-11
2.01492e-12
6.10868e-11
9.4249e-10
4.65804e-11
-6.10648e-11
-4.77747e-11
1.45717e-12
-1.57138e-12
1.196e-09
5.30223e-13
-3.95587e-14
1.2217e-09
-9.52075e-13
9.84027e-13
1.21095e-09
-1.87463e-12
3.86917e-13
1.20247e-09
-4.15073e-13
-2.86153e-12
1.21433e-09
-2.15808e-12
1.19852e-09
-3.94734e-11
1.05744e-11
-5.82036e-12
9.12307e-11
1.93884e-11
-9.48949e-12
-1.01421e-11
-1.04851e-11
1.34841e-11
1.44211e-11
-1.00449e-11
-5.18005e-11
2.29875e-12
-4.77828e-12
1.22555e-11
1.03111e-10
-2.74896e-12
6.7148e-11
8.04889e-10
4.61294e-11
6.59683e-11
-4.63947e-11
-6.40408e-11
6.4939e-11
-6.59757e-11
-6.4042e-11
-1.61492e-12
6.62442e-11
9.75654e-10
6.49317e-11
-6.4473e-11
-6.55011e-11
-8.54826e-13
6.54838e-11
9.66016e-10
6.36313e-11
-6.47756e-11
-6.2707e-11
2.46209e-12
6.08763e-11
9.60336e-10
4.71297e-11
-6.06909e-11
-4.76763e-11
1.08983e-12
-1.59942e-12
1.20286e-09
-8.4455e-13
1.22203e-09
1.02657e-12
-1.09661e-11
5.91711e-13
-2.32701e-13
9.58051e-12
-4.14313e-11
1.10898e-11
-4.87604e-12
9.43117e-11
1.6162e-11
-8.34899e-12
-7.94112e-12
-9.74659e-12
1.25346e-11
1.40262e-11
-8.6325e-12
-4.07886e-11
-2.66671e-13
5.62608e-12
9.25316e-11
-7.50108e-12
1.41209e-11
1.23161e-11
-9.79443e-12
-1.99856e-12
-5.13182e-11
-9.01206e-13
1.75825e-11
1.02119e-10
-4.39047e-11
4.79442e-12
-6.56913e-12
1.40168e-11
9.2539e-11
-1.44957e-12
7.05549e-11
7.93817e-10
6.73451e-11
-7.00335e-11
-6.54261e-11
4.83863e-11
7.24996e-11
-4.84611e-11
-7.13073e-11
6.71649e-11
9.76894e-10
6.68112e-11
-6.63204e-11
-6.6238e-11
-1.22741e-12
-3.54586e-13
-5.1649e-13
2.09849e-12
1.27e-12
9.0881e-13
-1.38038e-11
1.64209e-13
2.06269e-12
9.39812e-12
3.81498e-12
3.25179e-13
-1.33824e-11
-1.28987e-12
2.3766e-12
8.15555e-12
-6.13208e-11
2.05129e-11
-1.45722e-11
1.18715e-10
-9.91442e-12
1.09294e-11
1.37584e-11
-7.55294e-12
-4.36815e-11
6.25291e-12
-1.69401e-12
9.71321e-11
-1.02373e-11
1.49221e-11
1.49028e-11
-1.04325e-11
-3.26742e-12
-2.76446e-12
-8.89839e-14
6.121e-12
-2.1931e-12
3.51689e-13
9.78166e-10
6.64078e-11
6.67838e-11
-6.64645e-11
-6.65334e-11
-2.73024e-12
-1.7631e-14
1.22234e-09
-3.26464e-12
1.96958e-13
1.19881e-09
-2.78984e-12
-2.05112e-13
1.18378e-09
-2.23881e-12
6.66834e-14
1.18227e-09
-1.77057e-12
3.88505e-14
1.17986e-09
-1.38467e-12
7.27103e-14
1.17808e-09
-1.08607e-12
8.95519e-14
1.1766e-09
-8.24061e-13
1.0442e-13
1.17568e-09
-6.11877e-13
1.17541e-13
1.17515e-09
-4.26974e-13
1.22278e-13
1.17495e-09
-2.71477e-13
1.30096e-13
1.17507e-09
-1.29091e-13
1.29371e-13
1.17539e-09
1.32522e-13
1.17582e-09
-2.80311e-12
2.2227e-13
-2.7474e-12
-2.99333e-13
5.62758e-12
-1.56125e-12
7.17872e-11
7.95274e-10
6.70262e-11
7.03406e-11
-6.5628e-11
-7.01767e-11
4.80946e-11
-7.22667e-11
-4.907e-11
-2.07941e-12
-2.725e-13
1.20337e-09
-3.14407e-12
8.78747e-13
1.21469e-09
-2.67776e-12
-6.15778e-13
1.18861e-09
-2.20931e-12
1.07391e-13
1.18264e-09
-1.7392e-12
5.34113e-14
1.17995e-09
-1.35384e-12
1.58447e-13
1.17812e-09
-1.05934e-12
1.95235e-13
1.17669e-09
-8.0367e-13
2.24144e-13
1.17575e-09
-5.97042e-13
2.49146e-13
1.17522e-09
-4.17721e-13
2.547e-13
1.17496e-09
-2.66215e-13
2.7047e-13
1.175e-09
-1.25695e-13
2.68583e-13
1.17521e-09
2.76154e-13
1.17542e-09
1.73429e-11
-5.9583e-11
-1.49984e-11
1.5722e-11
1.13303e-10
-3.59513e-12
5.91626e-13
9.62217e-10
4.72942e-11
6.14868e-11
-4.76749e-11
-6.03929e-11
-2.43479e-12
-3.54535e-13
1.20244e-09
-2.804e-12
-5.87904e-13
1.19636e-09
-2.12486e-12
-1.01599e-13
1.18444e-09
-1.77559e-12
7.2833e-14
1.18153e-09
-1.36078e-12
2.12466e-13
1.17875e-09
-1.0769e-12
3.02611e-13
1.17733e-09
-8.11721e-13
3.44306e-13
1.17609e-09
-6.05198e-13
3.8733e-13
1.17551e-09
-4.20337e-13
3.94773e-13
1.17509e-09
-2.68228e-13
4.21523e-13
1.1751e-09
-1.26697e-13
4.19808e-13
1.17508e-09
4.31226e-13
1.17509e-09
1.32396e-11
-5.90686e-11
-6.53879e-12
-1.64874e-11
1.66554e-12
7.58033e-11
1.31517e-11
-1.10355e-11
-1.07299e-11
-2.70542e-12
7.24605e-13
9.67063e-10
6.3547e-11
6.55251e-11
-6.2863e-11
-6.47063e-11
-1.69588e-12
-1.49577e-12
1.21105e-09
-2.39105e-12
-1.29137e-13
1.19555e-09
-1.83334e-12
-1.7547e-13
1.18296e-09
-1.58427e-12
2.66661e-13
1.18099e-09
-1.21992e-12
3.19377e-13
1.1788e-09
-9.90912e-13
4.80107e-13
1.17753e-09
-7.53236e-13
5.02116e-13
1.17628e-09
-5.65837e-13
5.6613e-13
1.17573e-09
-3.93788e-13
5.65493e-13
1.17525e-09
-2.52128e-13
6.04771e-13
1.17515e-09
-1.1783e-13
5.98911e-13
1.17498e-09
6.13537e-13
1.17496e-09
-4.8937e-11
1.29502e-11
-1.55537e-11
6.18937e-11
1.91083e-13
1.13042e-11
-1.06034e-11
-9.92222e-12
-1.04003e-11
1.33482e-11
8.46664e-12
-1.27373e-11
-1.67181e-12
9.10094e-13
9.76908e-10
6.45047e-11
6.60783e-11
-6.58402e-11
-6.46001e-11
-1.59241e-12
-1.79335e-12
1.22181e-09
-2.16246e-12
4.93989e-14
1.1986e-09
-1.84507e-12
2.44817e-14
1.18262e-09
-1.52545e-12
3.79471e-13
1.1818e-09
-1.23114e-12
4.92063e-13
1.17966e-09
-9.93879e-13
6.40758e-13
1.17851e-09
-7.59659e-13
6.76184e-13
1.17704e-09
-5.68647e-13
7.56126e-13
1.17646e-09
-3.87723e-13
7.50507e-13
1.17573e-09
-2.47651e-13
8.09303e-13
1.17552e-09
-1.14029e-13
8.02988e-13
1.17522e-09
8.23298e-13
1.17516e-09
-3.91603e-12
-5.25097e-13
-2.43375e-12
-3.34025e-13
7.20891e-12
3.37094e-13
6.53944e-11
8.05089e-10
6.45663e-11
6.70081e-11
-6.44251e-11
-6.62279e-11
4.58285e-11
-6.49621e-11
-4.69664e-11
-4.98875e-13
-1.24214e-12
1.19614e-09
-1.81186e-12
8.58265e-13
1.20909e-09
-1.40919e-12
5.36189e-14
1.18463e-09
-1.35207e-12
7.65181e-13
1.18147e-09
-1.07156e-12
6.66903e-13
1.1803e-09
-8.84886e-13
8.60076e-13
1.17931e-09
-6.80005e-13
8.77606e-13
1.17781e-09
-5.04044e-13
9.87423e-13
1.17709e-09
-3.43242e-13
9.85563e-13
1.17629e-09
-2.20516e-13
1.07273e-12
1.1761e-09
-9.99132e-14
1.05693e-12
1.17575e-09
1.08435e-12
1.17568e-09
-4.16723e-11
1.21445e-11
-1.19703e-11
1.46115e-11
9.23394e-11
1.66483e-11
-8.48217e-12
-8.22328e-12
-2.76818e-12
2.07547e-12
9.42212e-10
4.6711e-11
6.15227e-11
-4.77671e-11
-6.08736e-11
-6.93328e-13
-1.50709e-12
1.20533e-09
-1.63405e-12
1.14606e-12
1.19644e-09
-1.2322e-12
7.56703e-13
1.18405e-09
-1.08191e-12
9.88178e-13
1.18161e-09
-8.69567e-13
1.07304e-12
1.18103e-09
-6.48146e-13
1.06074e-12
1.17937e-09
-4.85757e-13
1.22272e-12
1.17853e-09
-3.04711e-13
1.21215e-12
1.17754e-09
-1.9449e-13
1.35509e-12
1.17735e-09
-8.70052e-14
1.34968e-12
1.1767e-09
1.37873e-12
1.17661e-09
-9.01345e-14
-1.43202e-11
1.51961e-12
-2.77393e-12
2.14974e-12
1.35149e-11
5.51912e-13
6.73926e-11
8.19273e-10
6.24709e-11
6.3511e-11
-6.21512e-11
-6.2661e-11
4.50726e-11
-6.48491e-11
-4.72174e-11
-8.87552e-13
-6.49183e-13
1.18933e-09
-8.1979e-13
6.68942e-13
1.2259e-09
-1.183e-12
1.37449e-12
1.19645e-09
-9.99482e-13
1.16486e-12
1.18366e-09
-6.7724e-13
1.2197e-12
1.18171e-09
-4.95607e-13
1.33669e-12
1.18035e-09
-3.1821e-13
1.51478e-12
1.17968e-09
-2.05449e-13
1.57355e-12
1.17882e-09
-1.4808e-13
1.76716e-12
1.17877e-09
-6.22786e-14
1.73211e-12
1.17813e-09
1.75917e-12
1.17808e-09
-3.0288e-11
9.85253e-12
-3.26183e-12
8.08449e-11
1.65965e-11
-7.04987e-12
-7.57918e-12
-8.43791e-12
1.55012e-11
1.06652e-11
-9.4502e-12
-1.43751e-12
6.57684e-11
7.61123e-10
4.31736e-11
6.72545e-11
-4.52727e-11
-6.48686e-11
4.81928e-11
-6.54234e-11
-4.81383e-11
-1.27899e-12
1.0436e-13
1.17857e-09
-1.38305e-12
1.28935e-12
1.22919e-09
-7.69979e-13
8.11205e-13
1.19653e-09
-7.79147e-13
1.62214e-12
1.18414e-09
-3.8929e-13
1.38863e-12
1.18151e-09
-2.72296e-13
1.8313e-12
1.18184e-09
-7.33038e-14
1.82257e-12
1.18103e-09
-5.08725e-14
2.11647e-12
1.18157e-09
-3.09265e-14
2.19856e-12
1.17998e-09
2.21939e-12
1.17987e-09
-9.87078e-13
5.52321e-13
-1.98365e-12
2.4184e-12
1.70175e-11
-6.21589e-11
-1.37549e-11
1.182e-11
1.12846e-10
-9.21174e-14
6.75356e-11
7.68012e-10
4.96072e-11
6.7433e-11
-4.98588e-11
-6.72269e-11
4.96643e-11
-6.73376e-11
-4.99115e-11
-6.91139e-13
1.45112e-12
1.17875e-09
-1.16472e-12
8.79832e-13
1.22616e-09
-6.55121e-14
6.74269e-13
1.19658e-09
-2.22483e-14
1.78544e-12
1.18471e-09
1.88057e-13
2.14306e-12
1.18268e-09
1.18053e-13
2.3745e-12
1.18301e-09
-8.75738e-14
2.79074e-12
1.18451e-09
-4.98087e-14
2.65774e-12
1.18265e-09
2.7542e-12
1.18227e-09
2.67697e-12
-9.9626e-12
1.49929e-12
5.78635e-12
1.77438e-11
-6.56955e-11
-1.36623e-11
1.17449e-11
1.17406e-10
6.38385e-13
6.72526e-11
7.61695e-10
4.31532e-11
-6.48786e-11
-4.52541e-11
4.81561e-11
6.57656e-11
-4.81052e-11
-6.54015e-11
1.47988e-12
-5.52698e-13
1.18972e-09
-8.99563e-13
2.7322e-12
1.20547e-09
-7.75126e-14
4.60931e-13
1.20917e-09
1.05639e-13
1.55716e-12
1.19868e-09
5.84507e-13
1.67133e-12
1.19561e-09
6.19289e-13
2.41911e-12
1.19647e-09
2.22087e-13
3.12478e-12
1.18868e-09
3.22202e-12
1.18383e-09
2.98803e-12
-1.08696e-11
1.64411e-12
6.23746e-12
-4.13164e-11
1.771e-11
-6.84231e-12
9.23307e-11
-8.44737e-12
1.26452e-11
1.05556e-11
-9.38213e-12
-2.10346e-12
6.3502e-11
8.194e-10
4.50911e-11
6.74067e-11
-4.7226e-11
-6.48436e-11
6.24698e-11
-6.2661e-11
-6.21414e-11
1.23245e-12
6.1504e-11
9.42323e-10
4.67061e-11
-6.08802e-11
-4.77661e-11
1.79559e-12
-3.5677e-13
1.19625e-09
1.50035e-12
1.64759e-12
1.22191e-09
3.61861e-13
2.66459e-12
1.21109e-09
-8.57885e-13
3.5735e-12
1.20254e-09
-1.91103e-13
2.01692e-12
1.21477e-09
2.65116e-12
1.19885e-09
-4.00714e-11
1.05352e-11
-5.58052e-12
9.17321e-11
1.94055e-11
-9.57653e-12
-1.02276e-11
-1.05857e-11
1.35566e-11
1.44109e-11
-1.00961e-11
-5.19494e-11
2.16869e-12
-4.42538e-12
1.21582e-11
1.03552e-10
-9.02846e-13
6.70146e-11
8.05177e-10
4.58362e-11
6.54162e-11
-4.69703e-11
-6.49584e-11
6.4586e-11
-6.62432e-11
-6.44246e-11
-7.11343e-13
6.60828e-11
9.76979e-10
6.45092e-11
-6.46103e-11
-6.58517e-11
-5.86417e-13
6.55174e-11
9.67093e-10
6.35437e-11
-6.47225e-11
-6.28768e-11
2.91173e-13
6.14902e-11
9.62342e-10
4.72908e-11
-6.04061e-11
-4.76862e-11
5.41969e-14
1.5363e-12
1.20358e-09
2.17408e-12
1.22248e-09
9.82379e-13
-1.10037e-11
5.86019e-13
-2.17429e-13
9.65278e-12
-4.2103e-11
1.10793e-11
-4.59577e-12
9.48688e-11
1.61503e-11
-8.43246e-12
-8.01629e-12
-9.8382e-12
1.25807e-11
1.39977e-11
-8.67631e-12
-4.13112e-11
-4.15042e-13
5.81511e-12
9.30625e-11
-7.57982e-12
1.41095e-11
1.22524e-11
-9.85061e-12
-2.06614e-12
-5.16693e-11
-6.85849e-13
1.73894e-11
1.02549e-10
-4.38442e-11
4.62833e-12
-6.16813e-12
1.39823e-11
9.28924e-11
-2.91233e-13
7.03527e-11
7.95542e-10
6.70559e-11
-7.01947e-11
-6.56513e-11
4.80788e-11
7.18e-11
-4.90756e-11
-7.22634e-11
6.68402e-11
9.78457e-10
6.64014e-11
-6.65381e-11
-6.64956e-11
-1.22025e-12
-3.74724e-13
-5.1848e-13
2.11345e-12
1.19551e-12
9.15596e-13
-1.37994e-11
1.71087e-13
2.07155e-12
9.44564e-12
3.69374e-12
3.3118e-13
-1.33962e-11
-1.20028e-12
2.39392e-12
8.17768e-12
-6.19113e-11
2.04004e-11
-1.44289e-11
1.19263e-10
-1.00058e-11
1.09295e-11
1.37172e-11
-7.61086e-12
-4.41883e-11
6.1486e-12
-1.63262e-12
9.76552e-11
-1.0339e-11
1.48767e-11
1.48411e-11
-1.05216e-11
-3.27909e-12
-2.76715e-12
-8.84006e-14
6.13431e-12
-5.17112e-12
1.67604e-13
9.8318e-10
6.65049e-11
6.6901e-11
-6.66716e-11
-6.67566e-11
-7.50953e-12
1.68504e-12
1.22297e-09
-7.25334e-12
-2.77651e-13
1.19882e-09
-6.30841e-12
2.51329e-13
1.18257e-09
-5.09638e-12
-3.72966e-14
1.18108e-09
-4.15915e-12
2.21876e-13
1.17869e-09
-3.27818e-12
1.78185e-13
1.17701e-09
-2.56861e-12
2.5339e-13
1.17562e-09
-1.94744e-12
2.49617e-13
1.1748e-09
-1.4469e-12
2.92467e-13
1.17436e-09
-1.01213e-12
2.90307e-13
1.17422e-09
-6.44178e-13
3.09561e-13
1.17439e-09
-3.08822e-13
3.04539e-13
1.17475e-09
3.1071e-13
1.1752e-09
-2.81548e-12
2.21425e-13
-2.75015e-12
-2.99038e-13
5.64324e-12
-5.53775e-12
7.13013e-11
8.02681e-10
6.72137e-11
7.06655e-11
-6.5822e-11
-7.02502e-11
4.77897e-11
-7.30381e-11
-4.95631e-11
-7.28437e-12
2.13066e-12
1.20467e-09
-7.41403e-12
-3.99459e-13
1.21494e-09
-6.16059e-12
9.05123e-14
1.18752e-09
-4.992e-12
-5.259e-14
1.18149e-09
-4.03557e-12
4.23126e-13
1.17879e-09
-3.17908e-12
3.77331e-13
1.17706e-09
-2.49875e-12
5.44482e-13
1.17571e-09
-1.90275e-12
5.36894e-13
1.17486e-09
-1.41693e-12
6.14603e-13
1.17441e-09
-9.9363e-13
6.07448e-13
1.17422e-09
-6.33559e-13
6.45202e-13
1.17431e-09
-3.02916e-13
6.34873e-13
1.17455e-09
6.46789e-13
1.17478e-09
1.72586e-11
-5.9779e-11
-1.53818e-11
1.53998e-11
1.13803e-10
-7.5858e-12
5.63458e-13
9.68862e-10
4.76558e-11
6.23689e-11
-4.76018e-11
-5.9915e-11
-6.88045e-12
-2.53628e-12
1.20387e-09
-6.35356e-12
-1.0543e-12
1.19697e-09
-5.11871e-12
-4.12135e-13
1.18357e-09
-4.18e-12
4.02663e-13
1.18061e-09
-3.30432e-12
5.28385e-13
1.17773e-09
-2.57132e-12
7.8185e-13
1.17636e-09
-1.95454e-12
8.29739e-13
1.17518e-09
-1.44569e-12
9.4665e-13
1.17467e-09
-1.01034e-12
9.48028e-13
1.17432e-09
-6.44962e-13
1.01002e-12
1.17437e-09
-3.08777e-13
9.94105e-13
1.17438e-09
1.01553e-12
1.17441e-09
1.32528e-11
-5.93396e-11
-6.29274e-12
-1.67072e-11
1.47181e-12
7.62367e-11
1.32205e-11
-1.11022e-11
-1.07401e-11
-5.16241e-12
-5.21223e-13
9.70462e-10
6.39358e-11
6.61163e-11
-6.27858e-11
-6.44163e-11
-5.08703e-12
-2.78301e-12
1.21123e-09
-5.19512e-12
-6.6038e-13
1.19526e-09
-4.36583e-12
-1.43203e-13
1.18187e-09
-3.68576e-12
7.27104e-13
1.17999e-09
-2.97393e-12
8.74935e-13
1.17774e-09
-2.37282e-12
1.18241e-12
1.17652e-09
-1.82371e-12
1.22319e-12
1.17534e-09
-1.35764e-12
1.3626e-12
1.17484e-09
-9.49236e-13
1.35401e-12
1.17444e-09
-6.07644e-13
1.44279e-12
1.17437e-09
-2.88649e-13
1.41697e-12
1.17424e-09
1.44927e-12
1.17423e-09
-4.91424e-11
1.29708e-11
-1.56454e-11
6.22299e-11
2.68925e-13
1.13458e-11
-1.06496e-11
-9.93612e-12
-1.04465e-11
1.33332e-11
8.47907e-12
-1.28077e-11
-3.84689e-12
-9.19177e-13
9.80817e-10
6.4601e-11
6.6328e-11
-6.59954e-11
-6.45964e-11
-4.92644e-12
-2.08502e-12
1.22219e-09
-4.98095e-12
-6.77439e-13
1.19867e-09
-4.40198e-12
3.63849e-13
1.18154e-09
-3.68119e-12
9.96438e-13
1.18081e-09
-3.04023e-12
1.33859e-12
1.17855e-09
-2.40462e-12
1.61018e-12
1.17744e-09
-1.84622e-12
1.68247e-12