/*--------------------------------*- C++ -*----------------------------------*\
| =========                 |                                                 |
| \\      /  F ield         | OpenFOAM: The Open Source CFD Toolbox           |
|  \\    /   O peration     | Version:  2.1.1                                 |
|   \\  /    A nd           | Web:      www.OpenFOAM.org                      |
|    \\/     M anipulation  |                                                 |
\*---------------------------------------------------------------------------*/
FoamFile
{
    version     2.0;
    format      ascii;
    class       volScalarField;
    location    "0.005";
    object      Th;
}
// * * * * * * * * * * * * * * * * * * * * * * * * * * * * * * * * * * * * * //

dimensions      [0 0 0 0 0 0 0];

internalField   nonuniform List<scalar> 
10260
(
5.1299e-13
1.27625e-14
1.00162e-14
1.00002e-14
1.00001e-14
1.00001e-14
1.00002e-14
1.00002e-14
1.00001e-14
1e-14
1e-14
1.00001e-14
1.00001e-14
1.00001e-14
1.00004e-14
5.6117e-13
1.6581e-14
1.00411e-14
1.00004e-14
1.00001e-14
1e-14
1e-14
1e-14
1e-14
1e-14
1e-14
1e-14
1.00001e-14
1.00001e-14
1e-14
1e-14
1e-14
1.00001e-14
1e-14
1e-14
1e-14
1e-14
1e-14
1e-14
1e-14
1e-14
1e-14
1e-14
1.00002e-14
1.73502e-14
1.02089e-14
1.00004e-14
1e-14
1e-14
1e-14
1e-14
1e-14
1e-14
1.00001e-14
1.00001e-14
1e-14
1.00001e-14
1.00002e-14
9.01831e-14
1.04058e-14
1.00011e-14
1e-14
1e-14
1e-14
1e-14
1.00001e-14
1.00002e-14
1.00002e-14
1.00001e-14
1.00001e-14
1.00002e-14
1.00001e-14
3.51536e-13
1.78108e-14
1.00294e-14
1.00001e-14
1e-14
1e-14
1e-14
1.00002e-14
1.00001e-14
1.00001e-14
1.00001e-14
1.00001e-14
1.00001e-14
1.00001e-14
1.03092e-14
1.03309e-14
1.00004e-14
1e-14
1e-14
1e-14
1.00001e-14
1.00001e-14
1e-14
1.00001e-14
1.00001e-14
1e-14
1.00002e-14
1e-14
2.3283e-14
1.00394e-14
1.00001e-14
1e-14
1e-14
1e-14
1.00001e-14
1.00001e-14
1.00001e-14
1.00001e-14
1e-14
1.00002e-14
3.47529e-14
1.23136e-14
1.00053e-14
1.00001e-14
1e-14
1e-14
1e-14
1e-14
1.00001e-14
1.00001e-14
1.00001e-14
1.00002e-14
1.15987e-12
1e-14
1.24021e-14
1.00054e-14
1.00002e-14
1e-14
1e-14
1e-14
1e-14
1e-14
1e-14
1.00001e-14
1.11226e-13
1e-14
1.23058e-14
1.00395e-14
1.00004e-14
1.00001e-14
1e-14
1e-14
1e-14
1e-14
1.00001e-14
1e-14
1.1784e-14
2.32789e-14
1.03318e-14
1.00314e-14
1.00012e-14
1.00005e-14
1.00002e-14
1.00003e-14
1.00003e-14
1.05447e-13
1e-14
1.79281e-14
1.04082e-14
1.02092e-14
1e-14
1.0042e-14
1.00178e-14
1e-14
6.38881e-14
1.01818e-14
1e-14
1e-14
1.66781e-14
1.28979e-14
1.60265e-12
1e-14
1e-14
2.61507e-14
2.91412e-14
5.19761e-13
1.24508e-14
1.00082e-14
1.00002e-14
1.00002e-14
1.00002e-14
1.00003e-14
1.00003e-14
1.00003e-14
1.00001e-14
1e-14
1e-14
1.00001e-14
1.00003e-14
1.00001e-14
5.73073e-13
1.60357e-14
1.00228e-14
1.00002e-14
1.00001e-14
1e-14
1e-14
1e-14
1e-14
1e-14
1e-14
1e-14
1e-14
1e-14
1e-14
1e-14
1e-14
1e-14
1e-14
1e-14
1e-14
1e-14
1e-14
1e-14
1e-14
1e-14
1e-14
1e-14
1.00002e-14
1.67828e-14
1.01746e-14
1.00001e-14
1e-14
1e-14
1e-14
1e-14
1e-14
1e-14
1.00001e-14
1.00001e-14
1e-14
1e-14
1.00001e-14
8.66179e-14
1.03398e-14
1.00005e-14
1e-14
1e-14
1e-14
1e-14
1.00001e-14
1.00001e-14
1.00001e-14
1.00001e-14
1.00001e-14
1.00001e-14
1e-14
3.57449e-13
1.74285e-14
1.00178e-14
1e-14
1e-14
1e-14
1e-14
1.00001e-14
1.00001e-14
1e-14
1e-14
1.00001e-14
1e-14
1.00001e-14
1.01063e-14
1.02931e-14
1e-14
1e-14
1e-14
1e-14
1.00001e-14
1e-14
1e-14
1e-14
1.00001e-14
1e-14
1.00001e-14
1e-14
2.25151e-14
1.00225e-14
1e-14
1e-14
1e-14
1e-14
1.00001e-14
1.00001e-14
1.00001e-14
1.00001e-14
1e-14
1.00001e-14
3.38361e-14
1.21138e-14
1.00014e-14
1.00001e-14
1e-14
1e-14
1e-14
1e-14
1.00001e-14
1.00001e-14
1e-14
1.00001e-14
1.16353e-12
1e-14
1.22162e-14
1.00015e-14
1.00001e-14
1e-14
1e-14
1e-14
1e-14
1e-14
1e-14
1e-14
1.54856e-13
1e-14
1.21061e-14
1.00226e-14
1e-14
1e-14
1e-14
1e-14
1e-14
1e-14
1e-14
3.26883e-14
1.1059e-14
2.25154e-14
1.02937e-14
1.00187e-14
1.00005e-14
1.00002e-14
1.00001e-14
1.00002e-14
1.00001e-14
1.09078e-13
1e-14
1.74577e-14
1.03424e-14
1.01757e-14
1e-14
1.00231e-14
1.00092e-14
1e-14
6.22532e-14
1.03155e-14
1e-14
1e-14
1.60617e-14
1.25044e-14
1.59006e-12
1e-14
1e-14
2.47522e-14
2.86971e-14
5.20543e-13
1.2379e-14
1.00011e-14
1.00003e-14
1.00002e-14
1.00002e-14
1.00003e-14
1.00003e-14
1.00002e-14
1.00001e-14
1e-14
1e-14
1e-14
1.00003e-14
1.00002e-14
5.74057e-13
1.58719e-14
1.00055e-14
1.00001e-14
1.00001e-14
1e-14
1e-14
1e-14
1e-14
1e-14
1e-14
1e-14
1e-14
1.00001e-14
1e-14
1e-14
1e-14
1e-14
1e-14
1e-14
1e-14
1e-14
1e-14
1e-14
1e-14
1.00001e-14
1e-14
1e-14
1.00002e-14
1.67965e-14
1.0162e-14
1e-14
1e-14
1e-14
1e-14
1e-14
1e-14
1e-14
1e-14
1.00001e-14
1e-14
1e-14
1.00002e-14
8.71183e-14
1.03246e-14
1e-14
1e-14
1e-14
1e-14
1e-14
1.00001e-14
1.00001e-14
1.00001e-14
1.00001e-14
1.00001e-14
1.00001e-14
1.00001e-14
3.57761e-13
1.73029e-14
1.00104e-14
1e-14
1e-14
1e-14
1e-14
1.00001e-14
1.00001e-14
1e-14
1e-14
1.00001e-14
1e-14
1.00001e-14
1.01616e-14
1.02811e-14
1e-14
1e-14
1e-14
1e-14
1.00001e-14
1e-14
1e-14
1e-14
1e-14
1e-14
1.00002e-14
1e-14
2.21339e-14
1.00146e-14
1e-14
1e-14
1e-14
1e-14
1e-14
1.00001e-14
1.00001e-14
1.00001e-14
1e-14
1.00001e-14
3.39822e-14
1.20642e-14
1e-14
1.00001e-14
1e-14
1e-14
1e-14
1e-14
1e-14
1.00001e-14
1e-14
1.00001e-14
1.16261e-12
1e-14
1.21619e-14
1e-14
1e-14
1e-14
1e-14
1e-14
1e-14
1e-14
1e-14
1.00001e-14
1.57765e-13
1e-14
1.2056e-14
1.00147e-14
1e-14
1e-14
1e-14
1e-14
1e-14
1e-14
1.00001e-14
3.528e-14
1.08003e-14
2.21344e-14
1.02814e-14
1.0011e-14
1e-14
1e-14
1.00001e-14
1e-14
1e-14
1.10951e-13
1e-14
1.73115e-14
1.03259e-14
1.01627e-14
1e-14
1.00057e-14
1.00016e-14
1e-14
6.26822e-14
1.03365e-14
1e-14
1e-14
1.58791e-14
1.23981e-14
1.58521e-12
1e-14
1e-14
2.45511e-14
2.88057e-14
5.20466e-13
1.21719e-14
1e-14
1.00002e-14
1.00002e-14
1.00002e-14
1.00002e-14
1.00003e-14
1.00003e-14
1.00001e-14
1e-14
1e-14
1e-14
1.00003e-14
1.00002e-14
5.73736e-13
1.56897e-14
1e-14
1e-14
1.00001e-14
1e-14
1e-14
1e-14
1e-14
1e-14
1e-14
1e-14
1e-14
1e-14
1e-14
1e-14
1e-14
1e-14
1e-14
1e-14
1e-14
1e-14
1e-14
1e-14
1e-14
1e-14
1e-14
1e-14
1.00002e-14
1.68101e-14
1.01549e-14
1e-14
1e-14
1e-14
1e-14
1e-14
1e-14
1e-14
1.00001e-14
1.00001e-14
1e-14
1e-14
1.00002e-14
8.74199e-14
1.03042e-14
1e-14
1e-14
1e-14
1e-14
1e-14
1.00001e-14
1.00001e-14
1e-14
1e-14
1.00001e-14
1e-14
1e-14
3.57821e-13
1.71463e-14
1.00001e-14
1e-14
1e-14
1e-14
1e-14
1.00001e-14
1.00001e-14
1e-14
1e-14
1e-14
1e-14
1e-14
1.02291e-14
1.02725e-14
1e-14
1e-14
1e-14
1e-14
1e-14
1e-14
1e-14
1e-14
1e-14
1e-14
1.00001e-14
1e-14
2.20806e-14
1.00019e-14
1e-14
1e-14
1e-14
1e-14
1e-14
1.00001e-14
1e-14
1e-14
1e-14
1.00001e-14
3.40514e-14
1.20702e-14
1e-14
1.00001e-14
1e-14
1e-14
1e-14
1e-14
1e-14
1e-14
1e-14
1.00001e-14
1.16264e-12
1e-14
1.21563e-14
1e-14
1e-14
1e-14
1e-14
1e-14
1e-14
1e-14
1e-14
1.00001e-14
1.57599e-13
1e-14
1.20621e-14
1.0002e-14
1e-14
1e-14
1e-14
1e-14
1e-14
1e-14
1.00001e-14
3.49013e-14
1.0763e-14
2.20803e-14
1.02726e-14
1.00002e-14
1e-14
1e-14
1.00001e-14
1e-14
1e-14
1.11116e-13
1e-14
1.71488e-14
1.03046e-14
1.01552e-14
1e-14
1e-14
1e-14
1e-14
6.25405e-14
1.0324e-14
1e-14
1e-14
1.56887e-14
1.21778e-14
1.5837e-12
1e-14
1e-14
2.42096e-14
2.87569e-14
5.18945e-13
1.26996e-14
1e-14
1.00002e-14
1.00002e-14
1.00001e-14
1.00001e-14
1.00002e-14
1.00003e-14
1.00002e-14
1e-14
1e-14
1.00001e-14
1.00002e-14
1.00002e-14
5.71736e-13
1.63021e-14
1e-14
1e-14
1e-14
1e-14
1e-14
1e-14
1e-14
1e-14
1e-14
1e-14
1e-14
1e-14
1e-14
1e-14
1e-14
1e-14
1e-14
1e-14
1e-14
1e-14
1e-14
1e-14
1e-14
1e-14
1e-14
1e-14
1.00001e-14
1.68363e-14
1.01601e-14
1e-14
1e-14
1e-14
1e-14
1e-14
1e-14
1e-14
1e-14
1e-14
1e-14
1e-14
1e-14
8.80035e-14
1.0369e-14
1e-14
1e-14
1e-14
1e-14
1e-14
1e-14
1e-14
1e-14
1.00001e-14
1e-14
1e-14
1e-14
3.57545e-13
1.75919e-14
1e-14
1e-14
1e-14
1e-14
1e-14
1e-14
1.00001e-14
1e-14
1e-14
1e-14
1e-14
1e-14
1.03976e-14
1.02654e-14
1e-14
1e-14
1e-14
1e-14
1.00001e-14
1e-14
1e-14
1e-14
1e-14
1e-14
1.00001e-14
1e-14
2.18992e-14
1e-14
1e-14
1e-14
1e-14
1e-14
1e-14
1.00001e-14
1e-14
1e-14
1e-14
1.00001e-14
3.39095e-14
1.20065e-14
1e-14
1e-14
1e-14
1e-14
1e-14
1e-14
1e-14
1e-14
1e-14
1e-14
1.16232e-12
1e-14
1.21198e-14
1e-14
1e-14
1e-14
1e-14
1e-14
1e-14
1e-14
1.00001e-14
1.00001e-14
1.57362e-13
1e-14
1.1998e-14
1e-14
1e-14
1e-14
1.00001e-14
1.00001e-14
1e-14
1e-14
1e-14
3.44035e-14
1.069e-14
2.18945e-14
1.02653e-14
1e-14
1e-14
1e-14
1e-14
1e-14
1e-14
1.1057e-13
1e-14
1.75921e-14
1.03692e-14
1.01603e-14
1e-14
1e-14
1e-14
1e-14
6.20389e-14
1.02935e-14
1e-14
1e-14
1.63013e-14
1.26998e-14
1.58108e-12
1e-14
1e-14
2.35356e-14
2.86686e-14
5.13463e-13
1.14422e-14
1e-14
1.00001e-14
1.00001e-14
1.00001e-14
1.00001e-14
1.00002e-14
1.00002e-14
1.00001e-14
1.00001e-14
1e-14
1.00001e-14
1.00001e-14
1.00003e-14
5.64566e-13
1.48608e-14
1e-14
1e-14
1e-14
1e-14
1e-14
1.00001e-14
1e-14
1e-14
1e-14
1e-14
1e-14
1e-14
1e-14
1e-14
1e-14
1e-14
1e-14
1e-14
1e-14
1e-14
1e-14
1e-14
1e-14
1e-14
1e-14
1e-14
1e-14
1.67694e-14
1.0132e-14
1e-14
1e-14
1e-14
1e-14
1e-14
1e-14
1e-14
1e-14
1e-14
1e-14
1e-14
1.00001e-14
8.90596e-14
1.02029e-14
1e-14
1e-14
1e-14
1e-14
1e-14
1e-14
1e-14
1.00001e-14
1e-14
1e-14
1e-14
1.00002e-14
3.55754e-13
1.61813e-14
1e-14
1e-14
1e-14
1e-14
1e-14
1e-14
1.00001e-14
1.00001e-14
1e-14
1e-14
1e-14
1.00002e-14
1.03676e-14
1.02434e-14
1e-14
1e-14
1e-14
1e-14
1e-14
1e-14
1e-14
1e-14
1e-14
1e-14
1.00002e-14
1e-14
2.15397e-14
1e-14
1e-14
1e-14
1e-14
1e-14
1e-14
1e-14
1e-14
1e-14
1.00001e-14
1.00001e-14
3.29979e-14
1.22189e-14
1e-14
1e-14
1e-14
1e-14
1e-14
1e-14
1e-14
1.00001e-14
1.00001e-14
1e-14
1.15992e-12
1e-14
1.22225e-14
1e-14
1e-14
1e-14
1e-14
1.00001e-14
1.00001e-14
1.00001e-14
1e-14
1.00001e-14
1.55835e-13
1e-14
1.22096e-14
1e-14
1e-14
1.00001e-14
1.00001e-14
1.00001e-14
1e-14
1e-14
1e-14
3.23374e-14
1.0442e-14
2.15355e-14
1.02433e-14
1e-14
1e-14
1e-14
1e-14
1e-14
1e-14
1.08955e-13
1e-14
1.61811e-14
1.02029e-14
1.01321e-14
1e-14
1e-14
1e-14
1e-14
6.02612e-14
1.01453e-14
1e-14
1e-14
1.48612e-14
1.14431e-14
1.57236e-12
1e-14
1e-14
2.11709e-14
2.68655e-14
4.81099e-13
1.51407e-14
1e-14
1e-14
1e-14
1e-14
1.00001e-14
1.00002e-14
1.00001e-14
1.00001e-14
1e-14
1e-14
1e-14
1e-14
1.00003e-14
5.30981e-13
2.03651e-14
1e-14
1e-14
1e-14
1e-14
1e-14
1e-14
1e-14
1e-14
1e-14
1e-14
1e-14
1e-14
1e-14
1e-14
1e-14
1e-14
1e-14
1e-14
1e-14
1e-14
1e-14
1e-14
1e-14
1e-14
1e-14
1e-14
1e-14
1.30305e-14
1.02053e-14
1e-14
1e-14
1e-14
1e-14
1e-14
1.00001e-14
1.00001e-14
1.00001e-14
1e-14
1e-14
1e-14
1e-14
7.73686e-14
1.06957e-14
1e-14
1e-14
1e-14
1e-14
1e-14
1e-14
1.00001e-14
1.00001e-14
1e-14
1e-14
1e-14
1.00001e-14
3.42325e-13
2.08797e-14
1e-14
1e-14
1e-14
1e-14
1e-14
1e-14
1.00001e-14
1e-14
1e-14
1e-14
1.00001e-14
1.00001e-14
1.27797e-14
1.02278e-14
1e-14
1e-14
1e-14
1e-14
1e-14
1e-14
1e-14
1e-14
1e-14
1.00001e-14
1.00001e-14
1e-14
2.41327e-14
1e-14
1e-14
1e-14
1e-14
1e-14
1e-14
1e-14
1e-14
1.00001e-14
1e-14
1.00001e-14
3.12575e-14
1.18227e-14
1e-14
1e-14
1e-14
1e-14
1e-14
1e-14
1.00001e-14
1.00001e-14
1e-14
1e-14
1.15629e-12
1e-14
1.193e-14
1e-14
1e-14
1e-14
1.00001e-14
1.00001e-14
1.00001e-14
1e-14
1e-14
1.00001e-14
1.57372e-13
1e-14
1.1809e-14
1e-14
1e-14
1.00001e-14
1.00001e-14
1.00001e-14
1e-14
1.00001e-14
1.00001e-14
2.3398e-14
1.19047e-14
2.41325e-14
1.02271e-14
1e-14
1e-14
1e-14
1.00001e-14
1.00001e-14
1e-14
1.26785e-13
1e-14
2.08809e-14
1.06959e-14
1.02054e-14
1e-14
1e-14
1e-14
1e-14
5.09066e-14
1e-14
1e-14
1e-14
2.03679e-14
1.51412e-14
1.58148e-12
1e-14
1e-14
1.75981e-14
1.23675e-14
1.13916e-13
1.22431e-14
1e-14
1e-14
1e-14
1.00001e-14
1.00001e-14
1.00001e-14
1e-14
1e-14
1e-14
1e-14
1e-14
1e-14
1.00001e-14
9.45153e-14
1.34502e-14
1e-14
1e-14
1e-14
1e-14
1e-14
1e-14
1e-14
1e-14
1e-14
1e-14
1e-14
1e-14
1e-14
1e-14
1e-14
1e-14
1e-14
1e-14
1e-14
1.00001e-14
1e-14
1e-14
1e-14
1e-14
1e-14
1e-14
1.00001e-14
1.44816e-14
1.00725e-14
1e-14
1e-14
1e-14
1e-14
1e-14
1e-14
1e-14
1e-14
1e-14
1e-14
1.00001e-14
1.00001e-14
5.3445e-14
1.02715e-14
1e-14
1e-14
1e-14
1e-14
1e-14
1e-14
1e-14
1e-14
1e-14
1e-14
1.00001e-14
1.00002e-14
1.03194e-13
1.26951e-14
1e-14
1e-14
1e-14
1e-14
1e-14
1e-14
1e-14
1e-14
1e-14
1e-14
1.00001e-14
1.00001e-14
1.23516e-14
1.00442e-14
1e-14
1e-14
1e-14
1e-14
1.00001e-14
1e-14
1e-14
1e-14
1.00001e-14
1.00001e-14
1.00001e-14
6.7751e-14
1.36368e-14
1e-14
1.00001e-14
1e-14
1e-14
1e-14
1e-14
1.00001e-14
1.00001e-14
1.00001e-14
1e-14
1e-14
2.51532e-14
1.04586e-14
1e-14
1e-14
1e-14
1e-14
1.00001e-14
1.00001e-14
1e-14
1e-14
1e-14
1e-14
1e-14
1e-14
1.05079e-14
1e-14
1e-14
1e-14
1.00001e-14
1.00001e-14
1e-14
1e-14
1e-14
1.00002e-14
1e-14
1.0018e-14
1.04548e-14
1e-14
1e-14
1e-14
1e-14
1e-14
1e-14
1.00001e-14
1.00001e-14
1e-14
1e-14
1.36369e-14
1.00437e-14
1e-14
1e-14
1e-14
1.00001e-14
1.00001e-14
1e-14
6.22889e-14
1.03413e-14
1.26956e-14
1.02716e-14
1.00726e-14
1e-14
1e-14
1e-14
1e-14
5.21132e-14
1e-14
1e-14
1e-14
1.34511e-14
1.22435e-14
1e-14
1.28301e-13
2.75097e-14
3.65007e-14
1.16008e-14
1.44227e-14
1.07932e-14
1e-14
1e-14
1e-14
1e-14
1.00001e-14
1e-14
1e-14
1e-14
1e-14
1e-14
1e-14
1e-14
1.00001e-14
1.20174e-14
1.11877e-14
1e-14
1e-14
1e-14
1e-14
1e-14
1e-14
1e-14
1e-14
1e-14
1e-14
1e-14
1e-14
1e-14
1.03207e-14
1e-14
1e-14
1e-14
1e-14
1e-14
1e-14
1e-14
1e-14
1e-14
1e-14
1e-14
1e-14
1e-14
1e-14
1.01152e-14
1.00218e-14
1e-14
1e-14
1.00001e-14
1e-14
1e-14
1e-14
1e-14
1e-14
1e-14
1e-14
1e-14
1.00001e-14
1.17573e-14
1.00952e-14
1e-14
1e-14
1e-14
1e-14
1e-14
1e-14
1e-14
1e-14
1e-14
1e-14
1e-14
1.00002e-14
1.24558e-14
1.07535e-14
1e-14
1e-14
1e-14
1e-14
1e-14
1e-14
1e-14
1e-14
1e-14
1e-14
1.00001e-14
1.00001e-14
1.02239e-14
1.0006e-14
1e-14
1e-14
1e-14
1e-14
1e-14
1e-14
1e-14
1.00001e-14
1e-14
1e-14
1e-14
1.07952e-14
1.10557e-14
1e-14
1.00001e-14
1e-14
1e-14
1e-14
1e-14
1.00001e-14
1e-14
1e-14
1e-14
1e-14
1.1168e-14
1.00915e-14
1e-14
1e-14
1e-14
1e-14
1.00001e-14
1.00001e-14
1e-14
1e-14
1e-14
1e-14
1.00729e-14
1e-14
1.01221e-14
1e-14
1e-14
1e-14
1.00001e-14
1e-14
1e-14
1e-14
1.00001e-14
1.00002e-14
1.00198e-14
1e-14
1.00907e-14
1e-14
1e-14
1e-14
1e-14
1.00001e-14
1.00001e-14
1.00001e-14
1.00001e-14
1.00717e-14
1e-14
1.10558e-14
1.00058e-14
1e-14
1e-14
1e-14
1.00001e-14
1.00001e-14
1e-14
1.30605e-14
1e-14
1.07536e-14
1.00953e-14
1.00219e-14
1.00001e-14
1e-14
1e-14
1.00161e-14
1.24804e-14
1e-14
1.01155e-14
1e-14
1.11881e-14
1.07936e-14
1.29739e-14
1.06408e-14
1.2079e-14
1e-14
1.01394e-14
1.0238e-14
1e-14
1e-14
1e-14
1e-14
1e-14
1e-14
1e-14
1e-14
1e-14
1e-14
1e-14
1e-14
1.00002e-14
1.00521e-14
1.03656e-14
1e-14
1e-14
1e-14
1e-14
1e-14
1e-14
1e-14
1e-14
1e-14
1e-14
1e-14
1e-14
1e-14
1.00036e-14
1.00036e-14
1e-14
1e-14
1e-14
1e-14
1e-14
1e-14
1e-14
1e-14
1e-14
1e-14
1e-14
1e-14
1e-14
1.0014e-14
1.00067e-14
1e-14
1e-14
1e-14
1e-14
1e-14
1e-14
1e-14
1e-14
1e-14
1e-14
1e-14
1e-14
1.00543e-14
1.00274e-14
1e-14
1e-14
1e-14
1e-14
1e-14
1e-14
1e-14
1e-14
1e-14
1e-14
1e-14
1.00001e-14
1.00437e-14
1.0192e-14
1e-14
1e-14
1e-14
1e-14
1e-14
1e-14
1e-14
1e-14
1e-14
1e-14
1.00001e-14
1e-14
1.00218e-14
1.00009e-14
1e-14
1e-14
1e-14
1e-14
1e-14
1e-14
1e-14
1e-14
1e-14
1e-14
1e-14
1.00158e-14
1.02776e-14
1e-14
1.00001e-14
1e-14
1e-14
1e-14
1e-14
1.00001e-14
1e-14
1e-14
1e-14
1e-14
1.00631e-14
1.00156e-14
1e-14
1e-14
1e-14
1e-14
1e-14
1e-14
1e-14
1e-14
1e-14
1e-14
1.00011e-14
1.00095e-14
1.00262e-14
1e-14
1e-14
1e-14
1e-14
1e-14
1e-14
1e-14
1e-14
1.00002e-14
1e-14
1.00094e-14
1.00155e-14
1e-14
1e-14
1e-14
1.00001e-14
1e-14
1.00001e-14
1.00001e-14
1e-14
1.00003e-14
1.00018e-14
1.02776e-14
1.00009e-14
1e-14
1e-14
1e-14
1.00001e-14
1.00001e-14
1e-14
1.01172e-14
1e-14
1.01921e-14
1.00274e-14
1.00067e-14
1e-14
1e-14
1e-14
1.00007e-14
1.01115e-14
1.00025e-14
1.00141e-14
1.00036e-14
1.03657e-14
1.02383e-14
1.00856e-14
1.00174e-14
1.01155e-14
1.00219e-14
1.00037e-14
1.00631e-14
1e-14
1e-14
1e-14
1e-14
1e-14
1e-14
1e-14
1e-14
1e-14
1e-14
1e-14
1e-14
1.00002e-14
1.00015e-14
1.00989e-14
1e-14
1e-14
1e-14
1e-14
1e-14
1e-14
1e-14
1e-14
1e-14
1e-14
1e-14
1e-14
1e-14
1.00001e-14
1.00014e-14
1e-14
1e-14
1e-14
1e-14
1e-14
1e-14
1e-14
1e-14
1e-14
1e-14
1e-14
1e-14
1.00001e-14
1.0002e-14
1.00019e-14
1e-14
1e-14
1e-14
1e-14
1e-14
1e-14
1e-14
1e-14
1e-14
1e-14
1e-14
1.00001e-14
1.0001e-14
1.00068e-14
1e-14
1e-14
1e-14
1e-14
1e-14
1e-14
1e-14
1e-14
1e-14
1e-14
1e-14
1.00001e-14
1.00006e-14
1.00432e-14
1e-14
1e-14
1e-14
1e-14
1e-14
1e-14
1e-14
1e-14
1e-14
1e-14
1e-14
1e-14
1.00044e-14
1.00002e-14
1e-14
1e-14
1e-14
1e-14
1e-14
1e-14
1e-14
1e-14
1e-14
1e-14
1e-14
1.00004e-14
1.00623e-14
1e-14
1e-14
1e-14
1e-14
1e-14
1e-14
1e-14
1e-14
1e-14
1e-14
1e-14
1.0005e-14
1.00025e-14
1e-14
1e-14
1e-14
1e-14
1e-14
1e-14
1e-14
1e-14
1e-14
1e-14
1.00001e-14
1.00013e-14
1.00057e-14
1e-14
1e-14
1e-14
1e-14
1e-14
1e-14
1e-14
1e-14
1.00001e-14
1e-14
1.00014e-14
1.00026e-14
1e-14
1e-14
1e-14
1e-14
1e-14
1e-14
1e-14
1e-14
1e-14
1.00003e-14
1.00624e-14
1.00002e-14
1e-14
1e-14
1e-14
1.00001e-14
1e-14
1e-14
1.00056e-14
1e-14
1.00432e-14
1.00069e-14
1.0002e-14
1e-14
1e-14
1e-14
1e-14
1.00045e-14
1.00006e-14
1.00021e-14
1.00014e-14
1.0099e-14
1.00633e-14
1.00014e-14
1.00003e-14
1.00107e-14
1.00063e-14
1.00002e-14
1.00152e-14
1e-14
1e-14
1e-14
1e-14
1e-14
1e-14
1e-14
1e-14
1e-14
1e-14
1.00001e-14
1.00001e-14
1.00003e-14
1.00002e-14
1.0024e-14
1e-14
1e-14
1e-14
1e-14
1e-14
1e-14
1e-14
1e-14
1e-14
1.00001e-14
1.00001e-14
1e-14
1.00001e-14
1e-14
1.00003e-14
1e-14
1e-14
1e-14
1e-14
1e-14
1e-14
1e-14
1e-14
1e-14
1e-14
1e-14
1e-14
1.00001e-14
1.00003e-14
1.00005e-14
1e-14
1e-14
1e-14
1e-14
1e-14
1e-14
1e-14
1e-14
1e-14
1e-14
1e-14
1.00001e-14
1e-14
1.00015e-14
1e-14
1e-14
1e-14
1e-14
1e-14
1e-14
1e-14
1e-14
1e-14
1e-14
1e-14
1e-14
1e-14
1.00087e-14
1e-14
1e-14
1e-14
1e-14
1e-14
1e-14
1e-14
1e-14
1e-14
1e-14
1e-14
1e-14
1.00009e-14
1.00001e-14
1e-14
1.00001e-14
1e-14
1e-14
1e-14
1e-14
1e-14
1e-14
1e-14
1e-14
1.00001e-14
1.00005e-14
1.00122e-14
1e-14
1e-14
1e-14
1e-14
1e-14
1e-14
1e-14
1e-14
1e-14
1e-14
1.00001e-14
1.00008e-14
1.00003e-14
1e-14
1e-14
1.00001e-14
1e-14
1e-14
1e-14
1e-14
1e-14
1e-14
1e-14
1.00001e-14
1.00002e-14
1.00013e-14
1e-14
1e-14
1e-14
1e-14
1e-14
1e-14
1e-14
1e-14
1e-14
1e-14
1.00003e-14
1.00004e-14
1e-14
1e-14
1e-14
1e-14
1e-14
1e-14
1e-14
1e-14
1e-14
1e-14
1.00123e-14
1.00001e-14
1e-14
1e-14
1e-14
1e-14
1e-14
1e-14
1.00009e-14
1e-14
1.00087e-14
1.00015e-14
1.00005e-14
1e-14
1e-14
1e-14
1e-14
1.00006e-14
1.00001e-14
1.00004e-14
1.00004e-14
1.0024e-14
1.00152e-14
1e-14
1.00002e-14
1.00023e-14
1.00013e-14
1e-14
1.00033e-14
1e-14
1e-14
1e-14
1e-14
1e-14
1e-14
1e-14
1e-14
1e-14
1.00001e-14
1.00002e-14
1.00001e-14
1.00003e-14
1e-14
1.00052e-14
1e-14
1e-14
1e-14
1e-14
1.00001e-14
1e-14
1e-14
1e-14
1e-14
1.00001e-14
1.00001e-14
1e-14
1.00002e-14
1e-14
1e-14
1e-14
1e-14
1e-14
1e-14
1e-14
1e-14
1e-14
1e-14
1e-14
1e-14
1e-14
1e-14
1.00002e-14
1e-14
1.00001e-14
1e-14
1e-14
1e-14
1e-14
1e-14
1e-14
1e-14
1e-14
1e-14
1e-14
1e-14
1.00001e-14
1e-14
1.00003e-14
1e-14
1e-14
1.00001e-14
1e-14
1e-14
1e-14
1e-14
1e-14
1e-14
1e-14
1e-14
1.00001e-14
1e-14
1.00016e-14
1e-14
1e-14
1.00001e-14
1.00001e-14
1e-14
1e-14
1e-14
1e-14
1e-14
1e-14
1e-14
1e-14
1.00001e-14
1.00001e-14
1.00001e-14
1.00001e-14
1e-14
1e-14
1e-14
1e-14
1e-14
1e-14
1e-14
1e-14
1e-14
1.00001e-14
1.00021e-14
1.00001e-14
1e-14
1e-14
1e-14
1e-14
1e-14
1e-14
1e-14
1e-14
1e-14
1e-14
1.00001e-14
1e-14
1e-14
1e-14
1.00001e-14
1e-14
1e-14
1e-14
1e-14
1e-14
1e-14
1e-14
1e-14
1.00001e-14
1.00003e-14
1e-14
1.00001e-14
1e-14
1e-14
1e-14
1e-14
1e-14
1e-14
1e-14
1e-14
1.00002e-14
1.00001e-14
1e-14
1e-14
1e-14
1e-14
1e-14
1e-14
1e-14
1.00001e-14
1e-14
1e-14
1.00022e-14
1.00001e-14
1e-14
1e-14
1e-14
1e-14
1e-14
1.00001e-14
1.00003e-14
1.00002e-14
1.00015e-14
1.00003e-14
1.00001e-14
1e-14
1e-14
1e-14
1.00003e-14
1e-14
1.00001e-14
1e-14
1e-14
1.00053e-14
1.00033e-14
1e-14
1.00003e-14
1.00002e-14
1.00003e-14
1e-14
1.00007e-14
1.00001e-14
1.00001e-14
1.00001e-14
1.00002e-14
1.00002e-14
1.00001e-14
1.00001e-14
1.00002e-14
1.00002e-14
1.00001e-14
1.00001e-14
1.00002e-14
1.00006e-14
1e-14
1.00011e-14
1e-14
1e-14
1e-14
1.00001e-14
1e-14
1e-14
1e-14
1e-14
1.00001e-14
1.00001e-14
1e-14
1e-14
1.00001e-14
1e-14
1e-14
1e-14
1e-14
1e-14
1e-14
1e-14
1e-14
1e-14
1e-14
1.00001e-14
1e-14
1e-14
1e-14
1e-14
1e-14
1e-14
1e-14
1.00001e-14
1e-14
1e-14
1e-14
1e-14
1e-14
1e-14
1e-14
1e-14
1e-14
1e-14
1e-14
1e-14
1e-14
1e-14
1e-14
1.00001e-14
1e-14
1e-14
1e-14
1e-14
1e-14
1e-14
1e-14
1e-14
1e-14
1.00003e-14
1e-14
1.00001e-14
1e-14
1.00001e-14
1e-14
1e-14
1e-14
1e-14
1e-14
1e-14
1e-14
1e-14
1.00002e-14
1e-14
1e-14
1.00001e-14
1e-14
1e-14
1e-14
1e-14
1e-14
1e-14
1e-14
1e-14
1e-14
1e-14
1.00003e-14
1e-14
1e-14
1e-14
1e-14
1.00001e-14
1e-14
1e-14
1e-14
1e-14
1e-14
1e-14
1e-14
1e-14
1e-14
1e-14
1e-14
1.00001e-14
1e-14
1e-14
1e-14
1e-14
1e-14
1e-14
1.00002e-14
1e-14
1.00001e-14
1.00001e-14
1.00001e-14
1.00001e-14
1e-14
1e-14
1e-14
1e-14
1e-14
1.00002e-14
1e-14
1.00001e-14
1.00001e-14
1e-14
1e-14
1e-14
1e-14
1e-14
1e-14
1.00001e-14
1.00001e-14
1e-14
1e-14
1.00004e-14
1e-14
1e-14
1e-14
1e-14
1.00001e-14
1.00001e-14
1e-14
1e-14
1.00001e-14
1.00002e-14
1.00001e-14
1.00001e-14
1.00001e-14
1.00001e-14
1e-14
1.00002e-14
1e-14
1e-14
1e-14
1e-14
1.00011e-14
1.00007e-14
1e-14
1e-14
1e-14
1e-14
1.00003e-14
1.00002e-14
1.00002e-14
1e-14
1e-14
1e-14
1e-14
1e-14
1e-14
1e-14
1e-14
1e-14
1e-14
1e-14
1.00006e-14
1e-14
1.00002e-14
1e-14
1e-14
1e-14
1e-14
1.00001e-14
1e-14
1e-14
1e-14
1e-14
1e-14
1e-14
1e-14
1.00002e-14
1e-14
1e-14
1.00001e-14
1e-14
1e-14
1e-14
1e-14
1e-14
1e-14
1e-14
1e-14
1e-14
1.00001e-14
1.00001e-14
1.00003e-14
1e-14
1e-14
1e-14
1e-14
1e-14
1e-14
1e-14
1e-14
1e-14
1e-14
1e-14
1.00001e-14
1e-14
1.00002e-14
1.00001e-14
1e-14
1.00001e-14
1.00001e-14
1.00001e-14
1.00001e-14
1e-14
1.00001e-14
1e-14
1e-14
1e-14
1e-14
1e-14
1e-14
1e-14
1.00001e-14
1.00001e-14
1.00001e-14
1.00001e-14
1.00001e-14
1e-14
1.00001e-14
1e-14
1e-14
1e-14
1e-14
1e-14
1e-14
1e-14
1e-14
1.00001e-14
1e-14
1e-14
1.00001e-14
1e-14
1e-14
1e-14
1e-14
1e-14
1e-14
1e-14
1e-14
1e-14
1.00001e-14
1.00001e-14
1.00001e-14
1.00001e-14
1.00001e-14
1e-14
1e-14
1e-14
1.00001e-14
1e-14
1e-14
1e-14
1e-14
1.00001e-14
1.00001e-14
1.00001e-14
1.00001e-14
1e-14
1e-14
1e-14
1e-14
1e-14
1e-14
1.00001e-14
1.00001e-14
1.00001e-14
1.00001e-14
1.00001e-14
1e-14
1e-14
1.00001e-14
1e-14
1e-14
1e-14
1.00001e-14
1.00003e-14
1.00001e-14
1.00001e-14
1e-14
1e-14
1e-14
1e-14
1e-14
1e-14
1e-14
1e-14
1.00003e-14
1.00002e-14
1.00001e-14
1e-14
1e-14
1e-14
1e-14
1e-14
1.00001e-14
1e-14
1e-14
1e-14
1.00001e-14
1e-14
1e-14
1e-14
1e-14
1.00001e-14
1.00001e-14
1e-14
1e-14
1e-14
1e-14
1.00002e-14
1.00003e-14
1e-14
1e-14
1e-14
1.00001e-14
8.21658e-13
5.0379e-14
8.75174e-13
5.64126e-14
9.22499e-13
7.02985e-14
9.78149e-14
1.69146e-13
2.06666e-14
1.27866e-14
1.7782e-13
2.39002e-13
1.91013e-12
1.20792e-13
2.1106e-14
9.56037e-14
1.00076e-14
5.51787e-13
4.1903e-14
1.56228e-13
1e-14
6.30373e-13
3.02394e-14
1.0749e-14
1.27534e-13
1.87877e-14
1.65102e-12
2.49268e-13
2.69159e-14
2.57193e-13
1e-14
7.28937e-14
1.15921e-14
6.85598e-13
3.90347e-14
1.7313e-12
2.38001e-13
1.32543e-12
1.41293e-12
2.15497e-13
1.40989e-12
1.32468e-12
2.37588e-13
1.73147e-12
3.89918e-14
1.15924e-14
6.85589e-13
7.29037e-14
1e-14
2.57232e-13
2.69496e-14
2.50022e-13
1.88553e-14
1.08279e-14
1.2872e-13
3.14538e-14
1.64894e-12
6.31298e-13
1.14494e-14
1.51242e-13
4.16817e-14
5.53478e-13
1.0113e-14
2.06395e-14
9.53576e-14
1.17098e-13
1.91175e-12
2.15804e-13
1.74115e-13
1.18747e-14
2.12374e-14
1.69281e-13
9.60089e-14
6.92987e-14
9.26946e-13
5.58583e-14
4.94113e-14
8.79518e-13
8.23925e-13
2.65126e-14
5.28234e-13
2.90386e-14
8.08129e-13
4.54407e-14
8.63069e-13
5.13733e-14
4.34021e-14
2.63862e-14
9.10585e-13
6.34935e-14
8.6699e-14
8.61259e-14
1e-14
1.52665e-13
1.8555e-14
1.09933e-14
1e-14
1.21406e-14
1.61725e-13
1e-14
1.58466e-12
2.06282e-13
1.89439e-12
1e-14
1e-14
1.00984e-14
1.05952e-13
1.75972e-14
8.79829e-14
1.01246e-14
2.82929e-14
6.49507e-14
5.46769e-13
3.8383e-14
1.4253e-13
1.41011e-14
1e-14
1.26631e-14
6.40166e-13
1.10247e-14
9.03492e-14
1e-14
2.79363e-14
1.05047e-14
1.18197e-13
1.73481e-14
1.04257e-12
1.63934e-12
2.01395e-14
1.05525e-13
2.38151e-13
2.55807e-14
2.40634e-13
1.16435e-14
1e-14
1.11466e-14
4.17948e-13
1.17768e-14
6.86852e-14
1.08832e-14
6.70986e-13
3.46607e-14
1.08899e-13
1e-14
1.70617e-12
2.20437e-13
1.36588e-12
8.82495e-14
1.12672e-13
1.4463e-12
1.98265e-13
1.44285e-12
1.08821e-13
1.16004e-12
1.36487e-12
2.20173e-13
1.706e-12
1.11477e-14
4.1785e-13
3.47621e-14
3.46365e-14
1.08854e-14
6.71001e-13
6.86786e-14
1.1623e-14
1e-14
2.01244e-14
1e-14
2.4061e-13
2.5556e-14
2.37656e-13
1.10463e-14
9.0743e-14
1.051e-14
1.74038e-14
1.05162e-14
1.18483e-13
2.81011e-14
1.04398e-12
1.6395e-12
1.26886e-14
6.40443e-13
1.26561e-14
2.84532e-14
3.55388e-13
1.42959e-13
3.8728e-14
5.4745e-13
1e-14
1e-14
8.97861e-14
1.01144e-14
1.77623e-14
8.80785e-14
1.06903e-13
1e-14
1.89533e-12
2.07903e-13
1.11389e-14
1.63024e-13
1.20921e-14
8.73393e-14
1.86931e-14
1.54123e-13
4.32714e-14
5.70355e-13
8.72996e-14
6.38348e-14
9.11439e-13
2.65329e-14
5.3641e-13
5.19863e-13
5.17705e-14
4.57507e-14
8.63998e-13
8.08782e-13
2.60189e-14
5.36849e-13
2.8541e-14
8.079e-13
4.51475e-14
8.62326e-13
5.10764e-14
4.16769e-14
2.45677e-14
9.10515e-13
6.30562e-14
8.57009e-14
8.67249e-14
1e-14
1.52057e-13
1.83931e-14
1.0881e-14
1e-14
1.19769e-14
1.62726e-13
1e-14
1.5904e-12
2.08559e-13
1.89632e-12
1e-14
1e-14
1.03253e-14
1.05134e-13
1.72025e-14
8.57645e-14
1.00728e-14
2.76787e-14
6.19015e-14
5.4764e-13
3.81972e-14
1.4246e-13
1.10785e-14
1e-14
1.36262e-14
6.35807e-13
1.09153e-14
8.97172e-14
1e-14
2.81546e-14
1.04667e-14
1.18818e-13
1.69286e-14
1.05926e-12
1.63979e-12
1.96964e-14
1.09087e-13
2.41786e-13
2.52374e-14
2.406e-13
1.14746e-14
1e-14
1.10713e-14
4.21357e-13
1.10498e-14
6.93184e-14
1.09133e-14
6.70857e-13
3.37978e-14
1.11041e-13
3.02872e-14
1.70913e-12
2.18795e-13
1.35235e-12
8.93318e-14
1.56192e-13
1.4332e-12
1.97439e-13
1.42978e-12
1.10967e-13
1.1636e-12
1.35135e-12
2.18543e-13
1.70893e-12
1.10737e-14
4.21306e-13
3.38427e-14
3.37746e-14
1.09127e-14
6.70856e-13
6.93068e-14
1.14746e-14
1e-14
1.96898e-14
1e-14
2.40636e-13
2.52336e-14
2.4171e-13
1.09181e-14
8.98687e-14
1.01495e-14
1.69319e-14
1.04679e-14
1.1887e-13
2.81735e-14
1.05923e-12
1.64014e-12
1.1164e-14
6.35813e-13
1.36059e-14
2.78242e-14
3.57416e-13
1.42663e-13
3.82738e-14
5.47636e-13
1e-14
1e-14
8.71054e-14
1.00668e-14
1.72224e-14
8.57408e-14
1.05378e-13
1e-14
1.89719e-12
2.08674e-13
1.09039e-14
1.62854e-13
1.19804e-14
8.73222e-14
1.8421e-14
1.52301e-13
4.18294e-14
5.72935e-13
8.58228e-14
6.3165e-14
9.10438e-13
2.6166e-14
5.3677e-13
5.19642e-13
5.12063e-14
4.5221e-14
8.62529e-13
8.07619e-13
2.62363e-14
5.37647e-13
2.87584e-14
8.08084e-13
4.52987e-14
8.62265e-13
5.12534e-14
4.17689e-14
2.45057e-14
9.10452e-13
6.32856e-14
8.58627e-14
8.80584e-14
1e-14
1.52653e-13
1.83738e-14
1.08751e-14
1e-14
1.1951e-14
1.62661e-13
1e-14
1.58536e-12
2.08926e-13
1.89675e-12
1e-14
1e-14
1.03384e-14
1.05453e-13
1.71622e-14
8.52827e-14
1.00562e-14
2.78214e-14
6.26231e-14
5.48201e-13
3.83792e-14
1.43077e-13
1.08917e-14
1e-14
1.3745e-14
6.33774e-13
1.08844e-14
9.06086e-14
1e-14
2.83438e-14
1.04514e-14
1.19391e-13
1.68384e-14
1.06133e-12
1.64028e-12
1.96012e-14
1.10955e-13
2.43986e-13
2.52253e-14
2.40944e-13
1.16364e-14
1e-14
1.10479e-14
4.22137e-13
1.07902e-14
6.95718e-14
1.09122e-14
6.70987e-13
3.37364e-14
1.12696e-13
3.29187e-14
1.70949e-12
2.18882e-13
1.34906e-12
9.06993e-14
1.59164e-13
1.42996e-12
1.97657e-13
1.4266e-12
1.12621e-13
1.1627e-12
1.3482e-12
2.1862e-13
1.70952e-12
1.10494e-14
4.22061e-13
3.39797e-14
3.37116e-14
1.0911e-14
6.70932e-13
6.95664e-14
1.16369e-14
1e-14
1.96002e-14
1e-14
2.40961e-13
2.52228e-14
2.43954e-13
1.08855e-14
9.0638e-14
1.01656e-14
1.68395e-14
1.04525e-14
1.19395e-13
2.83464e-14
1.0615e-12
1.64023e-12
1.09099e-14
6.33759e-13
1.37396e-14
2.78417e-14
3.5775e-13
1.43105e-13
3.83917e-14
5.48206e-13
1e-14
1e-14
8.72049e-14
1.00546e-14
1.71668e-14
8.52678e-14
1.05501e-13
1e-14
1.89705e-12
2.08938e-13
1.08829e-14
1.62692e-13
1.19461e-14
8.8166e-14
1.83765e-14
1.52699e-13
4.18234e-14
5.73925e-13
8.58932e-14
6.33205e-14
9.10505e-13
2.62764e-14
5.37328e-13
5.20261e-13
5.12955e-14
4.53134e-14
8.62303e-13
8.0746e-13
2.62217e-14
5.37207e-13
2.87449e-14
8.07908e-13
4.54592e-14
8.6255e-13
5.14758e-14
4.17736e-14
2.42051e-14
9.10824e-13
6.36432e-14
8.64097e-14
8.85669e-14
1e-14
1.53497e-13
1.83621e-14
1.08688e-14
1e-14
1.19661e-14
1.62367e-13
1e-14
1.58367e-12
2.08878e-13
1.89652e-12
1e-14
1e-14
1.03254e-14
1.05762e-13
1.71409e-14
8.45868e-14
1.00445e-14
2.78428e-14
6.25055e-14
5.49065e-13
3.85185e-14
1.4338e-13
1.0816e-14
1e-14
1.38588e-14
6.32137e-13
1.08637e-14
9.08153e-14
1e-14
2.84667e-14
1.04317e-14
1.19555e-13
1.67473e-14
1.06191e-12
1.64042e-12
1.95628e-14
1.11122e-13
2.4598e-13
2.52327e-14
2.40728e-13
1.16487e-14
1e-14
1.10349e-14
4.22398e-13
1.07536e-14
6.95919e-14
1.08988e-14
6.70925e-13
3.37194e-14
1.12969e-13
3.24535e-14
1.70956e-12
2.18961e-13
1.34851e-12
9.09206e-14
1.59044e-13
1.42926e-12
1.97768e-13
1.42591e-12
1.12905e-13
1.1627e-12
1.34758e-12
2.18699e-13
1.70949e-12
1.10366e-14
4.22325e-13
3.40545e-14
3.36954e-14
1.08978e-14
6.70929e-13
6.95841e-14
1.16451e-14
1e-14
1.95636e-14
1e-14
2.40725e-13
2.52302e-14
2.45982e-13
1.08642e-14
9.08125e-14
1.02305e-14
1.6748e-14
1.04322e-14
1.19554e-13
2.84667e-14
1.06154e-12
1.64027e-12
1.0824e-14
6.32088e-13
1.38558e-14
2.7846e-14
3.57825e-13
1.434e-13
3.85222e-14
5.49094e-13
1e-14
1e-14
8.74429e-14
1.00443e-14
1.71409e-14
8.45965e-14
1.05774e-13
1e-14
1.89637e-12
2.08836e-13
1.08718e-14
1.62359e-13
1.19646e-14
8.859e-14
1.83673e-14
1.53498e-13
4.17815e-14
5.73629e-13
8.63962e-14
6.36397e-14
9.10681e-13
2.62329e-14
5.37005e-13
5.20047e-13
5.14678e-14
4.54889e-14
8.62487e-13
8.08043e-13
2.61651e-14
5.35893e-13
2.86735e-14
8.08272e-13
4.58198e-14
8.63349e-13
5.20501e-14
4.17777e-14
2.35426e-14
9.10674e-13
6.46206e-14
8.81093e-14
8.9546e-14
1e-14
1.55206e-13
1.85598e-14
1.08306e-14
1e-14
1.21939e-14
1.62212e-13
1e-14
1.58101e-12
2.09371e-13
1.89587e-12
1e-14
1e-14
1.02933e-14
1.06908e-13
1.70884e-14
8.28879e-14
1.00193e-14
2.78263e-14
6.20283e-14
5.51408e-13
3.87994e-14
1.44076e-13
1.07056e-14
1e-14
1.40064e-14