/*--------------------------------*- C++ -*----------------------------------*\
| =========                 |                                                 |
| \\      /  F ield         | OpenFOAM: The Open Source CFD Toolbox           |
|  \\    /   O peration     | Version:  2.1.1                                 |
|   \\  /    A nd           | Web:      www.OpenFOAM.org                      |
|    \\/     M anipulation  |                                                 |
\*---------------------------------------------------------------------------*/
FoamFile
{
    version     2.0;
    format      ascii;
    class       volVectorField;
    location    "0.005";
    object      U;
}
// * * * * * * * * * * * * * * * * * * * * * * * * * * * * * * * * * * * * * //

dimensions      [0 1 -1 0 0 0 0];

internalField   nonuniform List<vector> 
10260
(
(-0.00175657 2.5795e-05 0.00804111)
(0.000345383 -0.000125852 0.0988103)
(0.00110129 0.000167123 0.122363)
(0.000979912 1.54438e-05 0.119525)
(0.00101666 1.01221e-05 0.117779)
(0.000739563 4.46716e-06 0.117592)
(0.00065564 -1.29789e-06 0.117179)
(0.000506549 -8.23138e-06 0.116876)
(0.000418184 -1.39423e-05 0.116599)
(0.000314619 -1.7158e-05 0.116413)
(0.00024143 -1.91306e-05 0.116271)
(0.000172106 -2.07148e-05 0.116176)
(0.000117856 -2.14779e-05 0.116119)
(6.68081e-05 -2.15126e-05 0.116093)
(2.23781e-05 -2.23903e-05 0.116086)
(-0.00157293 -0.000466441 0.00790363)
(0.000176194 0.000634066 0.0788416)
(0.0010493 -0.000265226 0.119624)
(0.000894641 7.66905e-05 0.120951)
(0.00102765 -0.000284806 0.118119)
(0.000732002 -3.8369e-05 0.117573)
(0.000645072 -0.000127143 0.117169)
(0.000494213 -5.83121e-05 0.11688)
(0.000410068 -8.51491e-05 0.116615)
(0.000309974 -6.4616e-05 0.116429)
(0.000238643 -7.24755e-05 0.11629)
(0.000170306 -6.59204e-05 0.116193)
(0.000116695 -6.87461e-05 0.116136)
(6.64508e-05 -6.63185e-05 0.116104)
(2.20356e-05 -6.60724e-05 0.116092)
(-0.0102626 0.00341337 0.0306794)
(-0.000160419 5.43865e-06 0.0952582)
(0.00109584 0.000163702 0.119801)
(0.000912747 -0.000217826 0.118885)
(0.000893279 -2.41649e-05 0.117731)
(0.000640139 -0.00012212 0.117321)
(0.000550851 -8.75915e-05 0.116957)
(0.000411871 -0.000116171 0.116696)
(0.000327175 -0.00010737 0.116486)
(0.000240129 -0.000115293 0.116346)
(0.000175861 -0.000113294 0.11624)
(0.000117475 -0.000116832 0.116179)
(6.94803e-05 -0.000116019 0.116137)
(2.1164e-05 -0.000116337 0.116121)
(-0.00694445 0.00184727 0.0248357)
(-0.000170549 0.000263959 0.0960126)
(0.000993531 -6.06928e-05 0.120749)
(0.000815029 -5.32736e-05 0.118824)
(0.000791426 -4.45079e-05 0.1176)
(0.000584455 -0.000121447 0.117306)
(0.00050449 -0.000125352 0.116984)
(0.000390568 -0.000163359 0.116746)
(0.00031054 -0.000157444 0.116542)
(0.000232657 -0.000172978 0.11641)
(0.000168786 -0.000168346 0.116303)
(0.000113976 -0.000175424 0.116241)
(6.69324e-05 -0.000170176 0.116195)
(2.05976e-05 -0.000172159 0.116177)
(-0.00582045 -0.000304438 0.0203839)
(4.03552e-05 8.27238e-05 0.0973941)
(0.000974109 -8.53973e-05 0.121929)
(0.000830871 -0.00011019 0.11921)
(0.00077539 -0.000135674 0.117626)
(0.000565987 -0.000156885 0.117432)
(0.000516691 -0.000203162 0.11711)
(0.000380769 -0.00021043 0.116878)
(0.000317107 -0.000224237 0.116659)
(0.000229076 -0.000228817 0.116528)
(0.000173423 -0.00023193 0.11641)
(0.000115626 -0.000239343 0.116347)
(7.27098e-05 -0.000237895 0.11629)
(1.9515e-05 -0.000241197 0.116271)
(-0.00214657 0.000246188 0.00865264)
(8.31662e-05 0.000651088 0.0805099)
(0.000920614 -0.000187822 0.119276)
(0.000690052 -2.27621e-05 0.120298)
(0.000693659 -0.000164334 0.117838)
(0.000518639 -0.000213108 0.117432)
(0.000459551 -0.000230565 0.117212)
(0.000371831 -0.000283833 0.117007)
(0.000292074 -0.000291477 0.116788)
(0.000224963 -0.000316513 0.116659)
(0.000158413 -0.00031016 0.116542)
(0.000108064 -0.000327175 0.116487)
(6.50757e-05 -0.000310252 0.116428)
(1.74651e-05 -0.000315293 0.116412)
(-0.00979827 0.00170935 0.0229535)
(-0.00033864 -5.33423e-05 0.094105)
(0.000875087 -8.97506e-05 0.120195)
(0.00056345 -0.000407126 0.118936)
(0.000481829 -0.000236643 0.117652)
(0.000446659 -0.000349461 0.117347)
(0.000321786 -0.000321723 0.117228)
(0.000284435 -0.000371955 0.117008)
(0.00021048 -0.000380112 0.116879)
(0.00016322 -0.000389656 0.116746)
(0.000115849 -0.000411311 0.116696)
(8.47108e-05 -0.000408589 0.116615)
(1.40547e-05 -0.000417782 0.116598)
(-0.00350001 0.000741223 0.00688867)
(2.37e-05 0.00047695 0.0811076)
(0.00053166 -0.000606289 0.118732)
(0.00059175 -0.000113849 0.121719)
(0.000550806 -0.000518008 0.118699)
(0.000363995 -0.000363236 0.117515)
(0.000349336 -0.00044485 0.117348)
(0.000231738 -0.000458901 0.117213)
(0.000204917 -0.000515839 0.117111)
(0.000126232 -0.000504876 0.116984)
(8.88624e-05 -0.000551373 0.116957)
(5.86184e-05 -0.000495652 0.116879)
(8.67894e-06 -0.000509066 0.116873)
(-0.00770948 0.00241477 0.0183382)
(-0.000378925 0.000471302 0.0761195)
(0.000631783 -0.000529467 0.116793)
(0.000252259 -0.000251608 0.121745)
(0.000519893 -0.000552552 0.118701)
(0.000236563 -0.000483185 0.117653)
(0.000212607 -0.00052207 0.117433)
(0.000155816 -0.000567316 0.117431)
(0.000119886 -0.000584063 0.117306)
(0.000120728 -0.000640183 0.117321)
(0.000124716 -0.000642574 0.11717)
(7.36116e-07 -0.000654897 0.117177)
(-0.00118605 -0.000864944 0.00599741)
(-0.00851949 0.00226426 0.0313515)
(-0.00026401 0.000266559 0.075352)
(0.000528167 -0.000628629 0.116801)
(0.000113228 -0.000591365 0.121726)
(0.0004054 -0.000559514 0.118936)
(0.000165093 -0.000694664 0.117842)
(0.000140912 -0.000776715 0.117626)
(4.64167e-05 -0.000795625 0.117598)
(2.73172e-05 -0.00089869 0.117727)
(3.93542e-05 -0.000738925 0.117567)
(-3.91464e-06 -0.00074774 0.117585)
(0.00250443 -0.00593445 0.00273587)
(-0.00830344 0.00210307 0.0321886)
(-0.000470257 0.000376483 0.0761394)
(0.000611884 -0.000538262 0.118741)
(8.99249e-05 -0.000889658 0.120188)
(1.7374e-05 -0.000706614 0.12029)
(0.000106189 -0.000842255 0.119199)
(4.78511e-05 -0.000820206 0.118816)
(0.000213418 -0.000917638 0.118879)
(0.000279247 -0.00102318 0.118121)
(-1.0918e-05 -0.00101451 0.117782)
(0.00254409 -0.00622662 0.00276511)
(-0.00766313 0.00237262 0.0234018)
(-0.000487025 -2.29589e-05 0.0811222)
(4.792e-05 0.000364245 0.0941031)
(0.000201519 -0.000934273 0.119306)
(0.00010819 -0.000997882 0.121934)
(7.51695e-05 -0.00102762 0.120732)
(-0.000148534 -0.00112291 0.11978)
(-6.94815e-05 -0.000917909 0.120924)
(-1.37117e-05 -0.00100191 0.119498)
(-0.00457277 0.00226773 0.0208842)
(-0.00343774 0.000650879 0.0273945)
(-0.000660648 -9.8584e-05 0.0804222)
(-9.52532e-05 -6.87037e-05 0.0973405)
(-0.000256865 0.00015472 0.0959859)
(8.29769e-06 0.000147183 0.0952506)
(0.000261226 -0.00105576 0.119674)
(-0.000167563 -0.00110642 0.122426)
(-0.00102415 -0.00262106 0.0056139)
(-0.00675148 0.00314526 0.023943)
(0.00104892 0.00363961 0.023575)
(0.000159763 0.0028151 0.0276269)
(-0.00449548 0.000696295 0.0237401)
(-0.000640232 -0.000136672 0.078693)
(0.000128818 -0.000325614 0.0986353)
(-0.00105709 0.000429109 0.00586248)
(-0.000732237 0.000603176 0.00469576)
(-0.00104377 -0.0007531 0.00191175)
(-0.00617017 0.00461394 0.0311414)
(-0.00164273 0.00346599 0.0253979)
(-0.00185438 2.41079e-05 0.00829815)
(-0.000110216 -0.000289602 0.098601)
(0.000421957 3.0111e-05 0.122462)
(0.000211322 -2.07207e-05 0.119679)
(0.00022206 1.02245e-07 0.117988)
(0.000145791 1.42007e-06 0.117696)
(0.000150906 1.99616e-06 0.117271)
(0.000121285 -3.10237e-06 0.11695)
(0.000102785 -2.9232e-06 0.116672)
(7.50551e-05 -5.0266e-06 0.116476)
(5.78636e-05 -4.40775e-06 0.116329)
(3.94943e-05 -5.30306e-06 0.116227)
(2.76585e-05 -4.93622e-06 0.116167)
(1.45618e-05 -5.20833e-06 0.116137)
(5.10134e-06 -5.22353e-06 0.11613)
(-0.00168822 -0.000455974 0.00810872)
(-0.000253434 0.000650985 0.0787694)
(0.000576914 -0.000306555 0.119819)
(0.000240192 9.92194e-05 0.121009)
(0.000255546 -0.000143582 0.118334)
(0.000148246 8.28766e-06 0.117692)
(0.000146498 -4.9813e-05 0.117271)
(0.000115836 -1.09878e-05 0.116958)
(0.000101177 -2.66281e-05 0.116689)
(7.37863e-05 -1.44568e-05 0.116493)
(5.80648e-05 -1.87913e-05 0.116348)
(3.93872e-05 -1.46737e-05 0.116245)
(2.76683e-05 -1.58173e-05 0.116184)
(1.45371e-05 -1.45703e-05 0.116149)
(5.61313e-06 -1.41119e-05 0.116137)
(-0.00976919 0.00268849 0.0335179)
(-0.000534586 -8.39359e-05 0.0953204)
(0.000529262 0.000178856 0.11971)
(0.000154099 -0.00010142 0.118996)
(0.000242911 6.84329e-06 0.117839)
(0.000134374 -4.61764e-05 0.117415)
(0.000144465 -2.45163e-05 0.117033)
(9.88431e-05 -3.26839e-05 0.116771)
(8.28506e-05 -2.76026e-05 0.116552)
(5.77006e-05 -2.84186e-05 0.116407)
(4.24893e-05 -2.76268e-05 0.116295)
(2.77715e-05 -2.74803e-05 0.11623)
(1.62675e-05 -2.73567e-05 0.116185)
(4.97658e-06 -2.67379e-05 0.116168)
(-0.00629323 0.00155402 0.0258968)
(-0.00059855 0.000210361 0.0960228)
(0.000491187 -4.98621e-05 0.120655)
(0.000111768 1.44306e-05 0.118963)
(0.000205767 -5.45517e-06 0.117727)
(0.000122086 -3.82423e-05 0.117396)
(0.000130314 -3.1605e-05 0.11706)
(9.73023e-05 -4.48662e-05 0.11682)
(7.78289e-05 -3.74212e-05 0.116609)
(5.80927e-05 -4.37422e-05 0.116473)
(4.03516e-05 -4.01049e-05 0.11636)
(2.79391e-05 -4.23424e-05 0.116296)
(1.52712e-05 -3.93175e-05 0.116246)
(5.44665e-06 -3.97717e-05 0.116227)
(-0.0051978 -0.000449635 0.0212402)
(-0.000342166 4.08334e-05 0.0973382)
(0.000418128 -0.000108907 0.121894)
(0.000152927 -2.0859e-05 0.119362)
(0.000189757 -5.73944e-05 0.117751)
(0.000120337 -3.75922e-05 0.117514)
(0.0001403 -6.66153e-05 0.117183)
(9.18854e-05 -5.19907e-05 0.116957)
(8.34563e-05 -5.99004e-05 0.116731)
(5.49905e-05 -5.47665e-05 0.116598)
(4.38916e-05 -5.76095e-05 0.116473)
(2.85305e-05 -5.73245e-05 0.116407)
(1.8813e-05 -5.74971e-05 0.116348)
(4.63554e-06 -5.78682e-05 0.116328)
(-0.00229715 0.000194681 0.00880794)
(-0.000164441 0.000593089 0.0805527)
(0.000540876 -0.000272992 0.119396)
(0.000146962 5.13313e-05 0.120492)
(0.00019151 -3.66526e-05 0.117985)
(0.00012531 -5.72685e-05 0.117515)
(0.000120281 -5.4234e-05 0.117277)
(0.000103649 -7.98464e-05 0.11708)
(7.45609e-05 -7.40673e-05 0.116862)
(6.03783e-05 -8.3145e-05 0.116732)
(3.7815e-05 -7.77462e-05 0.11661)
(2.79946e-05 -8.30345e-05 0.116552)
(1.46739e-05 -7.42141e-05 0.116492)
(5.07269e-06 -7.57632e-05 0.116475)
(-0.00916008 0.00130976 0.0256543)
(-0.000669256 -0.000107193 0.0941096)
(0.000430899 0.000104044 0.120249)
(9.51132e-05 -0.000166757 0.119115)
(0.000105464 -1.42214e-06 0.117755)
(0.000121633 -0.000108958 0.117423)
(7.29422e-05 -7.30794e-05 0.117299)
(8.01687e-05 -0.000103786 0.117081)
(5.18086e-05 -9.1817e-05 0.116958)
(4.45228e-05 -9.69911e-05 0.116821)
(3.22876e-05 -9.87139e-05 0.116771)
(2.61244e-05 -0.000100371 0.116689)
(2.68128e-06 -0.000102716 0.116671)
(-0.00347796 0.000500866 0.00717725)
(-9.60919e-05 0.000600527 0.081315)
(0.000317974 -0.00062582 0.11871)
(0.000136359 0.000186098 0.121855)
(0.00017705 -0.0001936 0.118868)
(4.73068e-05 -4.72126e-05 0.117613)
(0.000108824 -0.000120759 0.117425)
(5.49583e-05 -0.000120275 0.11728)
(6.75646e-05 -0.000140318 0.117185)
(3.20791e-05 -0.000131225 0.117061)
(2.54171e-05 -0.00014519 0.117033)
(1.11495e-05 -0.000117163 0.116957)
(3.03845e-06 -0.000123121 0.116948)
(-0.00710128 0.00195967 0.0208346)
(-0.000643327 0.000598128 0.0761691)
(0.000412732 -0.000410773 0.116879)
(-0.00013739 0.000137521 0.121889)
(0.000194402 -0.000178236 0.118871)
(1.08364e-06 -0.00010739 0.117758)
(5.66313e-05 -0.000127113 0.117516)
(3.64998e-05 -0.000121164 0.117515)
(3.7213e-05 -0.000121834 0.117397)
(4.53991e-05 -0.000134806 0.117416)
(4.82349e-05 -0.00014561 0.117272)
(-2.65946e-06 -0.000151802 0.117271)
(-0.00129077 -0.000775529 0.00589679)
(-0.00812319 0.00167439 0.0343469)
(-0.000455309 0.000457442 0.0753655)
(0.000409766 -0.000410075 0.116888)
(-0.000188046 -0.000136255 0.121864)
(0.000165582 -9.43236e-05 0.11912)
(3.78535e-05 -0.00019474 0.117991)
(6.00316e-05 -0.000192159 0.117754)
(6.09555e-06 -0.000209587 0.117728)
(-5.40481e-06 -0.000246457 0.11784)
(-8.55802e-06 -0.000152187 0.117689)
(-1.83775e-06 -0.000151166 0.117693)
(0.0025046 -0.00617455 0.00304622)
(-0.00787511 0.00159367 0.0350943)
(-0.00059808 0.000642931 0.0761939)
(0.000627299 -0.000320218 0.11872)
(-0.000107669 -0.000442007 0.120249)
(-5.70134e-05 -0.000151623 0.120492)
(1.77865e-05 -0.000158076 0.119363)
(-1.76296e-05 -0.000116628 0.118966)
(9.98066e-05 -0.000159672 0.119002)
(0.00014005 -0.000257493 0.11834)
(-1.33536e-06 -0.000228629 0.117994)
(0.00252498 -0.00649141 0.00311551)
(-0.0072334 0.00178838 0.0261077)
(-0.000604271 9.44686e-05 0.0813231)
(0.000108835 0.000670791 0.0941259)
(0.000281404 -0.000556854 0.11942)
(0.000112122 -0.000434536 0.121904)
(5.04021e-05 -0.000511507 0.120651)
(-0.000175366 -0.000546641 0.119707)
(-0.000100597 -0.000246398 0.120999)
(1.87992e-05 -0.000215652 0.119669)
(-0.00404899 0.00177408 0.023018)
(-0.00329203 7.06033e-05 0.0305796)
(-0.000593995 0.000183137 0.0805849)
(-3.1585e-05 0.000338632 0.0973571)
(-0.00020471 0.000576815 0.0960369)
(9.70573e-05 0.000516591 0.0953278)
(0.000317511 -0.000601992 0.119852)
(-2.99838e-05 -0.00044062 0.122499)
(-0.00095474 -0.00281147 0.00603314)
(-0.00597093 0.00252828 0.0262909)
(0.000980932 0.00294182 0.0259238)
(8.89808e-05 0.00224204 0.0301656)
(-0.00426958 0.000323668 0.0266724)
(-0.000650544 0.000284607 0.0788153)
(0.000291049 0.000149421 0.0986421)
(-0.00103298 0.000498916 0.00576612)
(-0.000742303 0.000440851 0.00515211)
(-0.00109763 -0.000847328 0.00225037)
(-0.0057708 0.00374632 0.0336496)
(-0.00156838 0.00255237 0.027893)
(-0.00189966 2.38903e-05 0.00833251)
(-0.000112895 -0.000330359 0.0986502)
(-0.00032305 5.67459e-05 0.122465)
(-0.000484311 -3.44554e-05 0.119712)
(-0.00047324 3.17555e-06 0.117984)
(-0.000393801 -5.03077e-06 0.117649)
(-0.000329422 4.94438e-06 0.117244)
(-0.000263053 2.11846e-06 0.116928)
(-0.000212599 7.91085e-06 0.116659)
(-0.000167045 7.19994e-06 0.116463)
(-0.000127417 1.0309e-05 0.116318)
(-9.47867e-05 1.00236e-05 0.116217)
(-6.38747e-05 1.15123e-05 0.116158)
(-3.86201e-05 1.12293e-05 0.116127)
(-1.20972e-05 1.17894e-05 0.116121)
(-0.0017248 -0.000457193 0.00812595)
(-0.000315772 0.000434098 0.0789139)
(-0.000122284 -5.92024e-05 0.119838)
(-0.000501456 0.000107327 0.121007)
(-0.000443212 -1.36139e-05 0.118357)
(-0.000395696 4.13211e-05 0.117655)
(-0.000323641 2.33773e-05 0.117248)
(-0.000260694 3.51578e-05 0.116937)
(-0.000207436 3.18356e-05 0.116675)
(-0.000164589 3.59458e-05 0.11648)
(-0.000124319 3.57425e-05 0.116337)
(-9.3432e-05 3.72612e-05 0.116235)
(-6.251e-05 3.78002e-05 0.116175)
(-3.82667e-05 3.81458e-05 0.116139)
(-1.11929e-05 3.86322e-05 0.116128)
(-0.0097762 0.00254258 0.0341266)
(-0.000734277 4.35347e-05 0.0954624)
(-0.000244151 0.00011152 0.119605)
(-0.000516071 -4.46889e-05 0.119026)
(-0.000359968 1.8895e-05 0.117802)
(-0.000337384 2.42998e-05 0.117395)
(-0.000255665 3.82228e-05 0.11701)
(-0.000211983 5.00603e-05 0.116758)
(-0.00016304 5.22045e-05 0.116538)
(-0.000126055 5.90374e-05 0.116396)
(-9.27318e-05 5.90371e-05 0.116284)
(-6.29892e-05 6.30574e-05 0.11622)
(-3.77883e-05 6.25855e-05 0.116176)
(-1.15389e-05 6.42575e-05 0.116158)
(-0.0061967 0.00138935 0.0262273)
(-0.000637132 0.000132332 0.0961168)
(-0.000127225 -0.000115448 0.12055)
(-0.000451095 1.21926e-05 0.118999)
(-0.000319467 1.92715e-05 0.117694)
(-0.000303998 4.49789e-05 0.117372)
(-0.000236413 6.5345e-05 0.117038)
(-0.000193932 7.43322e-05 0.116806)
(-0.000155522 8.2995e-05 0.116596)
(-0.000117398 8.6626e-05 0.116461)
(-8.94104e-05 8.95205e-05 0.116348)
(-5.8965e-05 9.27148e-05 0.116285)
(-3.70676e-05 9.34349e-05 0.116236)
(-9.95915e-06 9.47195e-05 0.116217)
(-0.00511686 -0.000516752 0.021427)
(-0.000280158 -1.29822e-05 0.0974358)
(-0.0001727 -7.75464e-05 0.121843)
(-0.000372213 2.04586e-05 0.119406)
(-0.000322249 1.19729e-05 0.117715)
(-0.000289128 8.27978e-05 0.117487)
(-0.000228129 7.40283e-05 0.117162)
(-0.000195362 0.000108012 0.116946)
(-0.000150765 0.000104357 0.116719)
(-0.000119445 0.000119506 0.116587)
(-8.66441e-05 0.000117615 0.116461)
(-5.90804e-05 0.000126113 0.116397)
(-3.57811e-05 0.000124614 0.116338)
(-1.03708e-05 0.000127379 0.116318)
(-0.0023596 0.000196379 0.00884516)
(-0.000110872 0.000275976 0.0806296)
(0.00010489 -0.000195305 0.119411)
(-0.000331729 5.4142e-05 0.120544)
(-0.000249119 6.67793e-05 0.117963)
(-0.000239319 8.01647e-05 0.117486)
(-0.000212584 0.000124174 0.117255)
(-0.000164745 0.000126086 0.117068)
(-0.000144244 0.000144433 0.11685)
(-0.000104151 0.000150869 0.11672)
(-8.28949e-05 0.00015538 0.116596)
(-5.20536e-05 0.000162768 0.116539)
(-3.58462e-05 0.000164082 0.116479)
(-7.37013e-06 0.00016644 0.116462)
(-0.00908406 0.00121772 0.0261313)
(-0.000706466 2.94498e-05 0.0941277)
(-6.18392e-06 0.000211496 0.120228)
(-0.000268076 -2.63136e-06 0.119123)
(-0.000229701 0.00018727 0.117729)
(-0.00018195 0.000113788 0.117398)
(-0.000175476 0.000175452 0.117282)
(-0.000125985 0.000164716 0.117069)
(-0.000108296 0.000195349 0.116947)
(-7.47337e-05 0.000194036 0.116807)
(-5.04698e-05 0.000212008 0.116758)
(-3.22096e-05 0.000207705 0.116675)
(-8.35819e-06 0.000212586 0.116659)
(-0.00345906 0.000447865 0.00726856)
(1.74371e-05 0.000448919 0.0813728)
(1.50954e-05 -0.000538173 0.118643)
(-0.00018906 0.000369915 0.121898)
(-0.000115161 4.87526e-05 0.118875)
(-0.000223698 0.000223981 0.117593)
(-0.000113809 0.000182865 0.117401)
(-0.000123945 0.000212482 0.117257)
(-7.36713e-05 0.000228173 0.117163)
(-6.51989e-05 0.000235696 0.117038)
(-3.79023e-05 0.000255105 0.117011)
(-3.50982e-05 0.000259567 0.116936)
(-2.57826e-06 0.000261573 0.116928)
(-0.00708563 0.00189025 0.021257)
(-0.00064996 0.000500196 0.0762532)
(0.000201649 -0.000288727 0.116821)
(-0.000382039 0.000382792 0.121928)
(-4.79143e-05 0.000115443 0.118879)
(-0.000187706 0.000229167 0.117733)
(-8.08513e-05 0.000238808 0.117488)
(-8.35973e-05 0.000288818 0.117489)
(-4.59128e-05 0.000303986 0.117373)
(-2.50692e-05 0.000337031 0.117397)
(-2.46477e-05 0.000323655 0.117249)
(-5.89285e-06 0.000328032 0.117245)
(-0.00134428 -0.00074841 0.00587745)
(-0.00809042 0.00158183 0.0349196)
(-0.000400192 0.000403521 0.075462)
(0.000289261 -0.000197998 0.116832)
(-0.000371154 0.000189915 0.121908)
(1.49675e-06 0.000269394 0.119132)
(-6.64419e-05 0.000247122 0.117968)
(-1.10465e-05 0.000321311 0.117718)
(-1.90763e-05 0.000317957 0.117695)
(-1.84422e-05 0.000358647 0.117805)
(-4.22207e-05 0.00039335 0.117654)
(4.05477e-06 0.000390393 0.117648)
(0.00253621 -0.00627158 0.0031089)
(-0.00781909 0.00154178 0.035657)
(-0.00049978 0.000650647 0.0762806)
(0.000537782 -1.52259e-05 0.118657)
(-0.000215561 1.3232e-06 0.120234)
(-5.86201e-05 0.000329272 0.120548)
(-2.18122e-05 0.000369868 0.119412)
(-1.41512e-05 0.000450024 0.119005)
(4.28532e-05 0.000515396 0.119033)
(1.03001e-05 0.000441124 0.118362)
(-4.83162e-06 0.000468055 0.117988)
(0.00255731 -0.00659679 0.00318735)
(-0.00722894 0.00171998 0.0266205)
(-0.00045103 -1.78168e-05 0.0813793)
(-3.18288e-05 0.000704288 0.0941377)
(0.000195539 -0.000111934 0.119417)
(7.67923e-05 0.000167196 0.121848)
(0.000114977 0.000122814 0.120554)
(-0.000113289 0.000241223 0.119612)
(-0.0001127 0.000498395 0.121008)
(3.15287e-05 0.000478832 0.119715)
(-0.00397841 0.00168671 0.0233969)
(-0.00327935 9.80442e-05 0.0312057)
(-0.000276805 0.000114714 0.0806496)
(1.49143e-05 0.000280103 0.0974482)
(-0.000133007 0.000632804 0.0961242)
(-4.47047e-05 0.000732609 0.0954702)
(5.67438e-05 0.000111071 0.119846)
(-6.12415e-05 0.00031002 0.12247)
(-0.000923624 -0.00287511 0.00613823)
(-0.00584767 0.00241418 0.0267983)
(0.00100462 0.00285946 0.0265841)
(0.000119548 0.00218345 0.0308147)
(-0.00426589 0.00036187 0.0272853)
(-0.000433461 0.000318914 0.0789445)
(0.000325469 0.00011616 0.0986843)
(-0.00102703 0.000538495 0.00578051)
(-0.000741374 0.000391012 0.00526602)
(-0.00108132 -0.000910736 0.00235788)
(-0.00571121 0.00357714 0.034264)
(-0.00154623 0.00240079 0.0286149)
(-0.00190857 2.29483e-05 0.00834914)
(-0.000215156 -0.000280466 0.0989897)
(-0.00116135 0.000117353 0.122554)
(-0.00113544 -4.91266e-05 0.119742)
(-0.00115977 5.44471e-06 0.117906)
(-0.000939393 -1.30536e-05 0.117551)
(-0.00081427 8.82299e-06 0.117148)
(-0.000646954 7.45255e-06 0.116836)
(-0.00052283 1.89091e-05 0.116573)
(-0.000404425 1.94498e-05 0.116383)
(-0.000308407 2.4844e-05 0.116245)
(-0.000226197 2.4974e-05 0.116149)
(-0.000153249 2.75506e-05 0.116093)
(-9.06436e-05 2.73925e-05 0.116065)
(-2.89184e-05 2.85592e-05 0.11606)
(-0.00172994 -0.000457562 0.00814605)
(-0.000485795 0.000346012 0.0793538)
(-0.000997962 0.000323769 0.119954)
(-0.00122757 7.08586e-05 0.121062)
(-0.00113206 0.00012356 0.118299)
(-0.000942112 7.10286e-05 0.117562)
(-0.000795566 0.000102536 0.117154)
(-0.000636968 8.14633e-05 0.116844)
(-0.000510478 9.06341e-05 0.11659)
(-0.000398343 8.58483e-05 0.116399)
(-0.000302557 8.96455e-05 0.116263)
(-0.00022346 8.83612e-05 0.116166)
(-0.000150678 9.05626e-05 0.116109)
(-8.99242e-05 8.97878e-05 0.116076)
(-2.75559e-05 9.04701e-05 0.116066)
(-0.00989516 0.00242868 0.0343576)
(-0.00111605 0.000215642 0.0958883)
(-0.00110621 -2.86094e-05 0.119688)
(-0.00115248 8.26858e-06 0.119069)
(-0.000973067 3.33143e-05 0.117723)
(-0.000807085 0.000101263 0.117317)
(-0.000659328 0.000102235 0.11692)
(-0.000518236 0.000132378 0.116673)
(-0.000405351 0.000130954 0.116457)
(-0.000305902 0.000145028 0.11632)
(-0.0002253 0.000144079 0.116213)
(-0.000151826 0.000151791 0.116153)
(-9.07372e-05 0.000150596 0.11611)
(-2.77477e-05 0.000153316 0.116094)
(-0.00626535 0.00127812 0.0263975)
(-0.000831247 2.85922e-05 0.0963517)
(-0.00082263 -0.000210198 0.12059)
(-0.000985813 9.92997e-06 0.119002)
(-0.000855267 5.88438e-05 0.117604)
(-0.000730572 0.000136237 0.117288)
(-0.000606796 0.000164425 0.116947)
(-0.000481518 0.000192335 0.11672)
(-0.000385556 0.000201688 0.116512)
(-0.000289414 0.000215 0.116382)
(-0.000216723 0.000216698 0.116274)
(-0.000144167 0.000225165 0.116214)
(-8.83955e-05 0.000223311 0.116167)
(-2.50773e-05 0.000226211 0.116149)
(-0.00514955 -0.000557442 0.02155)
(-0.000364748 -7.63381e-05 0.0977118)
(-0.000850943 -6.43268e-05 0.121902)
(-0.000877847 6.66492e-05 0.119434)
(-0.00085726 0.000100992 0.117628)
(-0.000705278 0.000216508 0.117407)
(-0.000604401 0.000220794 0.117071)
(-0.000480804 0.000267726 0.116858)
(-0.000382442 0.000266632 0.116632)
(-0.000290837 0.000290804 0.116504)
(-0.000215139 0.000289395 0.116382)
(-0.000145192 0.00030577 0.116321)
(-8.96665e-05 0.000302713 0.116264)
(-2.48848e-05 0.000308471 0.116245)
(-0.00237115 0.000192801 0.00886552)
(-0.000180646 2.79744e-05 0.0807727)
(-0.000402766 -0.000116131 0.119443)
(-0.000794294 2.0634e-05 0.120575)
(-0.000714741 0.000182856 0.117887)
(-0.000615976 0.000230175 0.117409)
(-0.000557538 0.000315624 0.11717)
(-0.000435837 0.000335418 0.116981)
(-0.000362367 0.000362444 0.116763)
(-0.000266663 0.000382476 0.116633)
(-0.000201817 0.000385279 0.116513)
(-0.000130864 0.000405119 0.116457)
(-8.56826e-05 0.000397984 0.116399)
(-1.94739e-05 0.000403946 0.116383)
(-0.00910752 0.00114662 0.0262248)
(-0.000846657 0.000164738 0.0941678)
(-0.000433837 0.000265417 0.120286)
(-0.000631542 0.000170546 0.119083)
(-0.000578822 0.0003832 0.117663)
(-0.00050152 0.000357506 0.117316)
(-0.00043444 0.000434678 0.117198)
(-0.000335406 0.000435904 0.116983)
(-0.000268138 0.000480784 0.116859)
(-0.000192749 0.000481534 0.11672)
(-0.000132624 0.000518298 0.116673)
(-9.09017e-05 0.000510439 0.11659)
(-1.92304e-05 0.000522402 0.116574)
(-0.00345255 0.000433966 0.007278)
(-6.85965e-06 0.000397898 0.081448)
(-0.000310511 -0.000400671 0.118703)
(-0.000508827 0.000518903 0.121942)
(-0.000424444 0.000297654 0.11883)
(-0.000507561 0.000508219 0.117531)
(-0.000357462 0.000502672 0.117319)
(-0.000315822 0.00055755 0.117173)
(-0.00022089 0.000604692 0.117073)
(-0.000164486 0.000606371 0.116947)
(-0.000102208 0.000658932 0.116921)
(-8.17923e-05 0.000635887 0.116844)
(-7.99029e-06 0.000645443 0.116836)
(-0.00710281 0.00186628 0.0212966)
(-0.000715351 0.000471868 0.0763501)
(-2.61816e-05 -0.000138265 0.116876)
(-0.000592221 0.00059575 0.121968)
(-0.000296549 0.000426437 0.118833)
(-0.000383612 0.000579632 0.117668)
(-0.000230943 0.000615995 0.117412)
(-0.000217305 0.000705305 0.117409)
(-0.000137318 0.000730395 0.117289)
(-0.000102158 0.000806743 0.117318)
(-0.00010392 0.000795139 0.117155)
(-9.73405e-06 0.000812994 0.117148)
(-0.00135455 -0.000753992 0.0058773)
(-0.00810058 0.00155005 0.035011)
(-0.000423978 0.000429568 0.0755486)
(0.000140544 3.20894e-05 0.116888)
(-0.000521075 0.000510844 0.121953)
(-0.00017252 0.000633983 0.119092)
(-0.000183616 0.000713821 0.117892)
(-0.000101009 0.000857383 0.117631)
(-5.90776e-05 0.000854154 0.117605)
(-3.34157e-05 0.000972208 0.117726)
(-7.22518e-05 0.000940194 0.117562)
(1.20736e-05 0.000937319 0.117551)
(0.00254192 -0.00628799 0.0031154)
(-0.00781197 0.00154341 0.035749)
(-0.000470659 0.000715567 0.07638)
(0.00039907 0.000311146 0.118719)
(-0.000269038 0.000431874 0.120295)
(-2.3953e-05 0.000793027 0.12058)
(-6.75422e-05 0.000876821 0.119439)
(-1.17891e-05 0.00098555 0.119006)
(-9.76515e-06 0.00115228 0.119074)
(-0.000126104 0.00113119 0.118302)
(-6.79722e-06 0.00115747 0.117909)
(0.00256653 -0.00661593 0.00319578)
(-0.00722002 0.00171971 0.0267007)
(-0.000399444 6.15117e-06 0.0814553)
(-0.000167879 0.000844317 0.0941759)
(0.000115046 0.000399132 0.119447)
(6.37189e-05 0.000847912 0.121907)
(0.000209856 0.000821903 0.120594)
(2.76e-05 0.00110684 0.119694)
(-7.44729e-05 0.00122678 0.121066)
(4.69429e-05 0.00113232 0.119746)
(-0.003978 0.00167026 0.0234323)
(-0.00323179 0.000182735 0.0313053)
(-2.91357e-05 0.000180201 0.0807776)
(7.58014e-05 0.000364199 0.0977162)
(-2.93286e-05 0.000832077 0.0963559)
(-0.000217508 0.0011185 0.0958953)
(-0.000329505 0.000995616 0.119961)
(-0.000120704 0.00115643 0.12256)
(-0.000915969 -0.00288599 0.00615054)
(-0.00582866 0.00240549 0.0268797)
(0.00101022 0.0028761 0.0267358)
(0.000141971 0.00225767 0.0309886)
(-0.00420072 0.000421255 0.0274935)
(-0.000349144 0.000488912 0.0793651)
(0.000274205 0.000214712 0.0989993)
(-0.0010116 0.000552656 0.00579363)
(-0.000737758 0.000385102 0.00529142)
(-0.00108385 -0.000940724 0.00238357)
(-0.0057717 0.00355627 0.0344906)
(-0.0015636 0.00237419 0.0288185)
(-0.00191799 2.27117e-05 0.00838533)
(-0.000459503 -4.87134e-05 0.0996877)
(-0.00232659 0.000211613 0.122624)
(-0.00191246 -5.43695e-05 0.119751)
(-0.00195365 1.07411e-05 0.117753)
(-0.00152753 -1.91805e-05 0.117392)
(-0.00131589 1.43507e-05 0.116972)
(-0.00102672 1.34403e-05 0.116669)
(-0.000823408 3.01276e-05 0.116415)
(-0.000631749 3.14881e-05 0.116238)
(-0.000480663 3.8896e-05 0.116111)
(-0.000350799 3.93967e-05 0.116024)
(-0.000237624 4.2836e-05 0.115975)
(-0.000139573 4.27584e-05 0.115953)
(-4.44628e-05 4.41717e-05 0.11595)
(-0.00173885 -0.000452825 0.00818825)
(-0.000860116 0.000478571 0.080384)
(-0.00237065 0.00103715 0.120082)
(-0.00210937 8.97427e-05 0.121101)
(-0.0019341 0.000344952 0.118157)
(-0.00153074 0.000119633 0.117404)
(-0.00128471 0.000196572 0.116981)
(-0.0010108 0.000130965 0.116677)
(-0.000805099 0.000150164 0.116432)
(-0.000622916 0.000134408 0.116254)
(-0.000472461 0.000141363 0.116128)
(-0.00034678 0.000137036 0.11604)
(-0.000234004 0.000140699 0.115989)
(-0.000138583 0.000138599 0.115962)
(-4.29885e-05 0.00013946 0.115953)
(-0.0101349 0.00234799 0.0347282)
(-0.00193375 0.000522623 0.096843)
(-0.00234823 -0.000184323 0.119891)
(-0.00193493 0.000108779 0.119124)
(-0.00169358 6.00409e-05 0.117606)
(-0.00130667 0.00018992 0.11717)
(-0.00107304 0.000167567 0.116758)
(-0.000819812 0.000214235 0.116514)
(-0.000640629 0.000207509 0.116308)
(-0.000478072 0.000227587 0.11618)
(-0.000351484 0.000225159 0.116082)
(-0.000236067 0.000235981 0.116028)
(-0.000140814 0.000233871 0.115991)
(-4.307e-05 0.000237583 0.115976)
(-0.00649146 0.00113967 0.0267078)
(-0.0013366 -0.00017071 0.0968117)
(-0.00176935 -0.000338803 0.120632)
(-0.0016227 7.56261e-06 0.118962)
(-0.00146483 0.000104772 0.117457)
(-0.00118034 0.000230365 0.117135)
(-0.000986288 0.000261573 0.116782)
(-0.00076481 0.000307582 0.116558)
(-0.000609596 0.000316782 0.116359)
(-0.000454846 0.00033846 0.116237)
(-0.000338419 0.000338225 0.116138)
(-0.000225302 0.00035131 0.116083)
(-0.000136975 0.000346588 0.116041)
(-3.9465e-05 0.00035091 0.116025)
(-0.0053022 -0.000636732 0.0218099)
(-0.000667966 -0.000117426 0.0982754)
(-0.0018048 -4.6159e-05 0.121983)
(-0.00150149 0.000149319 0.119429)
(-0.00148931 0.000213196 0.117484)
(-0.00115199 0.000361168 0.117254)
(-0.00099487 0.000371351 0.116901)
(-0.000763938 0.000425766 0.116689)
(-0.000609638 0.000425691 0.11647)
(-0.000456644 0.000456506 0.116349)
(-0.000338638 0.000454709 0.116237)
(-0.000227679 0.000477923 0.116181)
(-0.000141186 0.000472572 0.116128)
(-3.87661e-05 0.000480726 0.116111)
(-0.00238806 0.000178789 0.00890874)
(-0.000386262 -0.000225784 0.0811615)
(-0.00113358 -2.10751e-06 0.119487)
(-0.00135054 2.466e-05 0.120568)
(-0.00127344 0.000338111 0.117755)
(-0.00102684 0.00040701 0.117265)
(-0.000921533 0.000519775 0.117008)
(-0.000709859 0.000547456 0.116811)
(-0.000578747 0.000578818 0.116597)
(-0.000425839 0.000609689 0.116471)
(-0.000316992 0.000609404 0.11636)
(-0.000207397 0.000640475 0.116308)
(-0.000134129 0.000622653 0.116254)
(-3.13772e-05 0.000631206 0.116239)
(-0.00917319 0.00104954 0.0263541)
(-0.00114143 0.000419467 0.0942849)
(-0.000975396 0.000354935 0.120354)
(-0.00110414 0.000424648 0.118992)
(-0.000980718 0.000625691 0.117543)
(-0.000856545 0.000637565 0.117159)
(-0.00070491 0.000705566 0.117028)
(-0.000547435 0.000710105 0.116812)
(-0.000426189 0.000764093 0.11669)
(-0.000307967 0.00076485 0.116559)
(-0.000214393 0.000819926 0.116514)
(-0.000150376 0.000804846 0.116432)
(-3.0405e-05 0.000822597 0.116416)
(-0.00345333 0.00041711 0.00727744)
(-0.000159083 0.000482531 0.08177)
(-0.000780236 -0.000153849 0.118845)
(-0.000925767 0.000780571 0.121993)
(-0.000817335 0.000640848 0.118753)
(-0.000844816 0.000846167 0.117418)
(-0.000637379 0.00085814 0.117162)
(-0.000520255 0.000921835 0.11701)
(-0.000371724 0.000995457 0.116903)