/*--------------------------------*- C++ -*----------------------------------*\
| =========                 |                                                 |
| \\      /  F ield         | OpenFOAM: The Open Source CFD Toolbox           |
|  \\    /   O peration     | Version:  2.1.1                                 |
|   \\  /    A nd           | Web:      www.OpenFOAM.org                      |
|    \\/     M anipulation  |                                                 |
\*---------------------------------------------------------------------------*/
FoamFile
{
    version     2.0;
    format      ascii;
    class       volScalarField;
    location    "0.045";
    object      p;
}
// * * * * * * * * * * * * * * * * * * * * * * * * * * * * * * * * * * * * * //

dimensions      [0 2 -2 0 0 0 0];

internalField   nonuniform List<scalar> 
163952
(
0.0416108
0.0410346
0.0362984
0.0311036
0.0299069
0.0272956
0.0267055
0.0263819
0.0366184
0.0322763
0.0272348
0.0247452
0.0235017
0.0227227
0.0224085
0.0222673
0.0336495
0.0279127
0.024409
0.0227694
0.0218569
0.0213192
0.0209806
0.0208003
0.0207149
0.0335192
0.0260205
0.0231862
0.0218397
0.0210845
0.0206058
0.0202863
0.0200748
0.0199487
0.0198852
0.0335205
0.0254785
0.0226619
0.0213838
0.0206691
0.0202054
0.0198815
0.0196508
0.0194914
0.0193909
0.0193386
0.0336497
0.0260205
0.0226619
0.0212403
0.0204779
0.0199892
0.0196439
0.0193901
0.0192036
0.0190716
0.0189861
0.0189407
0.0366181
0.0279126
0.0231861
0.0213838
0.0204779
0.0199196
0.0195315
0.0192449
0.0190294
0.0188689
0.0187541
0.0186787
0.0186382
0.0322764
0.024409
0.0218397
0.0206691
0.0199892
0.0195315
0.019198
0.0189464
0.0187553
0.0186121
0.018509
0.0184409
0.0184042
0.0362984
0.0272349
0.0227695
0.0210845
0.0202054
0.0196439
0.0192449
0.0189464
0.0187185
0.0185444
0.0184134
0.0183188
0.018256
0.018222
0.0311037
0.0247452
0.021857
0.0206058
0.0198816
0.0193901
0.0190294
0.0187553
0.0185444
0.0183825
0.0182604
0.0181719
0.018113
0.0180811
0.029907
0.0235017
0.0213192
0.0202863
0.0196508
0.0192036
0.0188689
0.0186121
0.0184134
0.0182604
0.0181447
0.0180606
0.0180045
0.0179741
0.0272956
0.0227228
0.0209806
0.0200748
0.0194914
0.0190716
0.0187541
0.0185091
0.0183188
0.018172
0.0180606
0.0179797
0.0179256
0.0178962
0.0416108
0.0267056
0.0224085
0.0208004
0.0199487
0.0193909
0.0189861
0.0186787
0.0184409
0.018256
0.018113
0.0180046
0.0179256
0.0178727
0.017844
0.0410346
0.0263819
0.0222673
0.0207149
0.0198852
0.0193386
0.0189407
0.0186382
0.0184042
0.018222
0.0180811
0.0179741
0.0178962
0.017844
0.0178157
0.0234369
0.0234937
0.0224314
0.0236407
0.0223718
0.0220577
0.0220129
0.0219921
0.0225361
0.02435
0.0220373
0.0217252
0.0214647
0.021274
0.0211993
0.0211475
0.0233142
0.0220891
0.0216712
0.0212594
0.0209188
0.0206402
0.0204556
0.0203595
0.0203101
0.0220586
0.0217683
0.0213312
0.0208901
0.0204974
0.0201863
0.0199502
0.0197906
0.0196985
0.0196543
0.0220593
0.0216391
0.0211471
0.0206433
0.0202165
0.0198741
0.0196147
0.0194235
0.0192918
0.0192116
0.0191731
0.0233144
0.0217685
0.0211471
0.0205633
0.0200746
0.0196967
0.0194077
0.0191899
0.0190293
0.018917
0.0188468
0.0188128
0.0225362
0.0220891
0.0213313
0.0206433
0.0200746
0.0196381
0.0193089
0.0190586
0.0188694
0.0187291
0.0186302
0.0185674
0.0185369
0.0243501
0.0216713
0.0208901
0.0202165
0.0196968
0.0193089
0.0190162
0.0187931
0.0186237
0.0184975
0.018408
0.0183507
0.0183228
0.0224315
0.0220373
0.0212595
0.0204975
0.0198741
0.0194077
0.0190586
0.0187931
0.0185896
0.0184342
0.018318
0.0182352
0.018182
0.0181559
0.0236407
0.0217252
0.0209188
0.0201864
0.0196147
0.0191899
0.0188694
0.0186237
0.0184342
0.0182888
0.0181798
0.0181018
0.0180516
0.018027
0.0223718
0.0214647
0.0206402
0.0199502
0.0194235
0.0190293
0.0187292
0.0184975
0.018318
0.0181798
0.0180758
0.0180013
0.0179532
0.0179296
0.0220578
0.021274
0.0204556
0.0197906
0.0192919
0.018917
0.0186303
0.018408
0.0182352
0.0181018
0.0180013
0.0179292
0.0178826
0.0178598
0.0234369
0.022013
0.0211993
0.0203595
0.0196985
0.0192117
0.0188468
0.0185674
0.0183507
0.018182
0.0180516
0.0179532
0.0178826
0.017837
0.0178145
0.0234937
0.0219921
0.0211476
0.0203101
0.0196543
0.0191731
0.0188128
0.0185369
0.0183228
0.0181559
0.018027
0.0179296
0.0178598
0.0178146
0.0177923
0.0197932
0.0198075
0.0198721
0.0202541
0.0204776
0.020362
0.0202545
0.020214
0.0198789
0.0207228
0.0202726
0.0201947
0.0200999
0.0200613
0.0200319
0.0200066
0.0200892
0.0202863
0.0201861
0.0200656
0.0199291
0.0197847
0.0196934
0.0196385
0.0196081
0.0204362
0.0202194
0.0200944
0.0199146
0.0197228
0.0195571
0.0194174
0.0193175
0.0192552
0.019224
0.020437
0.0201742
0.0200214
0.0197999
0.0195752
0.0193727
0.0192067
0.0190755
0.018981
0.0189211
0.0188916
0.0200892
0.0202196
0.0200213
0.019762
0.0194963
0.019263
0.0190667
0.0189085
0.018786
0.0186976
0.0186411
0.0186133
0.0198789
0.0202864
0.0200945
0.0197999
0.0194964
0.0192255
0.0189974
0.0188102
0.0186613
0.018547
0.0184646
0.0184115
0.0183854
0.0207228
0.0201861
0.0199147
0.0195752
0.019263
0.0189974
0.0187779
0.0186003
0.0184601
0.0183529
0.0182756
0.0182256
0.018201
0.0198722
0.0202726
0.0200657
0.0197228
0.0193727
0.0190667
0.0188102
0.0186003
0.0184315
0.0182987
0.0181974
0.0181242
0.0180768
0.0180535
0.0202541
0.0201947
0.0199291
0.0195571
0.0192067
0.0189086
0.0186613
0.0184601
0.0182987
0.0181719
0.0180751
0.0180051
0.0179597
0.0179374
0.0204776
0.0201
0.0197847
0.0194174
0.0190756
0.018786
0.0185471
0.0183529
0.0181974
0.0180751
0.0179817
0.0179142
0.0178703
0.0178487
0.020362
0.0200613
0.0196935
0.0193175
0.018981
0.0186976
0.0184646
0.0182756
0.0181242
0.0180051
0.0179142
0.0178483
0.0178056
0.0177845
0.0197932
0.0202545
0.020032
0.0196385
0.0192553
0.0189211
0.0186411
0.0184115
0.0182256
0.0180768
0.0179597
0.0178703
0.0178056
0.0177635
0.0177428
0.0198075
0.020214
0.0200066
0.0196081
0.019224
0.0188916
0.0186133
0.0183854
0.018201
0.0180535
0.0179374
0.0178487
0.0177845
0.0177428
0.0177222
0.0184459
0.0184563
0.0185629
0.01879
0.0191208
0.0191205
0.0190681
0.0190461
0.0185777
0.0190036
0.0190437
0.0190313
0.0190021
0.0190036
0.0190025
0.0189989
0.0187186
0.0190475
0.0190351
0.0190281
0.0189995
0.0189479
0.0189123
0.018887
0.0188728
0.0191508
0.0190508
0.0190449
0.0189948
0.0189288
0.0188647
0.0188021
0.0187523
0.0187178
0.0186995
0.0191514
0.0190312
0.0190262
0.0189633
0.0188741
0.0187809
0.0186953
0.0186209
0.018564
0.0185259
0.0185066
0.0187186
0.0190509
0.0190262
0.018952
0.0188435
0.0187276
0.0186175
0.0185206
0.0184404
0.0183801
0.0183401
0.0183202
0.0185778
0.0190475
0.0190449
0.0189634
0.0188436
0.018709
0.0185772
0.0184579
0.0183563
0.0182744
0.0182134
0.0181732
0.0181532
0.0190037
0.0190351
0.0189948
0.0188741
0.0187276
0.0185772
0.0184368
0.0183136
0.0182109
0.0181294
0.018069
0.0180293
0.0180096
0.0185629
0.0190437
0.0190281
0.0189288
0.018781
0.0186175
0.0184579
0.0183136
0.0181897
0.0180877
0.0180073
0.0179481
0.0179091
0.0178898
0.01879
0.0190313
0.0189996
0.0188647
0.0186953
0.0185207
0.0183563
0.0182109
0.0180877
0.0179869
0.017908
0.0178499
0.0178117
0.0177928
0.0191209
0.0190021
0.0189479
0.0188021
0.018621
0.0184404
0.0182744
0.0181294
0.0180073
0.017908
0.0178304
0.0177733
0.0177359
0.0177173
0.0191206
0.0190036
0.0189123
0.0187524
0.018564
0.0183801
0.0182134
0.018069
0.0179481
0.0178499
0.0177733
0.0177171
0.0176802
0.0176619
0.0184459
0.0190681
0.0190025
0.018887
0.0187178
0.0185259
0.0183402
0.0181732
0.0180293
0.0179091
0.0178117
0.0177359
0.0176802
0.0176436
0.0176256
0.0184563
0.0190462
0.018999
0.0188728
0.0186995
0.0185066
0.0183202
0.0181532
0.0180096
0.0178898
0.0177928
0.0177173
0.0176619
0.0176256
0.0176076
0.0177279
0.017736
0.0177887
0.0179373
0.0181537
0.0181973
0.0181877
0.0181861
0.0178135
0.0180459
0.0181538
0.0181729
0.0181785
0.018191
0.0181993
0.0182039
0.0179034
0.0181551
0.0181814
0.0182147
0.0182332
0.0182328
0.0182299
0.018224
0.0182197
0.0181876
0.0181771
0.0182211
0.0182346
0.018235
0.0182276
0.0182124
0.0181965
0.0181829
0.018175
0.0181879
0.0181718
0.018228
0.0182436
0.0182314
0.0182065
0.0181752
0.0181425
0.0181149
0.018095
0.0180845
0.0179034
0.0181772
0.0182279
0.0182462
0.0182285
0.0181896
0.0181422
0.0180936
0.0180492
0.0180137
0.0179892
0.0179766
0.0178136
0.0181551
0.0182212
0.0182436
0.0182285
0.0181836
0.0181236
0.01806
0.0180002
0.0179487
0.0179086
0.0178814
0.0178676
0.018046
0.0181815
0.0182346
0.0182314
0.0181897
0.0181236
0.0180483
0.0179741
0.0179075
0.0178519
0.0178093
0.0177806
0.0177661
0.0177887
0.0181538
0.0182147
0.018235
0.0182065
0.0181422
0.01806
0.0179741
0.0178934
0.0178229
0.0177649
0.017721
0.0176916
0.0176769
0.0179374
0.018173
0.0182332
0.0182276
0.0181752
0.0180936
0.0180002
0.0179075
0.0178229
0.0177501
0.0176909
0.0176464
0.0176167
0.0176018
0.0181537
0.0181785
0.0182328
0.0182125
0.0181425
0.0180492
0.0179487
0.0178519
0.0177649
0.017691
0.0176313
0.0175865
0.0175567
0.0175418
0.0181973
0.018191
0.0182299
0.0181965
0.0181149
0.0180137
0.0179086
0.0178093
0.017721
0.0176464
0.0175865
0.0175416
0.0175118
0.017497
0.0177279
0.0181877
0.0181993
0.018224
0.0181829
0.018095
0.0179892
0.0178814
0.0177806
0.0176916
0.0176167
0.0175567
0.0175118
0.0174821
0.0174672
0.0177361
0.0181862
0.0182039
0.0182198
0.018175
0.0180845
0.0179766
0.0178676
0.0177662
0.0176769
0.0176018
0.0175418
0.017497
0.0174672
0.0174524
0.0172176
0.0172244
0.0172367
0.0173295
0.0174546
0.017505
0.0175103
0.0175163
0.0172587
0.0174026
0.0174845
0.0175156
0.0175371
0.0175565
0.0175672
0.0175733
0.0173136
0.0174849
0.0175264
0.0175706
0.0176047
0.0176256
0.0176396
0.0176454
0.0176473
0.0174854
0.0175122
0.0175704
0.0176091
0.0176385
0.0176585
0.0176689
0.0176734
0.0176738
0.0176731
0.0174856
0.0175164
0.0175872
0.0176334
0.0176591
0.0176723
0.0176749
0.0176704
0.0176638
0.0176577
0.0176541
0.0173136
0.0175122
0.0175871
0.0176418
0.0176698
0.0176774
0.0176719
0.0176584
0.0176417
0.0176262
0.0176145
0.0176083
0.0172587
0.0174849
0.0175705
0.0176334
0.0176698
0.0176789
0.0176685
0.0176469
0.0176206
0.0175947
0.0175729
0.0175573
0.0175491
0.0174026
0.0175265
0.0176092
0.0176591
0.0176774
0.0176685
0.0176424
0.0176082
0.0175727
0.0175403
0.017514
0.0174957
0.0174864
0.0172367
0.0174846
0.0175706
0.0176385
0.0176723
0.0176719
0.0176469
0.0176082
0.0175648
0.0175228
0.0174859
0.0174568
0.0174367
0.0174265
0.0173296
0.0175156
0.0176048
0.0176586
0.0176749
0.0176584
0.0176207
0.0175727
0.0175228
0.0174762
0.0174364
0.0174054
0.0173842
0.0173735
0.0174547
0.0175371
0.0176256
0.0176689
0.0176705
0.0176417
0.0175947
0.0175403
0.0174859
0.0174364
0.0173947
0.0173625
0.0173406
0.0173296
0.0175051
0.0175565
0.0176396
0.0176734
0.0176639
0.0176262
0.0175729
0.017514
0.0174568
0.0174054
0.0173625
0.0173295
0.0173071
0.0172959
0.0172176
0.0175103
0.0175672
0.0176454
0.0176738
0.0176577
0.0176146
0.0175573
0.0174958
0.0174367
0.0173842
0.0173406
0.0173071
0.0172846
0.0172732
0.0172244
0.0175164
0.0175733
0.0176473
0.0176732
0.0176541
0.0176083
0.0175492
0.0174864
0.0174265
0.0173735
0.0173296
0.0172959
0.0172732
0.0172618
0.0167841
0.0167917
0.0167841
0.016844
0.0169108
0.0169569
0.0169661
0.0169739
0.016802
0.0169031
0.0169503
0.0169818
0.017007
0.01703
0.0170423
0.0170491
0.0168363
0.0169502
0.0169938
0.017038
0.0170747
0.0171017
0.0171226
0.0171345
0.0171399
0.0169373
0.0169758
0.0170345
0.0170804
0.0171199
0.0171515
0.0171743
0.0171899
0.0171985
0.0172023
0.0169375
0.0169834
0.0170529
0.0171083
0.0171506
0.017183
0.0172051
0.0172183
0.0172258
0.0172292
0.0172305
0.0168363
0.0169759
0.0170529
0.0171183
0.017167
0.0172003
0.0172209
0.0172312
0.0172343
0.0172339
0.0172322
0.0172309
0.016802
0.0169503
0.0170345
0.0171083
0.017167
0.0172061
0.0172275
0.0172353
0.0172342
0.0172284
0.0172213
0.0172154
0.017212
0.0169031
0.0169939
0.0170804
0.0171506
0.0172003
0.0172275
0.0172361
0.0172324
0.0172218
0.0172087
0.0171965
0.0171874
0.0171825
0.0167841
0.0169503
0.0170381
0.0171199
0.017183
0.0172209
0.0172353
0.0172324
0.017219
0.017201
0.0171825
0.0171666
0.0171551
0.0171491
0.016844
0.0169818
0.0170747
0.0171516
0.0172051
0.0172312
0.0172342
0.0172218
0.017201
0.0171774
0.017155
0.0171365
0.0171233
0.0171165
0.0169108
0.0170071
0.0171017
0.0171743
0.0172183
0.0172343
0.0172284
0.0172087
0.0171825
0.017155
0.0171299
0.0171095
0.0170952
0.0170878
0.0169569
0.0170301
0.0171226
0.0171899
0.0172258
0.0172339
0.0172213
0.0171965
0.0171666
0.0171365
0.0171095
0.0170878
0.0170727
0.017065
0.0167841
0.0169661
0.0170423
0.0171345
0.0171986
0.0172292
0.0172322
0.0172154
0.0171874
0.0171551
0.0171233
0.0170952
0.0170727
0.0170572
0.0170493
0.0167917
0.016974
0.0170491
0.0171399
0.0172023
0.0172305
0.0172309
0.0172121
0.0171825
0.0171491
0.0171165
0.0170878
0.017065
0.0170493
0.0170413
0.016394
0.016402
0.0163905
0.0164299
0.0164617
0.0165002
0.0165101
0.0165178
0.0164037
0.0164809
0.0165022
0.0165299
0.0165536
0.0165764
0.0165891
0.0165962
0.0164267
0.016502
0.0165422
0.0165825
0.0166169
0.0166439
0.0166662
0.0166802
0.0166871
0.0164839
0.0165235
0.0165775
0.016623
0.016664
0.016699
0.0167266
0.0167473
0.0167601
0.0167663
0.016484
0.0165313
0.0165945
0.0166499
0.0166975
0.016738
0.0167699
0.016793
0.016809
0.0168185
0.0168229
0.0164267
0.0165236
0.0165945
0.0166596
0.0167155
0.0167612
0.0167964
0.0168212
0.0168375
0.0168474
0.0168528
0.0168552
0.0164038
0.016502
0.0165775
0.0166499
0.0167155
0.0167691
0.0168088
0.0168357
0.0168519
0.0168607
0.0168648
0.0168664
0.0168668
0.0164809
0.0165422
0.016623
0.0166975
0.0167612
0.0168088
0.01684
0.0168577
0.0168658
0.0168678
0.016867
0.0168653
0.0168641
0.0163905
0.0165022
0.0165825
0.016664
0.0167381
0.0167964
0.0168357
0.0168577
0.0168669
0.0168679
0.0168645
0.0168597
0.0168555
0.0168531
0.0164299
0.0165299
0.0166169
0.0166991
0.0167699
0.0168213
0.016852
0.0168658
0.0168679
0.0168633
0.0168556
0.0168478
0.0168417
0.0168384
0.0164617
0.0165536
0.0166439
0.0167266
0.0167931
0.0168375
0.0168607
0.0168678
0.0168645
0.0168556
0.0168449
0.0168349
0.0168274
0.0168234
0.0165002
0.0165765
0.0166663
0.0167473
0.016809
0.0168474
0.0168648
0.016867
0.0168597
0.0168478
0.0168349
0.0168235
0.016815
0.0168106
0.016394
0.0165101
0.0165891
0.0166803
0.0167602
0.0168185
0.0168529
0.0168664
0.0168653
0.0168555
0.0168417
0.0168274
0.016815
0.016806
0.0168013
0.016402
0.0165178
0.0165962
0.0166872
0.0167664
0.0168229
0.0168552
0.0168669
0.0168641
0.0168531
0.0168384
0.0168235
0.0168106
0.0168013
0.0167964
0.0160385
0.0160461
0.0160369
0.0160634
0.0160747
0.0161056
0.0161147
0.0161215
0.0160466
0.0161081
0.0161123
0.0161356
0.0161562
0.0161769
0.0161887
0.0161955
0.0160633
0.0161121
0.0161473
0.0161827
0.0162134
0.0162381
0.0162593
0.0162732
0.0162803
0.0160935
0.0161299
0.0161775
0.0162193
0.016258
0.0162923
0.0163204
0.0163425
0.016357
0.0163642
0.0160935
0.0161369
0.0161924
0.0162437
0.0162906
0.0163329
0.0163684
0.0163961
0.0164164
0.0164293
0.0164356
0.0160633
0.01613
0.0161923
0.0162525
0.0163082
0.016358
0.0163999
0.0164326
0.0164566
0.0164731
0.0164832
0.016488
0.0160466
0.0161121
0.0161775
0.0162437
0.0163082
0.0163666
0.0164154
0.0164531
0.0164804
0.016499
0.016511
0.016518
0.0165212
0.0161081
0.0161473
0.0162193
0.0162906
0.016358
0.0164154
0.0164597
0.0164912
0.0165122
0.0165254
0.016533
0.0165371
0.0165389
0.0160369
0.0161123
0.0161827
0.016258
0.0163329
0.0163999
0.0164531
0.0164912
0.0165162
0.0165313
0.0165395
0.0165435
0.0165452
0.0165457
0.0160635
0.0161356
0.0162134
0.0162923
0.0163684
0.0164326
0.0164804
0.0165122
0.0165313
0.0165413
0.0165455
0.0165465
0.0165463
0.0165459
0.0160747
0.0161562
0.0162381
0.0163205
0.0163961
0.0164566
0.016499
0.0165254
0.0165395
0.0165455
0.0165466
0.0165454
0.0165437
0.0165426
0.0161056
0.0161769
0.0162593
0.0163426
0.0164164
0.0164731
0.016511
0.016533
0.0165435
0.0165465
0.0165454
0.0165427
0.01654
0.0165384
0.0160384
0.0161148
0.0161887
0.0162732
0.016357
0.0164293
0.0164832
0.016518
0.0165371
0.0165452
0.0165463
0.0165437
0.01654
0.0165366
0.0165347
0.016046
0.0161215
0.0161955
0.0162803
0.0163642
0.0164356
0.016488
0.0165212
0.0165389
0.0165457
0.0165459
0.0165426
0.0165384
0.0165347
0.0165326
0.0157123
0.015719
0.0157129
0.0157313
0.0157299
0.0157546
0.0157625
0.0157681
0.0157204
0.0157706
0.0157633
0.0157827
0.0158002
0.015818
0.0158284
0.0158345
0.0157334
0.0157634
0.0157936
0.015824
0.0158506
0.0158724
0.0158913
0.0159041
0.0159109
0.0157463
0.0157783
0.0158193
0.0158563
0.0158911
0.0159226
0.0159492
0.0159706
0.015985
0.0159924
0.0157463
0.0157845
0.0158322
0.0158778
0.0159212
0.0159616
0.0159971
0.0160259
0.0160477
0.0160621
0.0160692
0.0157334
0.0157783
0.0158322
0.0158856
0.0159375
0.0159865
0.0160299
0.0160659
0.0160936
0.0161137
0.0161265
0.0161328
0.0157204
0.0157635
0.0158193
0.0158778
0.0159375
0.015995
0.0160465
0.0160893
0.0161227
0.0161473
0.0161644
0.016175
0.01618
0.0157706
0.0157936
0.0158563
0.0159212
0.0159865
0.0160465
0.016097
0.0161366
0.0161659
0.0161865
0.0162001
0.0162084
0.0162122
0.0157129
0.0157634
0.0158241
0.0158911
0.0159617
0.0160299
0.0160893
0.0161366
0.0161718
0.0161965
0.0162131
0.0162237
0.0162298
0.0162326
0.0157313
0.0157827
0.0158507
0.0159227
0.0159971
0.0160659
0.0161228
0.0161659
0.0161965
0.0162171
0.0162302
0.0162382
0.0162425
0.0162445
0.01573
0.0158002
0.0158724
0.0159492
0.0160259
0.0160937
0.0161474
0.0161865
0.0162131
0.0162302
0.0162406
0.0162464
0.0162494
0.0162507
0.0157547
0.0158181
0.0158914
0.0159706
0.0160477
0.0161137
0.0161644
0.0162001
0.0162237
0.0162382
0.0162464
0.0162508
0.0162528
0.0162536
0.0157122
0.0157625
0.0158285
0.0159042
0.0159851
0.0160621
0.0161266
0.016175
0.0162084
0.0162298
0.0162425
0.0162494
0.0162528
0.0162542
0.0162546
0.0157188
0.0157681
0.0158345
0.0159109
0.0159924
0.0160692
0.0161328
0.01618
0.0162123
0.0162326
0.0162445
0.0162507
0.0162536
0.0162546
0.0162549
0.0154097
0.0154153
0.0154119
0.0154255
0.0154152
0.0154351
0.0154416
0.0154462
0.0154179
0.0154596
0.0154443
0.0154604
0.0154751
0.0154902
0.015499
0.0155043
0.0154286
0.0154449
0.0154704
0.0154963
0.015519
0.0155377
0.0155541
0.0155654
0.0155714
0.0154299
0.0154576
0.0154925
0.0155245
0.0155548
0.0155828
0.0156067
0.0156264
0.0156398
0.0156468
0.01543
0.015463
0.0155037
0.0155432
0.0155818
0.0156186
0.0156518
0.0156796
0.0157012
0.0157156
0.0157229
0.0154286
0.0154576
0.0155036
0.01555
0.0155965
0.0156419
0.0156838
0.0157198
0.0157486
0.0157701
0.0157842
0.0157911
0.0154179
0.0154449
0.0154925
0.0155432
0.0155965
0.01565
0.0157002
0.0157441
0.01578
0.0158076
0.0158275
0.0158402
0.0158464
0.0154596
0.0154705
0.0155245
0.0155818
0.0156419
0.0157003
0.0157522
0.0157954
0.0158292
0.0158543
0.0158718
0.0158828
0.0158881
0.0154119
0.0154444
0.0154964
0.0155549
0.0156187
0.0156838
0.0157441
0.0157954
0.0158362
0.015867
0.0158892
0.0159043
0.0159136
0.015918
0.0154255
0.0154605
0.0155191
0.0155828
0.0156519
0.0157198
0.01578
0.0158292
0.015867
0.0158947
0.0159141
0.0159271
0.0159349
0.0159386
0.0154152
0.0154752
0.0155378
0.0156068
0.0156796
0.0157487
0.0158076
0.0158543
0.0158892
0.0159141
0.0159312
0.0159424
0.015949
0.0159521
0.0154352
0.0154902
0.0155542
0.0156264
0.0157012
0.0157701
0.0158275
0.0158718
0.0159043
0.0159271
0.0159424
0.0159522
0.015958
0.0159606
0.0154096
0.0154416
0.015499
0.0155654
0.0156399
0.0157157
0.0157842
0.0158402
0.0158828
0.0159136
0.0159349
0.015949
0.015958
0.0159631
0.0159655
0.0154152
0.0154462
0.0155043
0.0155714
0.0156468
0.0157229
0.0157911
0.0158464
0.0158881
0.0159181
0.0159386
0.0159521
0.0159606
0.0159655
0.0159677
0.0151255
0.0151303
0.0151287
0.0151393
0.0151226
0.0151389
0.0151441
0.015148
0.0151338
0.015169
0.015148
0.0151614
0.0151737
0.0151863
0.0151935
0.015198
0.0151431
0.0151491
0.0151706
0.0151925
0.0152116
0.0152274
0.0152413
0.0152508
0.015256
0.0151365
0.0151602
0.0151898
0.0152169
0.0152429
0.0152669
0.0152878
0.0153051
0.0153171
0.0153233
0.0151366
0.015165
0.0151995
0.0152333
0.0152665
0.0152989
0.0153287
0.0153542
0.0153743
0.015388
0.015395
0.0151432
0.0151602
0.0151995
0.0152392
0.0152795
0.01532
0.0153585
0.0153925
0.0154205
0.0154418
0.015456
0.0154631
0.0151338
0.0151491
0.0151898
0.0152333
0.0152795
0.0153274
0.015374
0.0154163
0.015452
0.0154804
0.0155013
0.015515
0.0155218
0.0151691
0.0151707
0.015217
0.0152666
0.01532
0.015374
0.0154243
0.0154678
0.0155033
0.0155306
0.0155502
0.0155628
0.015569
0.0151287
0.015148
0.0151925
0.0152429
0.015299
0.0153585
0.0154163
0.0154678
0.0155108
0.0155447
0.0155702
0.0155882
0.0155996
0.0156051
0.0151394
0.0151615
0.0152117
0.015267
0.0153288
0.0153925
0.015452
0.0155033
0.0155447
0.0155767
0.0156002
0.0156165
0.0156267
0.0156316
0.0151226
0.0151737
0.0152274
0.0152878
0.0153542
0.0154205
0.0154804
0.0155306
0.0155702
0.0156002
0.0156219
0.0156367
0.015646
0.0156504
0.015139
0.0151863
0.0152413
0.0153051
0.0153744
0.0154418
0.0155014
0.0155502
0.0155882
0.0156165
0.0156368
0.0156505
0.0156591
0.0156631
0.0151255
0.0151442
0.0151936
0.0152509
0.0153171
0.0153881
0.015456
0.0155151
0.0155628
0.0155996
0.0156267
0.015646
0.0156591
0.0156671
0.0156709
0.0151302
0.015148
0.015198
0.0152561
0.0153234
0.0153951
0.0154631
0.0155218
0.015569
0.0156051
0.0156316
0.0156504
0.0156631
0.0156709
0.0156745
0.0148557
0.0148598
0.0148594
0.0148687
0.014847
0.0148605
0.0148645
0.0148678
0.0148643
0.0148944
0.0148692
0.0148804
0.0148906
0.014901
0.0149068
0.0149106
0.0148728
0.014871
0.0148891
0.0149074
0.0149233
0.0149362
0.0149477
0.0149555
0.0149599
0.014861
0.0148812
0.0149059
0.0149286
0.0149502
0.0149704
0.014988
0.0150027
0.015013
0.0150184
0.014861
0.0148856
0.0149146
0.0149428
0.0149708
0.0149983
0.0150241
0.0150466
0.0150645
0.015077
0.0150834
0.0148728
0.0148812
0.0149146
0.014948
0.0149821
0.015017
0.0150509
0.0150817
0.0151076
0.0151277
0.0151412
0.0151481
0.0148643
0.0148711
0.014906
0.0149428
0.0149821
0.0150236
0.0150651
0.0151039
0.0151378
0.0151653
0.0151861
0.0151999
0.0152067
0.0148945
0.0148891
0.0149286
0.0149708
0.015017
0.0150651
0.0151115
0.0151531
0.0151882
0.0152159
0.0152362
0.0152496
0.0152561
0.0148595
0.0148693
0.0149074
0.0149502
0.0149984
0.0150509
0.0151039
0.0151531
0.0151958
0.0152306
0.0152575
0.015277
0.0152895
0.0152957
0.0148687
0.0148805
0.0149233
0.0149704
0.0150242
0.0150817
0.0151378
0.0151882
0.0152306
0.0152645
0.0152902
0.0153085
0.0153203
0.015326
0.014847
0.0148907
0.0149363
0.014988
0.0150466
0.0151076
0.0151654
0.0152159
0.0152575
0.0152902
0.0153147
0.015332
0.015343
0.0153484
0.0148606
0.0149011
0.0149478
0.0150027
0.0150646
0.0151277
0.0151861
0.0152363
0.015277
0.0153086
0.015332
0.0153485
0.0153589
0.015364
0.0148557
0.0148646
0.0149069
0.0149556
0.015013
0.015077
0.0151413
0.0151999
0.0152496
0.0152895
0.0153203
0.015343
0.0153589
0.015369
0.0153738
0.0148598
0.0148679
0.0149107
0.01496
0.0150185
0.0150834
0.0151481
0.0152067
0.0152562
0.0152957
0.015326
0.0153484
0.015364
0.0153738
0.0153786
0.0145969
0.0146008
0.0146013
0.0146096
0.0145848
0.0145962
0.014599
0.014602
0.0146063
0.0146326
0.0146045
0.0146138
0.0146221
0.0146306
0.014635
0.0146382
0.0146145
0.0146073
0.0146222
0.0146372
0.0146501
0.0146604
0.0146695
0.0146757
0.0146792
0.0146
0.0146169
0.0146373
0.0146556
0.014673
0.0146893
0.0147036
0.0147156
0.0147241
0.0147286
0.0146001
0.0146211
0.0146452
0.0146681
0.0146907
0.0147132
0.0147347
0.0147537
0.0147691
0.0147799
0.0147855
0.0146145
0.014617
0.0146452
0.0146726
0.0147005
0.0147294
0.0147581
0.0147849
0.0148079
0.014826
0.0148385
0.0148448
0.0146063
0.0146073
0.0146373
0.0146681
0.0147005
0.0147351
0.0147707
0.014805
0.0148358
0.0148614
0.0148811
0.0148943
0.0149009
0.0146327
0.0146222
0.0146557
0.0146907
0.0147294
0.0147708
0.014812
0.0148502
0.0148833
0.0149101
0.0149302
0.0149436
0.0149502
0.0146013
0.0146046
0.0146372
0.0146731
0.0147133
0.0147582
0.0148051
0.0148502
0.0148906
0.0149247
0.0149517
0.0149716
0.0149846
0.0149911
0.0146097
0.0146139
0.0146501
0.0146894
0.0147347
0.0147849
0.0148358
0.0148833
0.0149247
0.0149588
0.0149853
0.0150047
0.0150172
0.0150234
0.0145849
0.0146222
0.0146605
0.0147037
0.0147537
0.0148079
0.0148614
0.0149101
0.0149517
0.0149853
0.0150112
0.0150299
0.015042
0.0150479
0.0145963
0.0146307
0.0146696
0.0147157
0.0147692
0.0148261
0.0148811
0.0149302
0.0149716
0.0150047
0.0150299
0.015048
0.0150597
0.0150654
0.014597
0.0145991
0.0146351
0.0146758
0.0147242
0.01478
0.0148385
0.0148943
0.0149436
0.0149846
0.0150172
0.015042
0.0150597
0.015071
0.0150766
0.0146008
0.0146021
0.0146383
0.0146793
0.0147287
0.0147856
0.0148449
0.014901
0.0149502
0.0149911
0.0150234
0.0150479
0.0150654
0.0150766
0.0150821
0.0143468
0.0143507
0.0143519
0.0143598
0.0143339
0.0143435
0.0143449
0.0143478
0.0143574
0.0143811
0.0143514
0.0143589
0.0143653
0.014372
0.0143751
0.0143778
0.0143659
0.0143553
0.0143672
0.0143791
0.014389
0.0143966
0.0144034
0.0144079
0.0144107
0.0143521
0.0143651
0.0143811
0.014395
0.0144081
0.0144205
0.0144314
0.0144406
0.0144472
0.0144508
0.0143522
0.0143695
0.0143886
0.0144059
0.014423
0.0144404
0.0144573
0.0144726
0.0144852
0.0144942
0.014499
0.014366
0.0143651
0.0143886
0.0144099
0.0144313
0.014454
0.0144772
0.0144995
0.0145191
0.0145349
0.0145459
0.0145516
0.0143575
0.0143554
0.0143812
0.0144059
0.0144313
0.0144588
0.0144881
0.0145172
0.0145441
0.0145672
0.0145851
0.0145974
0.0146036
0.0143812
0.0143672
0.0143951
0.014423
0.014454
0.0144881
0.0145234
0.0145573
0.0145875
0.0146126
0.0146318
0.0146446
0.0146511
0.014352
0.0143515
0.0143791
0.0144082
0.0144404
0.0144772
0.0145172
0.0145573
0.0145944
0.0146266
0.0146527
0.0146723
0.0146853
0.0146917
0.0143599
0.014359
0.0143891
0.0144206
0.0144573
0.0144995
0.0145442
0.0145875
0.0146266
0.0146597
0.014686
0.0147056
0.0147184
0.0147248
0.0143341
0.0143654
0.0143968
0.0144314
0.0144726
0.0145192
0.0145672
0.0146126
0.0146527
0.014686
0.0147123
0.0147315
0.0147441
0.0147504
0.0143437
0.0143721
0.0144035
0.0144407
0.0144853
0.014535
0.0145852
0.0146318
0.0146723
0.0147056
0.0147316
0.0147505
0.0147628
0.0147689
0.0143469
0.0143451
0.0143752
0.014408
0.0144473
0.0144943
0.014546
0.0145975
0.0146447
0.0146853
0.0147184
0.0147441
0.0147628
0.014775
0.0147809
0.0143508
0.014348
0.014378
0.0144108
0.0144509
0.0144991
0.0145517
0.0146037
0.0146511
0.0146917
0.0147248
0.0147504
0.0147689
0.0147809
0.0147869
0.0141029
0.0141072
0.0141095
0.0141175
0.0140933
0.0141008
0.0141004
0.0141036
0.0141158
0.014138
0.0141082
0.0141138
0.0141181
0.0141226
0.0141244
0.0141269
0.0141252
0.0141133
0.0141221
0.0141306
0.0141374
0.0141422
0.0141464
0.0141491
0.0141513
0.0141183
0.0141239
0.0141351
0.0141441
0.0141526
0.0141608
0.0141681
0.0141745
0.0141791
0.0141819
0.0141182
0.0141287
0.0141421
0.0141535
0.0141646
0.0141765
0.0141887
0.0142002
0.01421
0.0142172
0.014221
0.0141253
0.0141239
0.0141421
0.0141569
0.0141714
0.0141875
0.0142051
0.0142227
0.0142388
0.0142521
0.0142616
0.0142665
0.0141159
0.0141134
0.0141351
0.0141535
0.0141714
0.0141915
0.0142141
0.0142379
0.0142607
0.0142808
0.0142968
0.014308
0.0143137
0.0141381
0.0141221
0.0141442
0.0141646
0.0141875
0.0142142
0.0142432
0.0142724
0.0142993
0.0143222
0.0143401
0.0143522
0.0143583
0.0141096
0.0141083
0.0141307
0.0141527
0.0141765
0.0142051
0.0142379
0.0142724
0.0143056
0.0143354
0.01436
0.0143788
0.0143915
0.0143978
0.0141177
0.0141139
0.0141375
0.0141608
0.0141888
0.0142227
0.0142607
0.0142993
0.0143354
0.0143667
0.0143923
0.0144115
0.0144243
0.0144307
0.0140936
0.0141182
0.0141423
0.0141682
0.0142002
0.0142388
0.0142808
0.0143222
0.01436
0.0143923
0.0144182
0.0144375
0.0144502
0.0144566
0.014101
0.0141228
0.0141465
0.0141746
0.0142101
0.0142522
0.0142969
0.0143401
0.0143788
0.0144115
0.0144375
0.0144567
0.0144694
0.0144756
0.0141031
0.0141007
0.0141246
0.0141493
0.0141792
0.0142172
0.0142616
0.014308
0.0143522
0.0143915
0.0144243
0.0144502
0.0144694
0.0144819
0.0144881
0.0141075
0.0141039
0.0141272
0.0141514
0.014182
0.0142211
0.0142665
0.0143137
0.0143584
0.0143978
0.0144307
0.0144566
0.0144756
0.0144881
0.0144943
0.0138619
0.0138672
0.0138714
0.0138809
0.0138632
0.0138668
0.0138643
0.0138684
0.0138787
0.0139017
0.0138742
0.0138769
0.0138783
0.0138801
0.0138804
0.0138829
0.0138904
0.0138802
0.0138852
0.0138895
0.0138924
0.0138937
0.013895
0.0138959
0.0138974
0.0139101
0.0138912
0.0138965
0.0138998
0.0139029
0.0139064
0.01391
0.0139135
0.0139163
0.0139182
0.0139096
0.0138969
0.0139025
0.0139071
0.0139116
0.0139178
0.0139253
0.013933
0.0139402
0.0139456
0.0139486
0.0138906
0.0138912
0.0139025
0.0139099
0.0139167
0.0139262
0.0139381
0.0139513
0.013964
0.013975
0.013983
0.0139872
0.0138788
0.0138803
0.0138966
0.0139071
0.0139168
0.0139293
0.0139455
0.013964
0.0139829
0.0140002
0.0140144
0.0140243
0.0140295
0.0139018
0.0138853
0.0138998
0.0139116
0.0139262
0.0139455
0.0139686
0.0139932
0.0140169
0.0140376
0.0140541
0.0140654
0.0140712
0.0138715
0.0138743
0.0138896
0.013903
0.0139179
0.0139382
0.013964
0.0139932
0.0140227
0.0140498
0.0140729
0.0140908
0.0141029
0.014109
0.0138811
0.0138771
0.0138925
0.0139065
0.0139254
0.0139513
0.013983
0.0140169
0.0140498
0.0140793
0.0141038
0.0141224
0.014135
0.0141413
0.0138634
0.0138785
0.0138939
0.0139101
0.0139331
0.0139641
0.0140002
0.0140376
0.0140729
0.0141038
0.014129
0.014148
0.0141607
0.0141671
0.0138671
0.0138804
0.0138952
0.0139136
0.0139402
0.013975
0.0140144
0.0140541
0.0140908
0.0141224
0.014148
0.0141672
0.0141799
0.0141863
0.0138622
0.0138647
0.0138807
0.0138961
0.0139164
0.0139457
0.013983
0.0140244
0.0140654
0.0141029
0.014135
0.0141607
0.0141799
0.0141926
0.014199
0.0138675
0.0138687
0.0138832
0.0138976
0.0139183
0.0139487
0.0139872
0.0140296
0.0140712
0.0141091
0.0141413
0.0141671
0.0141863
0.014199
0.0142053
0.0136185
0.0136266
0.013632
0.0136468
0.0136493
0.0136407
0.0136345
0.0136409
0.0136412
0.0136719
0.0136494
0.0136466
0.0136441
0.013641
0.0136391
0.0136422
0.0136597
0.0136549
0.0136544
0.013652
0.0136492
0.0136463
0.0136445
0.0136434
0.0136445
0.0137533
0.0136698
0.0136609
0.0136572
0.0136542
0.0136525
0.0136522
0.0136532
0.0136543
0.0136556
0.0137535
0.0136818
0.0136666
0.0136613
0.013659
0.0136597
0.0136627
0.0136672
0.0136721
0.0136761
0.0136785
0.01366
0.0136698
0.0136666
0.0136633
0.0136622
0.0136654
0.0136725
0.0136819
0.0136919
0.013701
0.0137078