/*--------------------------------*- C++ -*----------------------------------*\
| =========                 |                                                 |
| \\      /  F ield         | OpenFOAM: The Open Source CFD Toolbox           |
|  \\    /   O peration     | Version:  2.1.1                                 |
|   \\  /    A nd           | Web:      www.OpenFOAM.org                      |
|    \\/     M anipulation  |                                                 |
\*---------------------------------------------------------------------------*/
FoamFile
{
    version     2.0;
    format      ascii;
    class       volScalarField;
    location    "0.075";
    object      p;
}
// * * * * * * * * * * * * * * * * * * * * * * * * * * * * * * * * * * * * * //

dimensions      [0 2 -2 0 0 0 0];

internalField   nonuniform List<scalar> 
163952
(
0.0416927
0.0411164
0.0363802
0.0311855
0.0299888
0.0273774
0.0267874
0.0264637
0.0367003
0.0323582
0.0273167
0.024827
0.0235835
0.0228046
0.0224903
0.0223491
0.0337314
0.0279945
0.0244909
0.0228513
0.0219388
0.021401
0.0210624
0.0208821
0.0207967
0.0336011
0.0261023
0.023268
0.0219215
0.0211663
0.0206876
0.0203681
0.0201565
0.0200304
0.0199669
0.0336024
0.0255603
0.0227438
0.0214656
0.0207509
0.0202872
0.0199633
0.0197325
0.0195731
0.0194726
0.0194203
0.0337316
0.0261024
0.0227438
0.0213221
0.0205596
0.020071
0.0197256
0.0194717
0.0192852
0.0191532
0.0190677
0.0190223
0.0367
0.0279945
0.023268
0.0214656
0.0205596
0.0200013
0.0196132
0.0193266
0.019111
0.0189505
0.0188357
0.0187602
0.0187198
0.0323583
0.0244909
0.0219215
0.0207509
0.020071
0.0196132
0.0192797
0.0190281
0.0188369
0.0186937
0.0185906
0.0185224
0.0184857
0.0363803
0.0273168
0.0228513
0.0211663
0.0202872
0.0197256
0.0193266
0.0190281
0.0188001
0.0186259
0.0184949
0.0184003
0.0183375
0.0183035
0.0311856
0.0248271
0.0219388
0.0206876
0.0199633
0.0194717
0.019111
0.0188369
0.0186259
0.018464
0.0183419
0.0182534
0.0181945
0.0181625
0.0299888
0.0235835
0.021401
0.0203681
0.0197326
0.0192852
0.0189505
0.0186937
0.0184949
0.0183419
0.0182261
0.018142
0.0180859
0.0180555
0.0273775
0.0228046
0.0210624
0.0201565
0.0195731
0.0191532
0.0188357
0.0185906
0.0184003
0.0182534
0.018142
0.018061
0.0180069
0.0179775
0.0416927
0.0267874
0.0224903
0.0208821
0.0200304
0.0194726
0.0190677
0.0187602
0.0185224
0.0183375
0.0181945
0.0180859
0.0180069
0.0179541
0.0179254
0.0411164
0.0264638
0.0223492
0.0207967
0.0199669
0.0194203
0.0190223
0.0187198
0.0184857
0.0183035
0.0181625
0.0180555
0.0179775
0.0179254
0.017897
0.0235187
0.0235755
0.0225133
0.0237226
0.0224536
0.0221396
0.0220948
0.022074
0.022618
0.0244319
0.0221192
0.021807
0.0215465
0.0213558
0.0212811
0.0212294
0.0233961
0.0221709
0.0217531
0.0213413
0.0210006
0.020722
0.0205373
0.0204413
0.0203919
0.0221405
0.0218502
0.0214131
0.0209719
0.0205792
0.0202681
0.020032
0.0198723
0.0197802
0.019736
0.0221412
0.021721
0.0212289
0.0207251
0.0202983
0.0199559
0.0196964
0.0195052
0.0193735
0.0192933
0.0192548
0.0233963
0.0218504
0.0212289
0.0206451
0.0201563
0.0197785
0.0194894
0.0192716
0.0191109
0.0189986
0.0189284
0.0188944
0.0226181
0.022171
0.0214131
0.0207251
0.0201563
0.0197198
0.0193905
0.0191402
0.018951
0.0188107
0.0187118
0.018649
0.0186185
0.0244319
0.0217531
0.0209719
0.0202983
0.0197785
0.0193905
0.0190978
0.0188747
0.0187052
0.0185791
0.0184895
0.0184322
0.0184043
0.0225133
0.0221192
0.0213413
0.0205792
0.0199559
0.0194894
0.0191402
0.0188747
0.0186711
0.0185157
0.0183995
0.0183167
0.0182634
0.0182374
0.0237226
0.021807
0.0210006
0.0202681
0.0196964
0.0192716
0.018951
0.0187052
0.0185157
0.0183703
0.0182612
0.0181832
0.018133
0.0181084
0.0224537
0.0215465
0.020722
0.020032
0.0195052
0.0191109
0.0188107
0.0185791
0.0183995
0.0182612
0.0181572
0.0180827
0.0180346
0.018011
0.0221396
0.0213558
0.0205373
0.0198724
0.0193735
0.0189987
0.0187118
0.0184895
0.0183166
0.0181832
0.0180827
0.0180106
0.017964
0.0179411
0.0235187
0.0220948
0.0212811
0.0204413
0.0197802
0.0192933
0.0189284
0.018649
0.0184322
0.0182634
0.018133
0.0180346
0.017964
0.0179183
0.0178959
0.0235756
0.022074
0.0212294
0.0203919
0.019736
0.0192548
0.0188944
0.0186184
0.0184043
0.0182374
0.0181084
0.018011
0.0179411
0.0178959
0.0178737
0.019875
0.0198894
0.019954
0.0203359
0.0205595
0.0204438
0.0203364
0.0202958
0.0199607
0.0208047
0.0203545
0.0202765
0.0201818
0.0201431
0.0201138
0.0200884
0.0201711
0.0203683
0.020268
0.0201475
0.0200109
0.0198665
0.0197752
0.0197202
0.0196899
0.0205182
0.0203013
0.0201763
0.0199965
0.0198046
0.0196389
0.0194992
0.0193992
0.019337
0.0193057
0.0205189
0.0202561
0.0201033
0.0198817
0.0196569
0.0194545
0.0192884
0.0191572
0.0190627
0.0190028
0.0189732
0.0201711
0.0203015
0.0201032
0.0198439
0.0195781
0.0193447
0.0191483
0.0189902
0.0188676
0.0187792
0.0187227
0.0186949
0.0199608
0.0203683
0.0201764
0.0198818
0.0195781
0.0193072
0.0190791
0.0188919
0.0187429
0.0186286
0.0185462
0.018493
0.018467
0.0208047
0.020268
0.0199965
0.019657
0.0193447
0.0190791
0.0188595
0.0186819
0.0185416
0.0184344
0.0183571
0.0183071
0.0182825
0.019954
0.0203545
0.0201475
0.0198047
0.0194545
0.0191484
0.0188919
0.0186819
0.0185131
0.0183802
0.0182789
0.0182057
0.0181582
0.0181349
0.020336
0.0202766
0.0200109
0.0196389
0.0192884
0.0189902
0.0187429
0.0185416
0.0183802
0.0182533
0.0181565
0.0180865
0.0180411
0.0180187
0.0205595
0.0201818
0.0198665
0.0194992
0.0191572
0.0188676
0.0186286
0.0184344
0.0182789
0.0181565
0.0180631
0.0179955
0.0179516
0.01793
0.0204439
0.0201431
0.0197753
0.0193992
0.0190627
0.0187792
0.0185462
0.0183571
0.0182056
0.0180865
0.0179955
0.0179297
0.0178869
0.0178658
0.019875
0.0203364
0.0201138
0.0197203
0.019337
0.0190028
0.0187227
0.018493
0.0183071
0.0181582
0.0180411
0.0179516
0.0178869
0.0178448
0.0178241
0.0198894
0.0202959
0.0200884
0.0196899
0.0193057
0.0189732
0.0186949
0.0184669
0.0182825
0.0181349
0.0180187
0.01793
0.0178658
0.0178241
0.0178035
0.0185277
0.0185381
0.0186448
0.0188719
0.0192027
0.0192024
0.01915
0.019128
0.0186596
0.0190855
0.0191256
0.0191132
0.019084
0.0190855
0.0190843
0.0190808
0.0188005
0.0191294
0.019117
0.01911
0.0190814
0.0190298
0.0189941
0.0189688
0.0189545
0.0192327
0.0191328
0.0191268
0.0190767
0.0190106
0.0189465
0.0188838
0.0188341
0.0187995
0.0187812
0.0192333
0.0191131
0.0191082
0.0190452
0.0189559
0.0188627
0.018777
0.0187026
0.0186456
0.0186075
0.0185882
0.0188005
0.0191329
0.0191081
0.0190339
0.0189253
0.0188094
0.0186992
0.0186023
0.018522
0.0184616
0.0184217
0.0184018
0.0186597
0.0191295
0.0191269
0.0190453
0.0189254
0.0187907
0.0186589
0.0185395
0.0184379
0.018356
0.0182949
0.0182547
0.0182347
0.0190856
0.019117
0.0190767
0.0189559
0.0188094
0.0186589
0.0185184
0.0183952
0.0182924
0.0182109
0.0181505
0.0181107
0.018091
0.0186448
0.0191256
0.01911
0.0190106
0.0188627
0.0186992
0.0185395
0.0183952
0.0182712
0.0181691
0.0180887
0.0180294
0.0179905
0.0179712
0.0188719
0.0191132
0.0190814
0.0189465
0.0187771
0.0186023
0.0184379
0.0182924
0.0181691
0.0180683
0.0179893
0.0179312
0.017893
0.0178742
0.0192028
0.019084
0.0190298
0.0188838
0.0187026
0.018522
0.018356
0.0182109
0.0180887
0.0179893
0.0179117
0.0178546
0.0178171
0.0177986
0.0192025
0.0190855
0.0189941
0.0188341
0.0186457
0.0184616
0.0182949
0.0181505
0.0180294
0.0179312
0.0178546
0.0177983
0.0177614
0.0177431
0.0185278
0.01915
0.0190843
0.0189688
0.0187995
0.0186076
0.0184217
0.0182547
0.0181107
0.0179905
0.017893
0.0178171
0.0177614
0.0177248
0.0177068
0.0185382
0.0191281
0.0190808
0.0189546
0.0187812
0.0185882
0.0184018
0.0182347
0.018091
0.0179712
0.0178741
0.0177986
0.0177431
0.0177068
0.0176888
0.0178097
0.0178179
0.0178706
0.0180192
0.0182356
0.0182792
0.0182696
0.018268
0.0178955
0.0181279
0.0182358
0.0182549
0.0182604
0.0182729
0.0182811
0.0182857
0.0179853
0.0182371
0.0182634
0.0182966
0.0183151
0.0183147
0.0183117
0.0183058
0.0183015
0.0182696
0.0182591
0.0183031
0.0183165
0.0183169
0.0183094
0.0182942
0.0182783
0.0182646
0.0182567
0.01827
0.0182538
0.01831
0.0183255
0.0183132
0.0182882
0.0182569
0.0182242
0.0181965
0.0181766
0.0181661
0.0179854
0.0182592
0.0183099
0.0183282
0.0183103
0.0182714
0.0182239
0.0181752
0.0181308
0.0180952
0.0180707
0.0180581
0.0178956
0.0182372
0.0183032
0.0183256
0.0183103
0.0182653
0.0182053
0.0181416
0.0180817
0.0180302
0.0179901
0.0179628
0.017949
0.0181279
0.0182634
0.0183166
0.0183133
0.0182714
0.0182053
0.0181299
0.0180557
0.017989
0.0179333
0.0178906
0.0178619
0.0178475
0.0178706
0.0182358
0.0182966
0.0183169
0.0182883
0.0182239
0.0181416
0.0180557
0.0179749
0.0179042
0.0178463
0.0178023
0.0177729
0.0177581
0.0180193
0.0182549
0.0183151
0.0183095
0.0182569
0.0181753
0.0180818
0.017989
0.0179042
0.0178314
0.0177722
0.0177276
0.0176979
0.017683
0.0182357
0.0182605
0.0183147
0.0182942
0.0182242
0.0181308
0.0180302
0.0179333
0.0178463
0.0177722
0.0177125
0.0176677
0.0176378
0.017623
0.0182792
0.0182729
0.0183118
0.0182783
0.0181965
0.0180952
0.0179901
0.0178906
0.0178023
0.0177276
0.0176677
0.0176228
0.017593
0.0175781
0.0178098
0.0182697
0.0182812
0.0183058
0.0182646
0.0181766
0.0180707
0.0179628
0.0178619
0.0177729
0.0176979
0.0176378
0.0175929
0.0175631
0.0175483
0.0178179
0.0182681
0.0182858
0.0183016
0.0182567
0.0181661
0.0180581
0.017949
0.0178475
0.0177581
0.017683
0.0176229
0.0175781
0.0175483
0.0175335
0.0172995
0.0173062
0.0173186
0.0174114
0.0175366
0.017587
0.0175922
0.0175982
0.0173406
0.0174846
0.0175665
0.0175976
0.017619
0.0176384
0.0176491
0.0176552
0.0173955
0.0175669
0.0176085
0.0176526
0.0176867
0.0177074
0.0177214
0.0177272
0.0177291
0.0175674
0.0175942
0.0176525
0.0176911
0.0177204
0.0177404
0.0177507
0.0177551
0.0177555
0.0177548
0.0175677
0.0175985
0.0176692
0.0177153
0.017741
0.0177541
0.0177566
0.0177521
0.0177454
0.0177393
0.0177356
0.0173956
0.0175943
0.0176692
0.0177238
0.0177517
0.0177591
0.0177536
0.01774
0.0177232
0.0177077
0.017696
0.0176898
0.0173407
0.017567
0.0176525
0.0177153
0.0177517
0.0177607
0.0177501
0.0177284
0.0177021
0.0176762
0.0176542
0.0176386
0.0176305
0.0174846
0.0176085
0.0176912
0.0177411
0.0177592
0.0177501
0.017724
0.0176897
0.0176541
0.0176216
0.0175953
0.017577
0.0175676
0.0173186
0.0175666
0.0176527
0.0177205
0.0177541
0.0177536
0.0177284
0.0176897
0.0176462
0.0176041
0.0175671
0.0175379
0.0175179
0.0175077
0.0174115
0.0175976
0.0176867
0.0177404
0.0177566
0.01774
0.0177022
0.0176541
0.0176041
0.0175574
0.0175176
0.0174865
0.0174653
0.0174546
0.0175367
0.0176191
0.0177075
0.0177507
0.0177521
0.0177233
0.0176762
0.0176216
0.0175671
0.0175176
0.0174758
0.0174435
0.0174216
0.0174106
0.017587
0.0176385
0.0177215
0.0177552
0.0177455
0.0177077
0.0176543
0.0175953
0.0175379
0.0174865
0.0174435
0.0174105
0.0173881
0.0173769
0.0172995
0.0175922
0.0176492
0.0177273
0.0177555
0.0177393
0.017696
0.0176386
0.017577
0.0175179
0.0174653
0.0174216
0.0173881
0.0173655
0.0173541
0.0173063
0.0175983
0.0176552
0.0177292
0.0177549
0.0177357
0.0176898
0.0176305
0.0175676
0.0175077
0.0174546
0.0174106
0.0173769
0.0173541
0.0173427
0.016866
0.0168735
0.016866
0.0169259
0.0169927
0.0170388
0.017048
0.0170558
0.016884
0.0169851
0.0170324
0.0170638
0.017089
0.017112
0.0171242
0.017131
0.0169184
0.0170324
0.0170759
0.0171201
0.0171567
0.0171836
0.0172044
0.0172163
0.0172216
0.0170195
0.017058
0.0171166
0.0171625
0.0172018
0.0172334
0.0172561
0.0172716
0.0172802
0.017284
0.0170196
0.0170656
0.0171351
0.0171903
0.0172325
0.0172649
0.0172868
0.0172999
0.0173073
0.0173107
0.017312
0.0169184
0.017058
0.017135
0.0172003
0.0172489
0.0172821
0.0173026
0.0173127
0.0173158
0.0173153
0.0173136
0.0173123
0.0168841
0.0170324
0.0171166
0.0171903
0.0172489
0.0172879
0.0173091
0.0173169
0.0173156
0.0173097
0.0173026
0.0172966
0.0172933
0.0169852
0.017076
0.0171625
0.0172326
0.0172822
0.0173091
0.0173177
0.0173138
0.0173031
0.0172899
0.0172777
0.0172685
0.0172636
0.0168661
0.0170324
0.0171202
0.0172019
0.0172649
0.0173027
0.0173169
0.0173138
0.0173003
0.0172822
0.0172636
0.0172476
0.0172361
0.0172301
0.0169259
0.0170639
0.0171567
0.0172335
0.0172868
0.0173128
0.0173157
0.0173031
0.0172822
0.0172585
0.017236
0.0172174
0.0172042
0.0171974
0.0169928
0.0170891
0.0171837
0.0172561
0.0173
0.0173158
0.0173097
0.0172899
0.0172636
0.017236
0.0172108
0.0171903
0.017176
0.0171687
0.0170389
0.0171121
0.0172045
0.0172717
0.0173074
0.0173153
0.0173026
0.0172777
0.0172476
0.0172174
0.0171903
0.0171686
0.0171535
0.0171458
0.016866
0.0170481
0.0171243
0.0172163
0.0172803
0.0173108
0.0173136
0.0172966
0.0172685
0.0172361
0.0172042
0.017176
0.0171535
0.0171379
0.01713
0.0168736
0.0170559
0.0171311
0.0172217
0.0172841
0.017312
0.0173123
0.0172933
0.0172636
0.01723
0.0171974
0.0171686
0.0171458
0.01713
0.017122
0.0164758
0.0164838
0.0164725
0.0165118
0.0165437
0.0165821
0.016592
0.0165997
0.0164858
0.016563
0.0165843
0.0166119
0.0166356
0.0166584
0.016671
0.0166781
0.0165088
0.0165842
0.0166243
0.0166646
0.0166989
0.0167258
0.0167481
0.016762
0.0167689
0.0165662
0.0166058
0.0166597
0.0167051
0.016746
0.016781
0.0168084
0.016829
0.0168418
0.0168479
0.0165663
0.0166135
0.0166767
0.016732
0.0167795
0.0168199
0.0168516
0.0168746
0.0168905
0.0168999
0.0169043
0.0165088
0.0166058
0.0166767
0.0167417
0.0167975
0.0168431
0.0168781
0.0169028
0.0169189
0.0169287
0.0169341
0.0169364
0.0164859
0.0165843
0.0166598
0.016732
0.0167975
0.0168509
0.0168905
0.0169171
0.0169333
0.0169419
0.016946
0.0169475
0.0169479
0.0165631
0.0166244
0.0167052
0.0167795
0.0168431
0.0168905
0.0169215
0.016939
0.0169469
0.0169489
0.0169479
0.0169462
0.016945
0.0164726
0.0165844
0.0166647
0.016746
0.01682
0.0168781
0.0169172
0.016939
0.0169481
0.0169489
0.0169454
0.0169405
0.0169363
0.0169338
0.0165119
0.016612
0.016699
0.016781
0.0168517
0.0169028
0.0169333
0.0169469
0.0169489
0.0169441
0.0169364
0.0169285
0.0169224
0.016919
0.0165438
0.0166357
0.0167259
0.0168085
0.0168747
0.0169189
0.016942
0.0169489
0.0169454
0.0169364
0.0169256
0.0169155
0.016908
0.016904
0.0165823
0.0166585
0.0167482
0.016829
0.0168905
0.0169288
0.016946
0.016948
0.0169405
0.0169285
0.0169155
0.016904
0.0168955
0.0168911
0.0164759
0.0165921
0.0166711
0.0167621
0.0168419
0.0169
0.0169341
0.0169475
0.0169462
0.0169363
0.0169224
0.016908
0.0168955
0.0168864
0.0168817
0.0164839
0.0165998
0.0166782
0.016769
0.016848
0.0169044
0.0169365
0.0169479
0.016945
0.0169338
0.016919
0.016904
0.0168911
0.0168817
0.0168768
0.0161203
0.0161279
0.0161189
0.0161454
0.0161567
0.0161875
0.0161966
0.0162033
0.0161288
0.0161903
0.0161945
0.0162177
0.0162382
0.0162588
0.0162706
0.0162773
0.0161454
0.0161945
0.0162296
0.0162649
0.0162955
0.01632
0.0163411
0.0163549
0.016362
0.0161758
0.0162123
0.0162598
0.0163015
0.0163401
0.0163742
0.0164022
0.0164242
0.0164386
0.0164457
0.0161759
0.0162193
0.0162747
0.0163259
0.0163727
0.0164148
0.0164501
0.0164776
0.0164978
0.0165106
0.0165169
0.0161455
0.0162123
0.0162747
0.0163347
0.0163903
0.0164399
0.0164816
0.0165141
0.0165379
0.0165542
0.0165643
0.016569
0.0161288
0.0161945
0.0162598
0.0163259
0.0163903
0.0164485
0.016497
0.0165345
0.0165616
0.0165801
0.0165919
0.0165988
0.016602
0.0161903
0.0162297
0.0163016
0.0163727
0.0164399
0.016497
0.0165411
0.0165724
0.0165932
0.0166062
0.0166138
0.0166178
0.0166195
0.016119
0.0161946
0.016265
0.0163401
0.0164148
0.0164816
0.0165346
0.0165724
0.0165972
0.0166121
0.0166202
0.0166241
0.0166257
0.0166262
0.0161455
0.0162178
0.0162956
0.0163743
0.0164502
0.0165141
0.0165617
0.0165933
0.0166121
0.0166219
0.016626
0.0166269
0.0166266
0.0166262
0.0161568
0.0162383
0.0163202
0.0164023
0.0164777
0.0165379
0.0165801
0.0166062
0.0166202
0.016626
0.016627
0.0166257
0.016624
0.0166228
0.0161877
0.0162589
0.0163412
0.0164243
0.0164979
0.0165543
0.016592
0.0166138
0.0166241
0.0166269
0.0166257
0.0166229
0.0166201
0.0166185
0.0161204
0.0161968
0.0162707
0.0163551
0.0164387
0.0165107
0.0165643
0.0165989
0.0166178
0.0166257
0.0166266
0.0166239
0.0166201
0.0166167
0.0166148
0.0161279
0.0162035
0.0162775
0.0163622
0.0164458
0.016517
0.0165691
0.016602
0.0166195
0.0166262
0.0166262
0.0166228
0.0166185
0.0166148
0.0166127
0.015794
0.0158006
0.015795
0.0158132
0.0158119
0.0158365
0.0158443
0.0158499
0.0158026
0.0158528
0.0158456
0.0158649
0.0158822
0.0158999
0.0159102
0.0159163
0.0158156
0.0158459
0.015876
0.0159063
0.0159328
0.0159543
0.0159731
0.0159858
0.0159925
0.0158287
0.0158608
0.0159018
0.0159387
0.0159733
0.0160046
0.016031
0.0160522
0.0160665
0.0160738
0.0158288
0.015867
0.0159147
0.0159602
0.0160033
0.0160436
0.0160788
0.0161073
0.016129
0.0161432
0.0161503
0.0158157
0.0158609
0.0159147
0.015968
0.0160197
0.0160684
0.0161116
0.0161472
0.0161748
0.0161947
0.0162074
0.0162136
0.0158027
0.015846
0.0159018
0.0159602
0.0160197
0.0160769
0.0161281
0.0161706
0.0162038
0.0162282
0.016245
0.0162555
0.0162605
0.0158529
0.0158761
0.0159388
0.0160034
0.0160684
0.0161281
0.0161783
0.0162176
0.0162467
0.016267
0.0162805
0.0162887
0.0162925
0.0157951
0.0158457
0.0159065
0.0159734
0.0160437
0.0161116
0.0161707
0.0162176
0.0162525
0.016277
0.0162934
0.0163039
0.0163099
0.0163127
0.0158134
0.015865
0.0159329
0.0160047
0.0160789
0.0161473
0.0162038
0.0162467
0.016277
0.0162974
0.0163104
0.0163182
0.0163225
0.0163244
0.0158121
0.0158824
0.0159545
0.0160311
0.0161075
0.0161749
0.0162282
0.0162671
0.0162935
0.0163104
0.0163206
0.0163263
0.0163292
0.0163305
0.0158367
0.0159001
0.0159733
0.0160524
0.0161291
0.0161948
0.0162451
0.0162806
0.0163039
0.0163182
0.0163263
0.0163305
0.0163325
0.0163332
0.0157941
0.0158445
0.0159105
0.015986
0.0160667
0.0161434
0.0162075
0.0162556
0.0162887
0.0163099
0.0163225
0.0163292
0.0163325
0.0163338
0.0163342
0.0158007
0.0158501
0.0159165
0.0159927
0.016074
0.0161504
0.0162137
0.0162606
0.0162926
0.0163127
0.0163244
0.0163305
0.0163332
0.0163342
0.0163345
0.0154912
0.0154968
0.015494
0.0155074
0.0154972
0.0155169
0.0155233
0.0155279
0.0155002
0.015542
0.0155267
0.0155427
0.0155572
0.0155721
0.0155807
0.0155859
0.015511
0.0155275
0.015553
0.0155788
0.0156013
0.0156197
0.0156359
0.015647
0.0156529
0.0155125
0.0155402
0.0155751
0.015607
0.0156371
0.0156648
0.0156885
0.0157078
0.0157211
0.015728
0.0155125
0.0155457
0.0155863
0.0156258
0.0156641
0.0157006
0.0157335
0.015761
0.0157823
0.0157966
0.0158038
0.0155111
0.0155403
0.0155863
0.0156326
0.0156787
0.0157238
0.0157654
0.015801
0.0158296
0.0158508
0.0158647
0.0158716
0.0155003
0.0155276
0.0155752
0.0156258
0.0156788
0.0157319
0.0157818
0.0158253
0.0158608
0.0158882
0.0159078
0.0159204
0.0159265
0.0155421
0.0155531
0.0156071
0.0156641
0.0157239
0.0157818
0.0158334
0.0158762
0.0159096
0.0159345
0.0159518
0.0159627
0.015968
0.0154942
0.0155269
0.0155789
0.0156373
0.0157007
0.0157654
0.0158253
0.0158762
0.0159166
0.0159471
0.0159691
0.015984
0.0159932
0.0159976
0.0155076
0.0155429
0.0156015
0.015665
0.0157336
0.0158011
0.0158609
0.0159097
0.0159471
0.0159746
0.0159938
0.0160066
0.0160143
0.016018
0.0154974
0.0155574
0.0156199
0.0156886
0.0157611
0.0158297
0.0158882
0.0159345
0.0159691
0.0159938
0.0160107
0.0160217
0.0160283
0.0160313
0.0155172
0.0155723
0.0156361
0.015708
0.0157824
0.0158509
0.0159079
0.0159519
0.015984
0.0160066
0.0160217
0.0160314
0.0160371
0.0160397
0.0154914
0.0155236
0.015581
0.0156472
0.0157213
0.0157967
0.0158648
0.0159204
0.0159627
0.0159932
0.0160143
0.0160283
0.0160371
0.0160422
0.0160445
0.0154969
0.0155282
0.0155862
0.0156532
0.0157282
0.0158039
0.0158717
0.0159266
0.015968
0.0159976
0.016018
0.0160313
0.0160397
0.0160445
0.0160467
0.0152069
0.0152115
0.0152109
0.0152213
0.0152045
0.0152206
0.0152256
0.0152294
0.0152163
0.0152516
0.0152305
0.0152438
0.0152557
0.015268
0.0152751
0.0152795
0.0152257
0.015232
0.0152535
0.0152751
0.015294
0.0153094
0.0153229
0.0153322
0.0153373
0.0152192
0.0152431
0.0152727
0.0152997
0.0153253
0.015349
0.0153695
0.0153864
0.0153981
0.0154043
0.0152193
0.0152479
0.0152824
0.015316
0.015349
0.015381
0.0154103
0.0154354
0.0154551
0.0154686
0.0154755
0.0152258
0.0152432
0.0152824
0.0153219
0.0153619
0.015402
0.01544
0.0154735
0.0155011
0.0155221
0.0155361
0.0155431
0.0152164
0.0152321
0.0152727
0.015316
0.0153619
0.0154093
0.0154554
0.0154972
0.0155325
0.0155605
0.0155812
0.0155947
0.0156014
0.0152517
0.0152536
0.0152998
0.015349
0.015402
0.0154555
0.0155052
0.0155482
0.0155833
0.0156102
0.0156296
0.0156421
0.0156482
0.0152111
0.0152307
0.0152753
0.0153254
0.0153811
0.01544
0.0154972
0.0155482
0.0155908
0.0156243
0.0156495
0.0156673
0.0156785
0.015684
0.0152216
0.015244
0.0152942
0.0153492
0.0154105
0.0154736
0.0155326
0.0155833
0.0156243
0.0156559
0.0156792
0.0156953
0.0157054
0.0157103
0.0152049
0.015256
0.0153096
0.0153697
0.0154355
0.0155012
0.0155606
0.0156103
0.0156495
0.0156792
0.0157007
0.0157154
0.0157246
0.015729
0.0152209
0.0152684
0.0153232
0.0153866
0.0154553
0.0155222
0.0155813
0.0156297
0.0156673
0.0156953
0.0157154
0.015729
0.0157375
0.0157415
0.0152071
0.015226
0.0152754
0.0153326
0.0153984
0.0154688
0.0155362
0.0155948
0.0156421
0.0156786
0.0157054
0.0157246
0.0157375
0.0157454
0.0157492
0.0152118
0.0152299
0.0152799
0.0153377
0.0154046
0.0154757
0.0155433
0.0156015
0.0156482
0.015684
0.0157103
0.0157289
0.0157415
0.0157491
0.0157528
0.0149367
0.0149406
0.0149417
0.0149508
0.0149289
0.014942
0.0149457
0.014949
0.0149469
0.0149772
0.014952
0.0149629
0.0149727
0.0149827
0.0149881
0.0149918
0.0149555
0.0149543
0.0149723
0.0149903
0.0150057
0.0150182
0.0150292
0.0150367
0.0150409
0.0149438
0.0149643
0.0149891
0.0150116
0.0150328
0.0150525
0.0150695
0.0150837
0.0150937
0.015099
0.0149439
0.0149686
0.0149977
0.0150257
0.0150533
0.0150804
0.0151056
0.0151275
0.015145
0.0151571
0.0151633
0.0149556
0.0149644
0.0149977
0.0150308
0.0150646
0.0150989
0.0151322
0.0151624
0.0151878
0.0152074
0.0152207
0.0152274
0.014947
0.0149544
0.0149892
0.0150258
0.0150646
0.0151054
0.0151463
0.0151845
0.0152178
0.0152449
0.0152653
0.0152788
0.0152856
0.0149773
0.0149724
0.0150117
0.0150534
0.015099
0.0151464
0.0151921
0.0152331
0.0152676
0.0152949
0.0153149
0.0153281
0.0153346
0.0149419
0.0149522
0.0149905
0.015033
0.0150805
0.0151323
0.0151846
0.0152331
0.0152751
0.0153095
0.0153361
0.0153553
0.0153677
0.0153738
0.0149511
0.0149632
0.015006
0.0150527
0.0151057
0.0151625
0.0152179
0.0152676
0.0153095
0.015343
0.0153684
0.0153866
0.0153982
0.0154038
0.0149293
0.014973
0.0150185
0.0150698
0.0151276
0.0151879
0.015245
0.0152949
0.0153361
0.0153684
0.0153927
0.0154098
0.0154207
0.015426
0.0149425
0.0149831
0.0150295
0.015084
0.0151452
0.0152076
0.0152654
0.015315
0.0153553
0.0153866
0.0154098
0.0154261
0.0154365
0.0154415
0.0149371
0.0149463
0.0149886
0.0150371
0.015094
0.0151573
0.0152209
0.0152789
0.0153281
0.0153677
0.0153982
0.0154207
0.0154364
0.0154464
0.0154512
0.0149411
0.0149496
0.0149924
0.0150414
0.0150993
0.0151636
0.0152277
0.0152857
0.0153346
0.0153738
0.0154039
0.015426
0.0154414
0.0154512
0.0154559
0.0146773
0.014681
0.0146836
0.0146917
0.0146667
0.0146775
0.0146798
0.0146827
0.0146891
0.0147157
0.0146878
0.0146966
0.0147042
0.014712
0.0147159
0.014719
0.0146974
0.0146912
0.0147059
0.0147205
0.0147327
0.0147423
0.0147507
0.0147564
0.0147597
0.014683
0.0147004
0.0147209
0.014739
0.0147558
0.0147714
0.0147849
0.0147962
0.0148042
0.0148085
0.014683
0.0147043
0.0147286
0.0147512
0.0147733
0.0147952
0.0148159
0.0148341
0.0148489
0.0148593
0.0148647
0.0146975
0.0147005
0.0147286
0.0147556
0.0147829
0.0148112
0.0148391
0.0148651
0.0148874
0.014905
0.0149171
0.0149233
0.0146892
0.0146913
0.014721
0.0147513
0.014783
0.0148168
0.0148516
0.0148851
0.0149151
0.0149401
0.0149594
0.0149723
0.0149788
0.0147158
0.014706
0.0147391
0.0147734
0.0148112
0.0148516
0.014892
0.0149294
0.0149619
0.0149882
0.015008
0.0150211
0.0150276
0.0146838
0.014688
0.0147207
0.014756
0.0147953
0.0148392
0.0148851
0.0149294
0.0149692
0.0150027
0.0150293
0.0150489
0.0150617
0.0150681
0.014692
0.0146969
0.014733
0.0147716
0.0148161
0.0148652
0.0149152
0.0149619
0.0150027
0.0150363
0.0150626
0.0150816
0.0150941
0.0151002
0.0146671
0.0147046
0.0147426
0.0147852
0.0148343
0.0148876
0.0149403
0.0149883
0.0150293
0.0150626
0.0150882
0.0151067
0.0151186
0.0151245
0.014678
0.0147125
0.0147511
0.0147966
0.0148492
0.0149052
0.0149595
0.015008
0.0150489
0.0150817
0.0151067
0.0151246
0.0151361
0.0151418
0.0146779
0.0146804
0.0147165
0.0147569
0.0148046
0.0148596
0.0149173
0.0149724
0.0150211
0.0150618
0.0150941
0.0151186
0.0151361
0.0151474
0.0151529
0.0146817
0.0146835
0.0147197
0.0147603
0.014809
0.0148651
0.0149235
0.014979
0.0150277
0.0150681
0.0151002
0.0151245
0.0151418
0.0151529
0.0151583
0.0144263
0.0144299
0.0144344
0.0144418
0.0144159
0.0144243
0.014425
0.0144278
0.0144404
0.0144646
0.0144353
0.0144421
0.0144474
0.0144529
0.0144553
0.0144579
0.0144492
0.01444
0.0144516
0.0144629
0.0144719
0.0144784
0.014484
0.0144878
0.0144904
0.0144352
0.014449
0.0144653
0.0144788
0.0144911
0.0145025
0.0145122
0.0145205
0.0145264
0.0145298
0.0144352
0.0144527
0.0144721
0.0144892
0.0145057
0.0145221
0.014538
0.0145523
0.0145641
0.0145726
0.014577
0.0144492
0.0144491
0.0144721
0.014493
0.0145137
0.0145354
0.0145576
0.0145789
0.0145977
0.0146128
0.0146234
0.0146289
0.0144406
0.0144401
0.0144653
0.0144893
0.0145137
0.0145402
0.0145683
0.0145964
0.0146225
0.0146448
0.0146622
0.0146742
0.0146802
0.0144648
0.0144518
0.0144789
0.0145058
0.0145355
0.0145683
0.0146025
0.0146355
0.014665
0.0146895
0.0147082
0.0147208
0.0147272
0.0144346
0.0144356
0.0144631
0.0144913
0.0145222
0.0145577
0.0145965
0.0146355
0.0146718
0.0147034
0.014729
0.0147483
0.0147611
0.0147675
0.0144421
0.0144424
0.0144722
0.0145027
0.0145382
0.0145791
0.0146226
0.014665
0.0147034
0.014736
0.014762
0.0147813
0.0147939
0.0148002
0.0144164
0.0144478
0.0144788
0.0145125
0.0145525
0.0145979
0.0146449
0.0146895
0.0147291
0.014762
0.0147879
0.014807
0.0148195
0.0148256
0.014425
0.0144535
0.0144845
0.0145209
0.0145644
0.0146131
0.0146624
0.0147083
0.0147483
0.0147813
0.014807
0.0148258
0.014838
0.0148441
0.0144271
0.0144258
0.0144561
0.0144885
0.0145269
0.0145729
0.0146236
0.0146743
0.0147209
0.0147611
0.014794
0.0148195
0.014838
0.0148501
0.014856
0.0144309
0.0144289
0.0144588
0.0144911
0.0145304
0.0145775
0.0146291
0.0146804
0.0147273
0.0147675
0.0148003
0.0148256
0.014844
0.014856
0.0148619
0.014181
0.014185
0.0141921
0.0141995
0.0141754
0.0141807
0.0141795
0.0141827
0.0141991
0.0142222
0.0141932
0.0141975
0.0142
0.0142027
0.0142036
0.014206
0.0142088
0.0141994
0.0142077
0.0142152
0.0142206
0.0142236
0.0142261
0.0142279
0.0142297
0.0142011
0.0142083
0.0142199
0.0142283
0.0142357
0.0142424
0.0142481
0.0142531
0.014257
0.0142594
0.0142011
0.0142117
0.0142258
0.0142368
0.014247
0.0142577
0.0142685
0.0142787
0.0142875
0.0142939
0.0142975
0.0142089
0.0142083
0.0142258
0.0142399
0.0142533
0.0142682
0.0142845
0.0143009
0.0143159
0.0143284
0.0143374
0.0143421
0.0141992
0.0141995
0.0142199
0.0142369
0.0142534
0.014272
0.0142933
0.0143158
0.0143376
0.0143569
0.0143723
0.014383
0.0143886
0.0142223
0.0142078
0.0142284
0.0142471
0.0142683
0.0142933
0.014321
0.0143491
0.0143752
0.0143975
0.0144149
0.0144268
0.0144328
0.0141923
0.0141934
0.0142154
0.0142358
0.0142578
0.0142845
0.0143158
0.0143492
0.0143815
0.0144106
0.0144348
0.0144532
0.0144657
0.0144719
0.0141998
0.0141979
0.0142209
0.0142426
0.0142687
0.014301
0.0143377
0.0143753
0.0144106
0.0144415
0.0144667
0.0144856
0.0144983
0.0145046
0.0141761
0.0142005
0.014224
0.0142485
0.0142789
0.0143161
0.014357
0.0143976
0.0144348
0.0144667
0.0144923
0.0145114
0.0145241
0.0145303
0.0141815
0.0142034
0.0142266
0.0142536
0.0142878
0.0143287
0.0143725
0.014415
0.0144533
0.0144857
0.0145114
0.0145305
0.0145431
0.0145493
0.014182
0.0141806
0.0142045
0.0142287
0.0142575
0.0142943
0.0143376
0.0143832
0.0144269
0.0144657
0.0144983
0.0145241
0.0145431
0.0145555
0.0145617
0.0141863
0.014184
0.0142071
0.0142306
0.0142601
0.014298
0.0143424
0.0143888
0.0144329
0.014472
0.0145046
0.0145303
0.0145493
0.0145617
0.0145678
0.0139374
0.0139425
0.0139537
0.0139629
0.0139462
0.0139453
0.0139418
0.0139461
0.0139621
0.013987
0.0139609
0.0139617
0.0139601
0.0139586
0.013958
0.0139604
0.0139746
0.013969
0.0139724
0.0139748
0.0139756
0.0139743
0.013973
0.0139728
0.0139739
0.0139915
0.0139764
0.013982
0.0139841
0.0139855
0.0139871
0.0139885
0.0139902
0.013992
0.0139935
0.0139915
0.0139791
0.0139858
0.01399
0.0139931
0.0139977
0.0140035
0.0140096
0.0140154
0.0140201
0.0140228
0.0139746
0.0139764
0.0139858
0.0139921
0.0139976
0.0140054
0.0140157
0.0140275
0.0140391
0.0140491
0.0140565
0.0140605
0.0139621
0.013969
0.013982
0.01399
0.0139976
0.0140082
0.0140227
0.0140399
0.0140577
0.0140741
0.0140877
0.0140973
0.0141023
0.0139871
0.0139724
0.0139841
0.0139932
0.0140054
0.0140228
0.0140444
0.0140679
0.0140907
0.0141108
0.0141269
0.014138
0.0141436
0.0139539
0.013961
0.013975
0.0139857
0.0139978
0.0140158
0.01404
0.0140679
0.0140965
0.014123
0.0141457
0.0141633
0.0141752
0.0141813
0.0139632
0.013962
0.0139759
0.0139873
0.0140036
0.0140276
0.0140578
0.0140908
0.014123
0.0141521
0.0141762
0.0141947
0.0142071
0.0142134
0.0139469
0.0139606
0.0139747
0.0139888
0.0140098
0.0140392
0.0140742
0.0141109
0.0141457
0.0141762
0.0142013
0.0142202
0.0142328
0.0142391
0.0139462
0.0139594
0.0139736
0.0139906
0.0140157
0.0140493
0.0140878
0.014127
0.0141633
0.0141947
0.0142202
0.0142393
0.014252
0.0142583
0.0139386
0.0139431
0.013959
0.0139736
0.0139926
0.0140205
0.0140568
0.0140975
0.014138
0.0141753
0.0142071
0.0142328
0.014252
0.0142646
0.0142709
0.0139441
0.0139478
0.0139617
0.013975
0.0139943
0.0140233
0.0140608
0.0141025
0.0141437
0.0141813
0.0142134
0.0142391
0.0142582
0.0142709
0.0142772
0.0136891
0.0136969
0.0137126
0.0137291
0.0137341
0.0137156
0.0137096
0.0137168
0.0137233
0.0137593
0.0137388
0.0137329
0.0137247
0.0137166
0.013714
0.013717
0.0137447
0.0137483
0.0137432
0.0137376
0.0137317
0.0137248
0.0137194
0.0137172
0.013718
0.0138329
0.0137561
0.0137466
0.0137404
0.0137351
0.0137309
0.0137279
0.0137266
0.0137267
0.0137277
0.0138329
0.0137614
0.0137487
0.0137427
0.0137382
0.0137368
0.0137379
0.0137406
0.0137442
0.0137474
0.0137496
0.0137447
0.013756
0.0137486
0.0137437
0.0137406
0.0137417
0.013747
0.013755
0.0137639
0.0137721
0.0137784
0.0137819
0.0137232