/*--------------------------------*- C++ -*----------------------------------*\
| =========                 |                                                 |
| \\      /  F ield         | OpenFOAM: The Open Source CFD Toolbox           |
|  \\    /   O peration     | Version:  2.1.1                                 |
|   \\  /    A nd           | Web:      www.OpenFOAM.org                      |
|    \\/     M anipulation  |                                                 |
\*---------------------------------------------------------------------------*/
FoamFile
{
    version     2.0;
    format      ascii;
    class       volScalarField;
    location    "0.145";
    object      p;
}
// * * * * * * * * * * * * * * * * * * * * * * * * * * * * * * * * * * * * * //

dimensions      [0 2 -2 0 0 0 0];

internalField   nonuniform List<scalar> 
163952
(
0.0416789
0.0411026
0.0363668
0.031172
0.0299752
0.0273638
0.0267736
0.0264499
0.0366871
0.032345
0.0273034
0.0248136
0.0235699
0.0227909
0.0224765
0.0223353
0.0337184
0.0279815
0.0244777
0.022838
0.0219253
0.0213874
0.0210486
0.0208683
0.0207827
0.0335883
0.0260894
0.023255
0.0219083
0.0211529
0.0206741
0.0203544
0.0201427
0.0200165
0.0199529
0.0335897
0.0255476
0.0227309
0.0214526
0.0207376
0.0202738
0.0199497
0.0197188
0.0195593
0.0194587
0.0194062
0.0337191
0.0260898
0.022731
0.0213092
0.0205466
0.0200577
0.0197122
0.0194581
0.0192715
0.0191393
0.0190537
0.0190082
0.0366875
0.027982
0.0232554
0.0214529
0.0205467
0.0199883
0.0195999
0.0193131
0.0190974
0.0189367
0.0188217
0.0187461
0.0187056
0.0323459
0.0244784
0.021909
0.0207381
0.0200581
0.0196001
0.0192664
0.0190146
0.0188232
0.0186798
0.0185766
0.0185082
0.0184714
0.036368
0.0273044
0.0228389
0.0211537
0.0202745
0.0197127
0.0193135
0.0190147
0.0187866
0.0186122
0.018481
0.0183862
0.0183233
0.0182892
0.0311734
0.0248148
0.0219264
0.0206751
0.0199506
0.0194588
0.0190979
0.0188235
0.0186123
0.0184502
0.0183279
0.0182393
0.0181802
0.0181481
0.0299766
0.0235713
0.0213886
0.0203555
0.0197198
0.0192723
0.0189374
0.0186803
0.0184814
0.0183281
0.0182121
0.0181279
0.0180716
0.0180411
0.0273653
0.0227923
0.02105
0.020144
0.0195604
0.0191403
0.0188225
0.0185772
0.0183867
0.0182396
0.018128
0.0180468
0.0179926
0.0179631
0.0416805
0.0267753
0.0224781
0.0208698
0.0200179
0.0194599
0.0190548
0.0187471
0.0185091
0.0183239
0.0181807
0.0180719
0.0179927
0.0179397
0.0179109
0.0411043
0.0264516
0.0223369
0.0207843
0.0199544
0.0194076
0.0190094
0.0187067
0.0184723
0.0182899
0.0181487
0.0180415
0.0179634
0.017911
0.0178826
0.0235049
0.0235617
0.0224999
0.0237091
0.0224401
0.0221259
0.022081
0.0220601
0.0226048
0.0244187
0.0221058
0.0217935
0.0215329
0.021342
0.0212672
0.0212154
0.0233831
0.0221579
0.0217399
0.0213279
0.020987
0.0207083
0.0205235
0.0204274
0.0203779
0.0221277
0.0218373
0.0214
0.0209586
0.0205658
0.0202545
0.0200182
0.0198585
0.0197662
0.0197219
0.0221285
0.0217082
0.021216
0.020712
0.020285
0.0199424
0.0196828
0.0194914
0.0193596
0.0192792
0.0192406
0.0233838
0.0218378
0.0212162
0.0206322
0.0201432
0.0197651
0.0194758
0.0192579
0.019097
0.0189847
0.0189143
0.0188802
0.0226057
0.0221586
0.0214005
0.0207124
0.0201434
0.0197067
0.0193772
0.0191267
0.0189373
0.0187968
0.0186977
0.0186348
0.0186042
0.0244196
0.0217407
0.0209593
0.0202855
0.0197655
0.0193774
0.0190844
0.0188611
0.0186915
0.0185651
0.0184754
0.018418
0.0183899
0.022501
0.0221069
0.0213289
0.0205666
0.0199431
0.0194764
0.019127
0.0188613
0.0186575
0.0185019
0.0183855
0.0183025
0.0182491
0.018223
0.0237104
0.0217948
0.0209882
0.0202555
0.0196836
0.0192586
0.0189378
0.0186918
0.018502
0.0183564
0.0182472
0.018169
0.0181186
0.0180939
0.0224415
0.0215343
0.0207096
0.0200194
0.0194924
0.0190979
0.0187975
0.0185656
0.0183858
0.0182473
0.0181431
0.0180685
0.0180202
0.0179965
0.0221275
0.0213435
0.0205249
0.0198598
0.0193607
0.0189857
0.0186986
0.0184761
0.018303
0.0181694
0.0180686
0.0179963
0.0179496
0.0179266
0.0235066
0.0220827
0.0212689
0.0204289
0.0197677
0.0192805
0.0189154
0.0186358
0.0184188
0.0182497
0.0181191
0.0180205
0.0179497
0.0179039
0.0178814
0.0235635
0.0220619
0.0212172
0.0203795
0.0197234
0.0192421
0.0188815
0.0186053
0.0183908
0.0182237
0.0180945
0.017997
0.0179269
0.0178815
0.0178592
0.0198612
0.0198755
0.0199406
0.0203225
0.0205459
0.0204302
0.0203226
0.020282
0.0199476
0.0207915
0.0203412
0.0202631
0.0201682
0.0201294
0.0200999
0.0200745
0.0201581
0.0203553
0.0202548
0.0201342
0.0199974
0.0198528
0.0197614
0.0197063
0.0196759
0.0205055
0.0202884
0.0201633
0.0199833
0.0197913
0.0196253
0.0194854
0.0193853
0.019323
0.0192916
0.0205064
0.0202434
0.0200904
0.0198687
0.0196437
0.019441
0.0192748
0.0191434
0.0190487
0.0189887
0.018959
0.0201587
0.020289
0.0200906
0.019831
0.019565
0.0193314
0.0191349
0.0189765
0.0188537
0.0187652
0.0187085
0.0186806
0.0199484
0.020356
0.0201639
0.0198691
0.0195652
0.0192941
0.0190657
0.0188783
0.0187292
0.0186147
0.0185321
0.0184788
0.0184526
0.0207924
0.0202557
0.019984
0.0196443
0.0193318
0.0190659
0.0188461
0.0186682
0.0185278
0.0184204
0.0183429
0.0182927
0.0182681
0.0199418
0.0203424
0.0201352
0.0197922
0.0194417
0.0191354
0.0188787
0.0186684
0.0184994
0.0183664
0.0182648
0.0181914
0.0181438
0.0181204
0.0203238
0.0202644
0.0199986
0.0196264
0.0192757
0.0189772
0.0187297
0.0185281
0.0183665
0.0182394
0.0181424
0.0180722
0.0180266
0.0180042
0.0205475
0.0201697
0.0198542
0.0194867
0.0191445
0.0188546
0.0186154
0.018421
0.0182651
0.0181425
0.0180489
0.0179812
0.0179371
0.0179154
0.0204319
0.020131
0.0197629
0.0193867
0.0190499
0.0187663
0.0185329
0.0183436
0.0181919
0.0180725
0.0179813
0.0179153
0.0178724
0.0178512
0.019863
0.0203244
0.0201017
0.019708
0.0193245
0.01899
0.0187097
0.0184798
0.0182936
0.0181445
0.0180271
0.0179375
0.0178725
0.0178303
0.0178095
0.0198774
0.0202839
0.0200763
0.0196776
0.0192932
0.0189605
0.018682
0.0184538
0.0182691
0.0181212
0.0180048
0.0179159
0.0178515
0.0178096
0.0177889
0.0185139
0.0185242
0.0186315
0.0188584
0.0191892
0.0191888
0.0191362
0.0191142
0.0186466
0.0190724
0.0191124
0.0190998
0.0190704
0.0190718
0.0190705
0.0190669
0.0187876
0.0191165
0.0191039
0.0190968
0.019068
0.0190162
0.0189803
0.0189549
0.0189405
0.0192201
0.01912
0.0191139
0.0190636
0.0189973
0.018933
0.0188701
0.0188202
0.0187855
0.0187671
0.0192209
0.0191005
0.0190954
0.0190323
0.0189427
0.0188493
0.0187634
0.0186888
0.0186316
0.0185934
0.018574
0.0187882
0.0191206
0.0190956
0.0190212
0.0189123
0.0187961
0.0186857
0.0185886
0.0185081
0.0184475
0.0184075
0.0183874
0.0186475
0.0191173
0.0191145
0.0190327
0.0189126
0.0187777
0.0186456
0.0185259
0.0184241
0.018342
0.0182807
0.0182403
0.0182202
0.0190734
0.0191049
0.0190644
0.0189433
0.0187965
0.0186458
0.018505
0.0183815
0.0182785
0.0181968
0.0181362
0.0180963
0.0180765
0.0186327
0.0191136
0.0190979
0.0189983
0.0188501
0.0186863
0.0185263
0.0183817
0.0182575
0.0181552
0.0180746
0.0180151
0.017976
0.0179565
0.0188598
0.0191012
0.0190693
0.0189341
0.0187644
0.0185894
0.0184247
0.0182789
0.0181554
0.0180543
0.0179751
0.0179168
0.0178785
0.0178594
0.0191909
0.019072
0.0190176
0.0188714
0.01869
0.0185091
0.0183427
0.0181974
0.0180749
0.0179753
0.0178974
0.0178401
0.0178025
0.0177838
0.0191906
0.0190735
0.0189819
0.0188217
0.018633
0.0184487
0.0182817
0.0181369
0.0180156
0.0179172
0.0178403
0.0177838
0.0177468
0.0177284
0.0185158
0.0191382
0.0190723
0.0189566
0.0187871
0.0185949
0.0184087
0.0182414
0.0180972
0.0179767
0.017879
0.0178028
0.0177469
0.0177102
0.017692
0.0185262
0.0191162
0.0190689
0.0189424
0.0187688
0.0185755
0.0183888
0.0182214
0.0180775
0.0179574
0.0178601
0.0177843
0.0177287
0.0176922
0.017674
0.0177959
0.017804
0.0178573
0.0180058
0.0182222
0.0182655
0.0182558
0.0182542
0.0178825
0.0181148
0.0182226
0.0182416
0.0182469
0.0182592
0.0182673
0.0182718
0.0179725
0.0182243
0.0182505
0.0182834
0.0183017
0.0183011
0.018298
0.0182919
0.0182875
0.0182571
0.0182465
0.0182903
0.0183035
0.0183037
0.018296
0.0182805
0.0182644
0.0182505
0.0182425
0.0182577
0.0182415
0.0182974
0.0183127
0.0183002
0.0182749
0.0182433
0.0182104
0.0181825
0.0181624
0.0181518
0.0179732
0.018247
0.0182975
0.0183155
0.0182974
0.0182582
0.0182104
0.0181615
0.0181168
0.0180811
0.0180563
0.0180437
0.0178835
0.0182252
0.018291
0.0183132
0.0182977
0.0182523
0.018192
0.018128
0.0180679
0.0180161
0.0179758
0.0179483
0.0179344
0.0181159
0.0182515
0.0183044
0.0183008
0.0182587
0.0181922
0.0181165
0.018042
0.017975
0.0179191
0.0178762
0.0178473
0.0178328
0.0178587
0.018224
0.0182847
0.0183047
0.0182758
0.018211
0.0181284
0.0180422
0.0179611
0.0178902
0.017832
0.0177878
0.0177582
0.0177433
0.0180074
0.0182431
0.0183032
0.0182972
0.0182444
0.0181624
0.0180685
0.0179754
0.0178904
0.0178172
0.0177578
0.017713
0.0176831
0.0176681
0.018224
0.0182487
0.0183027
0.018282
0.0182116
0.0181179
0.0180169
0.0179197
0.0178324
0.017758
0.0176981
0.017653
0.017623
0.017608
0.0182675
0.0182611
0.0182998
0.018266
0.0181839
0.0180823
0.0179768
0.017877
0.0177884
0.0177134
0.0176532
0.0176081
0.0175781
0.0175631
0.017798
0.018258
0.0182694
0.0182938
0.0182523
0.018164
0.0180577
0.0179495
0.0178483
0.0177589
0.0176836
0.0176234
0.0175782
0.0175483
0.0175333
0.0178062
0.0182564
0.018274
0.0182895
0.0182444
0.0181535
0.0180452
0.0179357
0.0178339
0.0177442
0.0176688
0.0176085
0.0175634
0.0175334
0.0175185
0.0172856
0.0172923
0.0173053
0.017398
0.0175232
0.0175733
0.0175784
0.0175844
0.0173278
0.0174716
0.0175535
0.0175843
0.0176056
0.0176248
0.0176353
0.0176412
0.0173828
0.0175543
0.0175956
0.0176396
0.0176734
0.0176939
0.0177077
0.0177133
0.0177151
0.0175551
0.0175818
0.0176399
0.0176783
0.0177073
0.017727
0.017737
0.0177412
0.0177414
0.0177406
0.0175556
0.0175863
0.0176568
0.0177027
0.0177281
0.0177408
0.017743
0.0177382
0.0177313
0.017725
0.0177212
0.0173835
0.0175824
0.017657
0.0177114
0.0177389
0.017746
0.0177401
0.0177262
0.0177092
0.0176934
0.0176815
0.0176751
0.0173288
0.0175552
0.0176406
0.0177032
0.0177392
0.0177478
0.0177369
0.0177148
0.0176882
0.0176619
0.0176398
0.0176239
0.0176157
0.0174729
0.0175968
0.0176792
0.0177288
0.0177465
0.0177371
0.0177105
0.0176759
0.01764
0.0176072
0.0175807
0.0175622
0.0175527
0.0173069
0.017555
0.017641
0.0177085
0.0177418
0.0177408
0.0177153
0.0176762
0.0176323
0.0175898
0.0175526
0.0175232
0.0175029
0.0174926
0.0173998
0.0175861
0.017675
0.0177284
0.0177442
0.0177272
0.0176889
0.0176404
0.01759
0.0175431
0.017503
0.0174716
0.0174502
0.0174394
0.0175252
0.0176075
0.0176957
0.0177386
0.0177396
0.0177103
0.0176628
0.0176079
0.0175531
0.0175032
0.0174611
0.0174286
0.0174065
0.0173953
0.0175756
0.0176269
0.0177097
0.017743
0.0177329
0.0176948
0.0176409
0.0175815
0.0175238
0.017472
0.0174288
0.0173955
0.0173729
0.0173615
0.0172879
0.0175808
0.0176376
0.0177154
0.0177433
0.0177267
0.017683
0.0176252
0.0175632
0.0175037
0.0174508
0.0174068
0.0173731
0.0173503
0.0173388
0.0172947
0.0175869
0.0176436
0.0177173
0.0177427
0.0177231
0.0176768
0.0176171
0.0175539
0.0174936
0.0174401
0.0173958
0.0173619
0.0173389
0.0173274
0.0168521
0.0168596
0.0168529
0.0169125
0.0169793
0.0170252
0.0170342
0.0170419
0.0168712
0.0169723
0.0170194
0.0170506
0.0170756
0.0170983
0.0171104
0.017117
0.0169058
0.0170199
0.0170633
0.0171072
0.0171435
0.0171701
0.0171907
0.0172023
0.0172075
0.0170073
0.0170457
0.0171042
0.0171497
0.0171888
0.0172201
0.0172424
0.0172576
0.017266
0.0172696
0.0170077
0.0170536
0.0171229
0.0171778
0.0172197
0.0172516
0.0172732
0.017286
0.0172931
0.0172963
0.0172974
0.0169066
0.0170464
0.0171231
0.0171881
0.0172363
0.0172691
0.0172892
0.0172989
0.0173016
0.0173008
0.0172988
0.0172974
0.0168724
0.017021
0.017105
0.0171784
0.0172366
0.0172751
0.0172959
0.0173032
0.0173016
0.0172953
0.0172879
0.0172817
0.0172782
0.0169737
0.0170646
0.0171508
0.0172205
0.0172697
0.0172961
0.0173042
0.0172999
0.0172888
0.0172753
0.0172627
0.0172533
0.0172483
0.0168547
0.0170212
0.0171087
0.0171902
0.0172527
0.01729
0.0173037
0.0173002
0.0172862
0.0172677
0.0172488
0.0172325
0.0172207
0.0172146
0.0169145
0.0170526
0.0171453
0.0172217
0.0172746
0.0173
0.0173024
0.0172893
0.0172679
0.0172439
0.0172211
0.0172021
0.0171887
0.0171817
0.0169817
0.0170779
0.0171722
0.0172442
0.0172876
0.0173029
0.0172963
0.017276
0.0172493
0.0172213
0.0171958
0.017175
0.0171604
0.0171529
0.0170277
0.0171008
0.017193
0.0172597
0.0172949
0.0173023
0.0172891
0.0172637
0.0172332
0.0172026
0.0171752
0.0171532
0.0171379
0.01713
0.0168547
0.0170369
0.017113
0.0172047
0.0172682
0.0172983
0.0173005
0.0172831
0.0172545
0.0172216
0.0171894
0.0171608
0.017138
0.0171223
0.0171142
0.0168623
0.0170448
0.0171197
0.0172101
0.017272
0.0172995
0.0172993
0.0172798
0.0172496
0.0172156
0.0171826
0.0171535
0.0171304
0.0171144
0.0171062
0.0164619
0.0164698
0.0164595
0.0164984
0.0165304
0.0165685
0.0165782
0.0165857
0.0164732
0.0165503
0.0165715
0.0165988
0.0166222
0.0166448
0.0166571
0.0166641
0.0164964
0.016572
0.0166118
0.0166518
0.0166858
0.0167124
0.0167343
0.016748
0.0167547
0.0165542
0.0165938
0.0166475
0.0166926
0.0167331
0.0167676
0.0167947
0.0168149
0.0168275
0.0168335
0.0165547
0.0166018
0.0166648
0.0167197
0.0167668
0.0168068
0.016838
0.0168606
0.0168761
0.0168853
0.0168895
0.0164973
0.0165945
0.0166651
0.0167298
0.016785
0.0168301
0.0168646
0.0168888
0.0169045
0.016914
0.0169191
0.0169213
0.0164745
0.0165732
0.0166485
0.0167204
0.0167854
0.0168382
0.0168773
0.0169034
0.016919
0.0169272
0.0169309
0.0169322
0.0169324
0.0165519
0.0166134
0.0166938
0.0167677
0.0168308
0.0168776
0.016908
0.016925
0.0169324
0.0169339
0.0169326
0.0169306
0.0169293
0.0164616
0.0165735
0.0166536
0.0167346
0.016808
0.0168656
0.016904
0.0169253
0.0169338
0.0169341
0.0169302
0.016925
0.0169204
0.0169178
0.0165008
0.0166012
0.016688
0.0167695
0.0168396
0.0168901
0.0169199
0.016933
0.0169344
0.0169291
0.016921
0.0169128
0.0169064
0.0169028
0.0165331
0.0166248
0.0167148
0.0167968
0.0168624
0.016906
0.0169284
0.0169348
0.0169307
0.0169213
0.01691
0.0168996
0.0168918
0.0168877
0.0165714
0.0166476
0.0167369
0.0168173
0.0168781
0.0169157
0.0169323
0.0169337
0.0169257
0.0169133
0.0168999
0.016888
0.0168793
0.0168746
0.0164648
0.0165812
0.0166601
0.0167508
0.01683
0.0168875
0.016921
0.0169338
0.0169319
0.0169214
0.0169071
0.0168923
0.0168795
0.0168702
0.0168653
0.0164729
0.016589
0.0166672
0.0167576
0.0168361
0.0168919
0.0169233
0.0169342
0.0169307
0.016919
0.0169037
0.0168883
0.0168751
0.0168655
0.0168604
0.0161063
0.0161137
0.0161061
0.0161319
0.0161434
0.0161738
0.0161827
0.0161893
0.0161163
0.0161777
0.0161818
0.0162047
0.0162249
0.0162452
0.0162567
0.0162632
0.0161332
0.0161824
0.0162173
0.0162523
0.0162824
0.0163066
0.0163273
0.0163408
0.0163478
0.0161641
0.0162005
0.0162478
0.0162892
0.0163273
0.016361
0.0163885
0.01641
0.0164241
0.016431
0.0161645
0.0162079
0.0162631
0.0163139
0.0163601
0.0164017
0.0164365
0.0164635
0.0164832
0.0164957
0.0165017
0.0161343
0.0162013
0.0162634
0.016323
0.0163781
0.016427
0.0164681
0.0165
0.0165233
0.0165392
0.0165489
0.0165534
0.0161179
0.0161839
0.016249
0.0163146
0.0163784
0.016436
0.0164838
0.0165206
0.0165471
0.016565
0.0165764
0.016583
0.016586
0.0161796
0.0162191
0.0162907
0.0163613
0.0164278
0.0164841
0.0165274
0.0165581
0.0165783
0.0165908
0.0165979
0.0166016
0.0166031
0.0161085
0.0161842
0.0162544
0.0163291
0.0164032
0.0164692
0.0165213
0.0165584
0.0165826
0.0165968
0.0166044
0.0166079
0.0166092
0.0166095
0.0161347
0.0162074
0.0162849
0.0163631
0.0164383
0.0165014
0.0165481
0.016579
0.0165972
0.0166064
0.01661
0.0166105
0.0166099
0.0166093
0.0161466
0.0162279
0.0163094
0.016391
0.0164656
0.016525
0.0165663
0.0165917
0.016605
0.0166103
0.0166108
0.0166091
0.0166071
0.0166057
0.0161773
0.0162484
0.0163303
0.0164127
0.0164855
0.0165411
0.016578
0.0165991
0.0166088
0.0166111
0.0166094
0.0166061
0.0166031
0.0166013
0.0161097
0.0161863
0.0162601
0.016344
0.016427
0.0164982
0.0165511
0.0165848
0.016603
0.0166103
0.0166107
0.0166075
0.0166033
0.0165996
0.0165975
0.0161173
0.0161931
0.0162668
0.0163511
0.0164341
0.0165044
0.0165558
0.016588
0.0166047
0.0166108
0.0166102
0.0166064
0.0166017
0.0165977
0.0165955
0.0157799
0.0157863
0.0157823
0.0157999
0.0157987
0.0158228
0.0158303
0.0158357
0.0157904
0.0158405
0.0158331
0.015852
0.015869
0.0158863
0.0158963
0.0159021
0.0158036
0.0158342
0.0158639
0.0158939
0.0159199
0.015941
0.0159593
0.0159716
0.0159781
0.0158173
0.0158494
0.0158901
0.0159266
0.0159606
0.0159914
0.0160172
0.0160379
0.0160518
0.0160588
0.0158178
0.015856
0.0159034
0.0159484
0.015991
0.0160306
0.0160651
0.016093
0.0161141
0.016128
0.0161348
0.0158049
0.0158503
0.0159038
0.0159566
0.0160077
0.0160556
0.016098
0.0161329
0.0161598
0.0161792
0.0161915
0.0161975
0.0157922
0.0158359
0.0158915
0.0159493
0.0160081
0.0160645
0.0161148
0.0161565
0.0161889
0.0162126
0.016229
0.0162391
0.0162439
0.0158428
0.0158661
0.0159283
0.0159923
0.0160565
0.0161152
0.0161645
0.016203
0.0162312
0.016251
0.016264
0.0162718
0.0162754
0.0157852
0.015836
0.0158964
0.0159628
0.0160323
0.0160993
0.0161573
0.0162034
0.0162374
0.0162612
0.016277
0.0162869
0.0162926
0.0162951
0.0158032
0.0158552
0.0159228
0.015994
0.0160672
0.0161346
0.0161901
0.016232
0.0162615
0.0162812
0.0162935
0.0163009
0.0163048
0.0163065
0.0158024
0.0158726
0.0159442
0.0160201
0.0160954
0.0161618
0.0162142
0.0162521
0.0162777
0.0162939
0.0163035
0.0163088
0.0163114
0.0163124
0.0158269
0.0158901
0.0159628
0.016041
0.0161168
0.0161814
0.0162308
0.0162654
0.0162879
0.0163015
0.0163091
0.0163128
0.0163145
0.016315
0.0157839
0.0158345
0.0159003
0.0159753
0.0160552
0.0161309
0.016194
0.0162411
0.0162734
0.0162938
0.0163057
0.0163119
0.0163147
0.0163157
0.0163159
0.0157904
0.0158401
0.0159063
0.0159819
0.0160624
0.0161379
0.0162001
0.0162461
0.0162772
0.0162965
0.0163076
0.0163131
0.0163155
0.0163162
0.0163162
0.015477
0.0154823
0.0154815
0.0154941
0.0154839
0.0155031
0.0155092
0.0155135
0.0154882
0.0155299
0.0155144
0.0155299
0.015544
0.0155584
0.0155666
0.0155716
0.0154991
0.0155162
0.0155413
0.0155666
0.0155885
0.0156063
0.0156219
0.0156326
0.0156382
0.0155014
0.0155292
0.0155638
0.0155952
0.0156247
0.0156517
0.0156746
0.0156933
0.0157061
0.0157127
0.0155019
0.0155351
0.0155755
0.0156143
0.0156519
0.0156876
0.0157197
0.0157464
0.015767
0.0157808
0.0157877
0.0155007
0.0155303
0.015576
0.0156216
0.015667
0.0157111
0.0157517
0.0157864
0.0158141
0.0158347
0.0158481
0.0158547
0.0154904
0.0155183
0.0155655
0.0156154
0.0156675
0.0157196
0.0157684
0.0158108
0.0158454
0.015872
0.015891
0.0159031
0.0159089
0.0155326
0.0155438
0.0155973
0.0156535
0.0157121
0.0157689
0.0158193
0.015861
0.0158935
0.0159176
0.0159343
0.0159448
0.0159498
0.0154849
0.0155179
0.0155696
0.0156273
0.0156897
0.0157532
0.0158118
0.0158615
0.0159008
0.0159304
0.0159516
0.015966
0.0159748
0.0159789
0.015498
0.0155338
0.015592
0.0156546
0.0157221
0.0157883
0.0158468
0.0158944
0.0159308
0.0159574
0.0159759
0.0159881
0.0159955
0.0159989
0.0154885
0.0155483
0.0156102
0.015678
0.0157492
0.0158164
0.0158737
0.0159188
0.0159524
0.0159763
0.0159925
0.016003
0.0160092
0.016012
0.015508
0.0155629
0.0156261
0.015697
0.0157701
0.0158373
0.015893
0.0159359
0.0159671
0.0159888
0.0160033
0.0160125
0.0160178
0.0160202
0.0154817
0.0155142
0.0155714
0.0156369
0.01571
0.0157841
0.0158509
0.0159053
0.0159466
0.0159761
0.0159964
0.0160098
0.0160181
0.0160228
0.0160249
0.0154872
0.0155188
0.0155765
0.0156428
0.0157167
0.0157912
0.0158577
0.0159114
0.0159517
0.0159805
0.016
0.0160128
0.0160207
0.0160251
0.0160271
0.0151924
0.0151967
0.0151984
0.0152087
0.0151914
0.0152067
0.0152113
0.0152149
0.0152044
0.0152397
0.0152185
0.0152311
0.0152426
0.0152543
0.0152608
0.0152649
0.015214
0.0152211
0.0152421
0.0152632
0.0152813
0.015296
0.0153088
0.0153175
0.0153223
0.0152085
0.0152325
0.0152618
0.0152882
0.015313
0.0153358
0.0153554
0.0153715
0.0153827
0.0153885
0.0152091
0.0152378
0.015272
0.0153049
0.015337
0.015368
0.0153963
0.0154204
0.0154393
0.0154522
0.0154587
0.0152159
0.0152338
0.0152726
0.0153113
0.0153503
0.0153892
0.015426
0.0154584
0.015485
0.0155052
0.0155186
0.0155253
0.0152071
0.0152236
0.0152637
0.0153062
0.015351
0.0153971
0.0154418
0.0154822
0.0155164
0.0155434
0.0155633
0.0155763
0.0155826
0.015243
0.0152452
0.0152907
0.0153389
0.0153904
0.0154424
0.0154906
0.0155323
0.0155662
0.0155923
0.0156109
0.0156229
0.0156287
0.0152027
0.0152227
0.0152669
0.0153161
0.0153704
0.0154277
0.0154833
0.0155328
0.0155741
0.0156065
0.0156308
0.0156479
0.0156587
0.0156639
0.0152135
0.0152359
0.0152855
0.0153394
0.0153992
0.0154606
0.0155179
0.0155672
0.015607
0.0156375
0.0156599
0.0156754
0.0156851
0.0156897
0.0151969
0.0152478
0.0153006
0.0153594
0.0154236
0.0154876
0.0155454
0.0155936
0.0156317
0.0156603
0.015681
0.0156952
0.0157039
0.015708
0.0152126
0.0152597
0.0153137
0.0153758
0.0154429
0.0155081
0.0155656
0.0156126
0.0156491
0.0156762
0.0156955
0.0157086
0.0157166
0.0157203
0.0151982
0.0152173
0.0152664
0.0153227
0.0153872
0.015456
0.0155218
0.0155788
0.0156248
0.0156601
0.0156861
0.0157045
0.0157169
0.0157244
0.0157279
0.0152027
0.0152211
0.0152707
0.0153276
0.0153931
0.0154627
0.0155286
0.0155853
0.0156308
0.0156655
0.0156909
0.0157089
0.0157209
0.0157282
0.0157316
0.0149219
0.0149254
0.0149293
0.0149379
0.0149158
0.0149281
0.0149312
0.0149341
0.0149352
0.0149656
0.0149403
0.0149505
0.0149596
0.0149688
0.0149735
0.0149768
0.0149439
0.0149441
0.0149614
0.0149787
0.0149933
0.0150048
0.0150148
0.0150216
0.0150253
0.0149334
0.0149542
0.0149788
0.0150005
0.0150207
0.0150393
0.0150552
0.0150684
0.0150776
0.0150824
0.0149342
0.0149589
0.0149878
0.015015
0.0150415
0.0150673
0.0150912
0.0151118
0.0151283
0.0151396
0.0151454
0.0149463
0.0149558
0.0149886
0.0150207
0.0150532
0.015086
0.0151178
0.0151466
0.0151707
0.0151894
0.015202
0.0152083
0.0149385
0.0149472
0.0149811
0.0150166
0.0150539
0.0150931
0.0151323
0.0151688
0.0152006
0.0152265
0.015246
0.0152589
0.0152652
0.0149697
0.0149652
0.0150035
0.0150437
0.0150875
0.0151329
0.0151768
0.0152161
0.0152492
0.0152754
0.0152946
0.0153072
0.0153133
0.0149345
0.0149455
0.0149832
0.0150244
0.0150701
0.0151199
0.0151701
0.0152167
0.0152572
0.0152902
0.0153157
0.0153342
0.015346
0.0153518
0.0149439
0.0149564
0.0149984
0.0150435
0.0150945
0.0151491
0.0152024
0.0152503
0.0152907
0.0153229
0.0153474
0.0153648
0.0153759
0.0153813
0.0149226
0.0149659
0.0150103
0.0150599
0.0151156
0.0151737
0.0152287
0.0152769
0.0153166
0.0153478
0.0153712
0.0153876
0.0153981
0.0154031
0.0149353
0.0149754
0.0150207
0.0150733
0.0151324
0.0151927
0.0152485
0.0152965
0.0153354
0.0153656
0.015388
0.0154037
0.0154136
0.0154183
0.014929
0.0149385
0.0149803
0.0150276
0.0150828
0.015144
0.0152055
0.0152616
0.0153093
0.0153476
0.015377
0.0153987
0.0154139
0.0154234
0.0154279
0.0149327
0.0149416
0.0149838
0.0150316
0.0150878
0.01515
0.015212
0.0152682
0.0153157
0.0153536
0.0153826
0.015404
0.0154189
0.0154282
0.0154327
0.0146622
0.0146652
0.0146712
0.0146787
0.0146537
0.0146635
0.0146649
0.0146673
0.0146775
0.0147045
0.0146765
0.0146844
0.0146912
0.0146979
0.014701
0.0147035
0.014686
0.0146817
0.0146957
0.0147093
0.0147204
0.0147288
0.0147359
0.0147406
0.0147434
0.0146729
0.0146909
0.0147112
0.0147283
0.0147439
0.014758
0.0147701
0.0147801
0.0147871
0.0147909
0.0146738
0.014695
0.0147192
0.0147409
0.0147616
0.0147818
0.0148009
0.0148175
0.0148311
0.0148405
0.0148454
0.0146889
0.0146928
0.0147201
0.0147459
0.0147716
0.0147979
0.014824
0.0148482
0.014869
0.0148854
0.0148967
0.0149023
0.0146815
0.0146855
0.014714
0.0147427
0.0147725
0.0148042
0.0148368
0.0148682
0.0148965
0.0149201
0.0149382
0.0149504
0.0149565
0.0147096
0.0147003
0.014732
0.0147642
0.0147996
0.0148375
0.0148755
0.014911
0.0149418
0.0149668
0.0149855
0.014998
0.0150041
0.0146778
0.0146831
0.0147148
0.0147483
0.0147851
0.0148263
0.0148696
0.0149116
0.0149494
0.0149814
0.0150068
0.0150255
0.0150378
0.0150438
0.0146862
0.0146917
0.0147266
0.0147631
0.0148048
0.0148511
0.0148984
0.0149429
0.0149819
0.0150141
0.0150393
0.0150576
0.0150694
0.0150753
0.0146622
0.014699
0.0147355
0.0147756
0.0148219
0.0148723
0.0149225
0.0149684
0.0150078
0.0150397
0.0150643
0.0150821
0.0150935
0.0150991
0.0146724
0.014706
0.0147429
0.0147859
0.0148357
0.014889
0.0149409
0.0149875
0.0150268
0.0150584
0.0150825
0.0150997
0.0151108
0.0151162
0.0146709
0.0146738
0.0147091
0.0147477
0.0147931
0.0148454
0.0149005
0.0149534
0.0150002
0.0150394
0.0150705
0.0150942
0.0151111
0.015122
0.0151272
0.0146741
0.0146764
0.0147118
0.0147507
0.014797
0.0148504
0.0149064
0.0149597
0.0150066
0.0150456
0.0150766
0.0151
0.0151168
0.0151275
0.0151327
0.0144107
0.0144134
0.014422
0.0144286
0.014403
0.0144105
0.0144098
0.014412
0.0144291
0.0144539
0.0144245
0.0144302
0.0144344
0.0144387
0.0144398
0.0144417
0.0144381
0.0144318
0.0144424
0.0144522
0.0144597
0.0144646
0.0144687
0.0144712
0.014473
0.0144252
0.0144403
0.0144562
0.0144686
0.0144792
0.0144886
0.0144966
0.0145032
0.0145079
0.0145105
0.0144263
0.0144434
0.0144631
0.0144791
0.0144937
0.0145081
0.0145219
0.0145342
0.0145445
0.0145518
0.0145556
0.0144416
0.0144425
0.0144642
0.0144835
0.0145021
0.0145214
0.0145412
0.0145604
0.0145773
0.014591
0.0146006
0.0146055
0.0144342
0.0144364
0.0144596
0.0144812
0.0145031
0.0145267
0.0145521
0.0145778
0.0146017
0.0146223
0.0146385
0.0146496
0.0146552
0.0144603
0.0144481
0.0144729
0.0144968
0.0145233
0.014553
0.0145843
0.0146149
0.0146424
0.0146654
0.0146831
0.014695
0.0147009
0.0144304
0.0144328
0.014459
0.0144845
0.0145119
0.0145439
0.0145793
0.0146156
0.0146496
0.0146794
0.0147037
0.014722
0.0147342
0.0147402
0.0144384
0.0144395
0.0144673
0.0144946
0.0145263
0.0145635
0.0146038
0.0146436
0.01468
0.014711
0.0147358
0.0147543
0.0147664
0.0147724
0.0144141
0.0144443
0.0144728
0.014503
0.0145391
0.0145809
0.0146249
0.0146671
0.0147047
0.0147363
0.0147612
0.0147795
0.0147915
0.0147974
0.0144217
0.0144486
0.014477
0.0145098
0.0145496
0.0145949
0.0146414
0.0146851
0.0147234
0.0147551
0.0147798
0.014798
0.0148097
0.0148155
0.0144215
0.0144207
0.0144496
0.0144794
0.0145146
0.0145571
0.0146047
0.0146527
0.0146973
0.0147358
0.0147675
0.0147921
0.01481
0.0148217
0.0148274
0.0144244
0.0144229
0.0144515
0.0144813
0.0145173
0.0145611
0.0146098
0.0146585
0.0147034
0.0147421
0.0147737
0.0147983
0.0148161
0.0148276
0.0148333
0.0141648
0.0141675
0.0141794
0.0141859
0.014163
0.0141674
0.0141638
0.0141662
0.0141878
0.014212
0.0141829
0.014186
0.0141873
0.0141884
0.0141874
0.0141888
0.0141984
0.0141935
0.0141998
0.0142051
0.0142083
0.0142093
0.0142098
0.0142098
0.0142107
0.0141905
0.0142007
0.0142116
0.0142183
0.0142233
0.0142276
0.014231
0.014234
0.0142362
0.0142377
0.0141916
0.014202
0.0142169
0.0142265
0.0142343
0.0142423
0.0142505
0.0142583
0.0142652
0.0142703
0.0142731
0.0142026
0.0142033
0.0142182
0.0142303
0.0142409
0.0142526
0.0142659
0.0142797
0.0142926
0.0143035
0.0143113
0.0143153
0.0141942
0.0141991
0.0142156
0.014229
0.014242
0.014257
0.0142748
0.0142944
0.0143137
0.0143311
0.0143452
0.014355
0.01436
0.0142202
0.0142069
0.0142236
0.0142379
0.0142547
0.0142758
0.0143001
0.0143254
0.0143493
0.0143699
0.0143862
0.0143973
0.0144029
0.0141905
0.0141937
0.0142135
0.0142296
0.0142466
0.0142688
0.014296
0.0143261
0.0143559
0.0143831
0.0144059
0.0144234
0.0144352
0.0144411
0.0141991
0.0141981
0.0142177
0.0142346
0.0142555
0.0142831
0.0143159
0.0143505
0.0143836
0.0144129
0.0144369
0.014455
0.0144671
0.0144732
0.0141779
0.0141999
0.0142191
0.0142384
0.0142637
0.0142964
0.0143337
0.0143716
0.0144069
0.0144373
0.0144619
0.0144803
0.0144925
0.0144986
0.014182
0.0142007
0.0142195
0.0142414
0.0142707
0.0143075
0.0143481
0.0143882
0.0144247
0.0144558
0.0144807
0.0144991
0.0145113
0.0145173
0.0141786
0.0141773
0.0141989
0.0142192
0.0142435
0.0142759
0.0143155
0.0143581
0.0143996
0.0144368
0.0144682
0.0144931
0.0145116
0.0145237
0.0145297
0.014181
0.0141792
0.0142
0.0142199
0.014245
0.0142788
0.0143197
0.0143633
0.0144054
0.0144429
0.0144744
0.0144994
0.0145178
0.0145299
0.0145359
0.0139204
0.0139238
0.0139399
0.0139483
0.0139351
0.0139337
0.0139255
0.0139288
0.0139503
0.0139771
0.0139512
0.0139505
0.0139475
0.0139444
0.0139404
0.0139416
0.0139655
0.0139675
0.0139666
0.013965
0.0139627
0.0139588
0.013955
0.0139523
0.0139522
0.0139781
0.0139709
0.0139743
0.0139737
0.0139718
0.0139701
0.0139687
0.0139679
0.0139677
0.0139682
0.0139789
0.0139674
0.0139767
0.0139786
0.0139785
0.0139796
0.0139821
0.0139855
0.0139892
0.0139923
0.0139942
0.0139705
0.0139738
0.0139781
0.0139816
0.013983
0.0139868
0.0139935
0.0140022
0.0140114
0.0140197
0.0140259
0.0140293
0.0139584
0.0139743
0.0139789
0.0139813
0.0139843
0.0139902
0.0140006
0.0140143
0.0140294
0.0140439
0.014056
0.0140647
0.0140692
0.013988
0.0139754
0.0139797
0.0139824
0.013989
0.0140015
0.0140192
0.0140396
0.0140602
0.0140787
0.0140936
0.014104
0.0141093
0.0139552
0.0139654
0.0139754
0.013979
0.0139843
0.0139965
0.014016
0.0140403
0.0140663
0.0140909
0.0141122
0.014129
0.0141404
0.0141462
0.0139671
0.0139666
0.0139742
0.0139781
0.0139874
0.0140057
0.0140316
0.0140614
0.0140914
0.0141189
0.014142
0.0141598
0.0141718
0.0141778
0.0139563
0.0139641
0.0139706
0.0139769
0.0139911
0.0140152
0.0140464
0.0140803
0.0141131
0.0141424
0.0141665
0.0141849
0.0141971
0.0142033
0.0139533
0.0139594
0.013966
0.0139758
0.0139948
0.0140237
0.0140587
0.0140955
0.0141302
0.0141605
0.0141852
0.0142038
0.0142161
0.0142223
0.0139386
0.013942
0.0139536
0.0139623
0.0139752
0.0139978
0.01403
0.0140676
0.0141061
0.0141418
0.0141727
0.0141977
0.0142164
0.0142288
0.014235
0.0139403
0.0139439
0.013954
0.0139619
0.0139756
0.0139997
0.0140334
0.0140723
0.0141116
0.0141478
0.0141789
0.014204
0.0142228
0.0142352
0.0142414
0.0136686
0.0136741
0.013695
0.0137121
0.0137264
0.0137085
0.0136919
0.0136983
0.0137086
0.0137493
0.013729
0.0137219
0.0137124
0.0137021
0.013694
0.0136955
0.0137387
0.0137545
0.01374
0.0137269
0.0137167
0.0137066
0.0136981
0.0136923
0.0136918
0.0138143
0.0137547
0.0137374
0.0137275
0.0137178
0.0137095
0.0137032
0.0136991
0.0136968
0.0136967
0.0138127
0.0137445
0.0137379
0.0137278
0.0137192
0.0137135
0.0137108
0.0137106
0.0137119
0.0137136
0.0137149
0.0137445
0.0137574
0.0137393
0.0137304
0.0137216
0.0137177
0.0137188
0.0137236
0.01373
0.0137366