/*--------------------------------*- C++ -*----------------------------------*\
| =========                 |                                                 |
| \\      /  F ield         | OpenFOAM: The Open Source CFD Toolbox           |
|  \\    /   O peration     | Version:  2.1.1                                 |
|   \\  /    A nd           | Web:      www.OpenFOAM.org                      |
|    \\/     M anipulation  |                                                 |
\*---------------------------------------------------------------------------*/
FoamFile
{
    version     2.0;
    format      ascii;
    class       volScalarField;
    location    "0.005";
    object      Th;
}
// * * * * * * * * * * * * * * * * * * * * * * * * * * * * * * * * * * * * * //

dimensions      [0 0 0 0 0 0 0];

internalField   nonuniform List<scalar> 
10260
(
5.12268e-13
5.60996e-13
1.27635e-14
1.65811e-14
1e-14
1.73503e-14
9.01865e-14
3.51529e-13
1.00163e-14
1.0041e-14
1e-14
1.02089e-14
1.04058e-14
1.78103e-14
1.03088e-14
1e-14
1.00002e-14
1.00004e-14
1.00001e-14
1.00004e-14
1.00011e-14
1.00294e-14
1.03307e-14
2.3282e-14
3.47557e-14
1.15995e-12
1.00001e-14
1.00001e-14
1e-14
1e-14
1e-14
1.00001e-14
1.00004e-14
1.00395e-14
1.23072e-14
1e-14
1.12466e-13
1.00001e-14
1e-14
1e-14
1e-14
1e-14
1e-14
1e-14
1.00001e-14
1.00053e-14
1.24021e-14
1e-14
1e-14
1.00002e-14
1e-14
1e-14
1e-14
1e-14
1e-14
1e-14
1e-14
1.00001e-14
1.00053e-14
1.23122e-14
1.17802e-14
1.00002e-14
1e-14
1e-14
1e-14
1e-14
1e-14
1e-14
1e-14
1e-14
1.00002e-14
1.00395e-14
2.32813e-14
1.05449e-13
1.00001e-14
1e-14
1e-14
1e-14
1.00001e-14
1.00002e-14
1.00001e-14
1e-14
1e-14
1e-14
1.00004e-14
1.03319e-14
1e-14
1e-14
1e-14
1e-14
1e-14
1e-14
1.00002e-14
1.00001e-14
1.00001e-14
1.00001e-14
1e-14
1e-14
1.00001e-14
1.00314e-14
1.79285e-14
6.38876e-14
1e-14
1e-14
1e-14
1.00001e-14
1.00002e-14
1.00001e-14
1e-14
1.00001e-14
1e-14
1e-14
1e-14
1.00012e-14
1.04082e-14
1.0182e-14
1.60264e-12
1.00001e-14
1e-14
1.00001e-14
1.00001e-14
1.00001e-14
1.00001e-14
1.00001e-14
1.00001e-14
1.00001e-14
1e-14
1e-14
1.00005e-14
1.02092e-14
1e-14
1e-14
1.00001e-14
1.00001e-14
1e-14
1e-14
1.00001e-14
1.00001e-14
1.00001e-14
1.00001e-14
1.00001e-14
1e-14
1e-14
1.00002e-14
1e-14
1e-14
1e-14
1.00001e-14
1.00001e-14
1e-14
1e-14
1.00002e-14
1.00001e-14
1e-14
1e-14
1.00001e-14
1e-14
1e-14
1.00003e-14
1.00421e-14
1.66788e-14
2.6147e-14
1.00004e-14
1e-14
1.00002e-14
1.00002e-14
1.00001e-14
1.00001e-14
1.00002e-14
1.00002e-14
1.00002e-14
1.00001e-14
1.00001e-14
1.00003e-14
1.00177e-14
1.28952e-14
2.91208e-14
5.193e-13
5.72904e-13
1.24524e-14
1.60361e-14
1e-14
1.67831e-14
8.66222e-14
3.57446e-13
1.00083e-14
1.00227e-14
1e-14
1.01746e-14
1.03398e-14
1.74283e-14
1.01063e-14
1e-14
1.00002e-14
1.00002e-14
1e-14
1.00001e-14
1.00005e-14
1.00178e-14
1.0293e-14
2.25136e-14
3.38368e-14
1.16362e-12
1.00002e-14
1.00001e-14
1e-14
1e-14
1e-14
1e-14
1e-14
1.00225e-14
1.21078e-14
1e-14
1.56081e-13
1.00002e-14
1e-14
1e-14
1e-14
1e-14
1e-14
1e-14
1e-14
1.00014e-14
1.22162e-14
1e-14
3.07856e-14
1.00003e-14
1e-14
1e-14
1e-14
1e-14
1e-14
1e-14
1e-14
1e-14
1.00015e-14
1.21121e-14
1.10531e-14
1.00003e-14
1e-14
1e-14
1e-14
1e-14
1e-14
1e-14
1e-14
1e-14
1.00001e-14
1.00226e-14
2.25176e-14
1.09081e-13
1.00003e-14
1e-14
1e-14
1e-14
1.00001e-14
1.00001e-14
1.00001e-14
1e-14
1e-14
1e-14
1e-14
1.02938e-14
1e-14
1e-14
1.00001e-14
1e-14
1e-14
1e-14
1.00001e-14
1.00001e-14
1e-14
1.00001e-14
1e-14
1e-14
1e-14
1.00187e-14
1.74584e-14
6.22526e-14
1e-14
1e-14
1e-14
1.00001e-14
1.00001e-14
1e-14
1e-14
1.00001e-14
1e-14
1e-14
1e-14
1.00005e-14
1.03424e-14
1.03155e-14
1.59006e-12
1e-14
1e-14
1e-14
1.00001e-14
1e-14
1e-14
1e-14
1.00001e-14
1.00001e-14
1e-14
1e-14
1.00002e-14
1.01757e-14
1e-14
1e-14
1.00001e-14
1.00001e-14
1e-14
1e-14
1.00001e-14
1.00001e-14
1.00001e-14
1.00001e-14
1.00001e-14
1e-14
1e-14
1.00001e-14
1e-14
1e-14
1e-14
1.00003e-14
1e-14
1e-14
1e-14
1.00001e-14
1e-14
1e-14
1e-14
1e-14
1e-14
1e-14
1.00002e-14
1.00232e-14
1.60623e-14
2.47491e-14
1.00001e-14
1e-14
1.00002e-14
1.00001e-14
1e-14
1.00001e-14
1.00001e-14
1.00001e-14
1.00001e-14
1e-14
1e-14
1.00001e-14
1.00091e-14
1.25015e-14
2.86792e-14
5.20059e-13
5.73898e-13
1.23807e-14
1.58724e-14
1e-14
1.67968e-14
8.71206e-14
3.57758e-13
1.00011e-14
1.00055e-14
1e-14
1.0162e-14
1.03245e-14
1.73025e-14
1.01614e-14
1e-14
1.00002e-14
1.00001e-14
1e-14
1e-14
1e-14
1.00104e-14
1.0281e-14
2.2132e-14
3.39845e-14
1.1627e-12
1.00002e-14
1.00001e-14
1e-14
1e-14
1e-14
1e-14
1e-14
1.00146e-14
1.20582e-14
1e-14
1.59008e-13
1.00002e-14
1e-14
1e-14
1e-14
1e-14
1e-14
1e-14
1e-14
1e-14
1.21619e-14
1e-14
3.33241e-14
1.00002e-14
1e-14
1e-14
1e-14
1e-14
1e-14
1e-14
1e-14
1.00001e-14
1e-14
1.20619e-14
1.07937e-14
1.00003e-14
1e-14
1e-14
1e-14
1e-14
1e-14
1e-14
1e-14
1e-14
1e-14
1.00148e-14
2.21367e-14
1.10958e-13
1.00002e-14
1e-14
1e-14
1e-14
1.00001e-14
1.00001e-14
1.00001e-14
1e-14
1e-14
1e-14
1e-14
1.02815e-14
1e-14
1e-14
1.00001e-14
1e-14
1e-14
1e-14
1.00001e-14
1.00001e-14
1e-14
1e-14
1e-14
1e-14
1e-14
1.0011e-14
1.73122e-14
6.26832e-14
1e-14
1e-14
1e-14
1.00001e-14
1.00001e-14
1e-14
1e-14
1.00001e-14
1e-14
1e-14
1e-14
1.00001e-14
1.03259e-14
1.03365e-14
1.58522e-12
1e-14
1e-14
1.00001e-14
1.00001e-14
1e-14
1e-14
1e-14
1.00001e-14
1e-14
1e-14
1e-14
1e-14
1.01627e-14
1e-14
1e-14
1e-14
1e-14
1e-14
1e-14
1.00001e-14
1.00001e-14
1e-14
1.00001e-14
1.00001e-14
1e-14
1e-14
1.00001e-14
1e-14
1e-14
1e-14
1.00003e-14
1e-14
1e-14
1e-14
1.00001e-14
1e-14
1e-14
1e-14
1e-14
1e-14
1e-14
1.00001e-14
1.00059e-14
1.5882e-14
2.45508e-14
1.00002e-14
1e-14
1.00002e-14
1.00002e-14
1.00001e-14
1.00001e-14
1.00002e-14
1.00001e-14
1.00001e-14
1.00001e-14
1.00001e-14
1e-14
1.00017e-14
1.23989e-14
2.87882e-14
5.19966e-13
5.73572e-13
1.21745e-14
1.56901e-14
1e-14
1.68102e-14
8.74223e-14
3.5782e-13
1e-14
1e-14
1e-14
1.01549e-14
1.03042e-14
1.71463e-14
1.02292e-14
1e-14
1.00001e-14
1.00001e-14
1e-14
1e-14
1e-14
1.00001e-14
1.02723e-14
2.20785e-14
3.40532e-14
1.16272e-12
1.00002e-14
1.00001e-14
1e-14
1e-14
1e-14
1e-14
1e-14
1.00019e-14
1.20641e-14
1e-14
1.58873e-13
1.00002e-14
1e-14
1e-14
1e-14
1e-14
1e-14
1e-14
1e-14
1e-14
1.21563e-14
1e-14
3.2952e-14
1.00002e-14
1e-14
1e-14
1e-14
1e-14
1e-14
1e-14
1e-14
1.00001e-14
1e-14
1.20681e-14
1.07555e-14
1.00003e-14
1.00001e-14
1e-14
1e-14
1e-14
1e-14
1e-14
1e-14
1e-14
1e-14
1.0002e-14
2.20825e-14
1.11128e-13
1.00003e-14
1e-14
1e-14
1e-14
1e-14
1.00001e-14
1.00001e-14
1e-14
1e-14
1e-14
1e-14
1.02728e-14
1e-14
1e-14
1.00001e-14
1e-14
1e-14
1e-14
1.00001e-14
1.00001e-14
1e-14
1e-14
1e-14
1e-14
1e-14
1.00002e-14
1.71496e-14
6.25416e-14
1e-14
1e-14
1e-14
1.00001e-14
1e-14
1e-14
1e-14
1.00001e-14
1e-14
1e-14
1e-14
1e-14
1.03046e-14
1.0324e-14
1.5837e-12
1e-14
1e-14
1e-14
1.00001e-14
1e-14
1e-14
1e-14
1.00001e-14
1e-14
1e-14
1e-14
1e-14
1.01552e-14
1e-14
1e-14
1e-14
1e-14
1e-14
1e-14
1.00001e-14
1e-14
1e-14
1.00001e-14
1e-14
1e-14
1e-14
1.00001e-14
1e-14
1e-14
1e-14
1.00003e-14
1e-14
1e-14
1e-14
1e-14
1e-14
1e-14
1e-14
1e-14
1e-14
1e-14
1e-14
1e-14
1.56939e-14
2.42221e-14
1.00002e-14
1e-14
1.00002e-14
1.00002e-14
1e-14
1e-14
1.00001e-14
1.00001e-14
1.00001e-14
1.00001e-14
1.00001e-14
1e-14
1e-14
1.21795e-14
2.87561e-14
5.18454e-13
5.71565e-13
1.27011e-14
1.6304e-14
1e-14
1.68368e-14
8.80067e-14
3.57548e-13
1e-14
1e-14
1e-14
1.01602e-14
1.0369e-14
1.75913e-14
1.03972e-14
1e-14
1.00001e-14
1e-14
1e-14
1e-14
1e-14
1e-14
1.02651e-14
2.18964e-14
3.39089e-14
1.16241e-12
1.00002e-14
1e-14
1e-14
1e-14
1e-14
1e-14
1e-14
1e-14
1.19999e-14
1e-14
1.58646e-13
1.00001e-14
1e-14
1e-14
1e-14
1e-14
1e-14
1e-14
1e-14
1e-14
1.21199e-14
1e-14
3.24165e-14
1.00001e-14
1e-14
1e-14
1e-14
1e-14
1e-14
1e-14
1e-14
1e-14
1e-14
1.20045e-14
1.06819e-14
1.00002e-14
1e-14
1e-14
1e-14
1e-14
1e-14
1e-14
1e-14
1e-14
1e-14
1e-14
2.18975e-14
1.1058e-13
1.00003e-14
1e-14
1e-14
1e-14
1e-14
1.00001e-14
1.00001e-14
1e-14
1e-14
1e-14
1e-14
1.02656e-14
1e-14
1e-14
1.00002e-14
1e-14
1e-14
1e-14
1e-14
1.00001e-14
1e-14
1e-14
1e-14
1e-14
1e-14
1e-14
1.75931e-14
6.20418e-14
1e-14
1e-14
1e-14
1e-14
1e-14
1e-14
1e-14
1.00001e-14
1e-14
1e-14
1.00001e-14
1e-14
1.03693e-14
1.02935e-14
1.58108e-12
1e-14
1e-14
1e-14
1e-14
1e-14
1e-14
1e-14
1e-14
1e-14
1e-14
1.00001e-14
1e-14
1.01604e-14
1e-14
1e-14
1.00001e-14
1e-14
1e-14
1e-14
1e-14
1e-14
1e-14
1e-14
1e-14
1e-14
1e-14
1e-14
1e-14
1e-14
1e-14
1.00002e-14
1e-14
1e-14
1e-14
1e-14
1e-14
1e-14
1e-14
1e-14
1.00001e-14
1e-14
1e-14
1e-14
1.6304e-14
2.35492e-14
1.00002e-14
1e-14
1.00001e-14
1e-14
1e-14
1e-14
1.00001e-14
1.00001e-14
1e-14
1.00001e-14
1e-14
1e-14
1e-14
1.27016e-14
2.86779e-14
5.12963e-13
5.64394e-13
1.14479e-14
1.48594e-14
1e-14
1.67699e-14
8.90613e-14
3.55754e-13
1e-14
1e-14
1e-14
1.0132e-14
1.02028e-14
1.61809e-14
1.03678e-14
1e-14
1.00001e-14
1e-14
1e-14
1e-14
1e-14
1e-14
1.02431e-14
2.15363e-14
3.29951e-14
1.16004e-12
1.00001e-14
1e-14
1e-14
1e-14
1e-14
1e-14
1e-14
1e-14
1.2212e-14
1e-14
1.57072e-13
1.00001e-14
1e-14
1e-14
1e-14
1e-14
1e-14
1e-14
1e-14
1e-14
1.22225e-14
1e-14
3.03921e-14
1.00001e-14
1e-14
1e-14
1e-14
1e-14
1e-14
1e-14
1e-14
1e-14
1e-14
1.22163e-14
1.04322e-14
1.00002e-14
1.00001e-14
1e-14
1e-14
1e-14
1e-14
1e-14
1e-14
1e-14
1e-14
1e-14
2.15393e-14
1.0897e-13
1.00002e-14
1e-14
1e-14
1e-14
1e-14
1e-14
1e-14
1e-14
1e-14
1e-14
1e-14
1.02435e-14
1e-14
1e-14
1.00001e-14
1e-14
1e-14
1e-14
1.00001e-14
1.00001e-14
1e-14
1e-14
1e-14
1e-14
1.00001e-14
1e-14
1.61818e-14
6.02653e-14
1.00001e-14
1e-14
1e-14
1e-14
1.00001e-14
1.00001e-14
1e-14
1e-14
1e-14
1.00001e-14
1.00001e-14
1e-14
1.02029e-14
1.01453e-14
1.57236e-12
1e-14
1e-14
1e-14
1e-14
1e-14
1e-14
1e-14
1e-14
1e-14
1.00001e-14
1.00001e-14
1e-14
1.01321e-14
1e-14
1e-14
1.00001e-14
1e-14
1e-14
1e-14
1e-14
1e-14
1e-14
1e-14
1.00001e-14
1.00001e-14
1e-14
1e-14
1e-14
1e-14
1e-14
1.00001e-14
1e-14
1e-14
1e-14
1e-14
1e-14
1e-14
1.00001e-14
1.00001e-14
1e-14
1e-14
1e-14
1e-14
1.4862e-14
2.11756e-14
1.00003e-14
1e-14
1e-14
1.00001e-14
1.00002e-14
1.00002e-14
1.00001e-14
1.00001e-14
1e-14
1.00001e-14
1e-14
1e-14
1e-14
1.14439e-14
2.68702e-14
4.80612e-13
5.3082e-13
1.51414e-14
2.03798e-14
1e-14
1.30308e-14
7.73712e-14
3.42328e-13
1e-14
1e-14
1e-14
1.02053e-14
1.06956e-14
2.08789e-14
1.27793e-14
1e-14
1e-14
1e-14
1e-14
1e-14
1e-14
1e-14
1.02269e-14
2.4132e-14
3.12445e-14
1.1564e-12
1e-14
1e-14
1e-14
1e-14
1e-14
1e-14
1e-14
1e-14
1.18105e-14
1e-14
1.57227e-13
1e-14
1e-14
1e-14
1e-14
1e-14
1e-14
1e-14
1e-14
1e-14
1.19299e-14
1e-14
2.18426e-14
1.00001e-14
1e-14
1e-14
1e-14
1e-14
1e-14
1e-14
1e-14
1e-14
1e-14
1.18212e-14
1.18964e-14
1.00002e-14
1e-14
1e-14
1e-14
1.00001e-14
1e-14
1e-14
1e-14
1e-14
1e-14
1e-14
2.41333e-14
1.26803e-13
1.00001e-14
1e-14
1e-14
1.00001e-14
1e-14
1e-14
1e-14
1e-14
1e-14
1e-14
1e-14
1.02279e-14
1e-14
1e-14
1.00001e-14
1e-14
1e-14
1.00001e-14
1.00001e-14
1.00001e-14
1e-14
1e-14
1e-14
1.00001e-14
1.00001e-14
1e-14
2.08816e-14
5.09101e-14
1e-14
1e-14
1e-14
1.00001e-14
1.00001e-14
1e-14
1e-14
1e-14
1e-14
1.00001e-14
1.00001e-14
1e-14
1.0696e-14
1e-14
1.58149e-12
1e-14
1e-14
1e-14
1e-14
1e-14
1e-14
1e-14
1e-14
1.00001e-14
1.00001e-14
1.00001e-14
1e-14
1.02054e-14
1e-14
1e-14
1e-14
1e-14
1e-14
1e-14
1e-14
1e-14
1e-14
1.00001e-14
1.00001e-14
1e-14
1e-14
1.00001e-14
1e-14
1e-14
1e-14
1e-14
1e-14
1e-14
1e-14
1e-14
1e-14
1.00001e-14
1e-14
1e-14
1e-14
1.00001e-14
1.00001e-14
1e-14
2.03677e-14
1.76009e-14
1.00003e-14
1e-14
1e-14
1e-14
1.00001e-14
1.00001e-14
1.00001e-14
1.00001e-14
1e-14
1.00001e-14
1.00001e-14
1e-14
1e-14
1.51418e-14
1.2368e-14
1.13899e-13
9.46634e-14
1.22431e-14
1.34563e-14
1e-14
1.44813e-14
5.34469e-14
1.03199e-13
1e-14
1e-14
1e-14
1.00725e-14
1.02714e-14
1.26947e-14
1.2351e-14
6.77528e-14
1e-14
1e-14
1e-14
1e-14
1e-14
1e-14
1.00437e-14
1.36367e-14
2.51489e-14
1e-14
1e-14
1e-14
1e-14
1e-14
1e-14
1e-14
1e-14
1e-14
1.04553e-14
1e-14
1e-14
1.00001e-14
1e-14
1e-14
1e-14
1e-14
1e-14
1e-14
1.00001e-14
1e-14
1.05078e-14
1.00489e-14
1e-14
1.00001e-14
1e-14
1e-14
1.00001e-14
1e-14
1e-14
1e-14
1e-14
1e-14
1e-14
1.04581e-14
1e-14
1.00001e-14
1e-14
1.00001e-14
1e-14
1e-14
1e-14
1e-14
1e-14
1e-14
1e-14
1e-14
1.3637e-14
6.22885e-14
1e-14
1e-14
1e-14
1e-14
1e-14
1e-14
1.00001e-14
1e-14
1e-14
1e-14
1e-14
1.00442e-14
1.03417e-14
1e-14
1e-14
1e-14
1e-14
1e-14
1e-14
1e-14
1e-14
1e-14
1.00001e-14
1.00001e-14
1e-14
1e-14
1.2696e-14
5.21118e-14
1e-14
1e-14
1e-14
1e-14
1e-14
1e-14
1e-14
1.00001e-14
1.00001e-14
1.00001e-14
1e-14
1e-14
1.02717e-14
1e-14
1e-14
1e-14
1e-14
1e-14
1e-14
1e-14
1e-14
1e-14
1.00001e-14
1e-14
1e-14
1e-14
1e-14
1.00726e-14
1e-14
1.28298e-13
1e-14
1e-14
1e-14
1e-14
1e-14
1e-14
1.00001e-14
1.00001e-14
1e-14
1e-14
1e-14
1.00001e-14
1e-14
1e-14
2.75101e-14
1e-14
1e-14
1e-14
1.00001e-14
1.00001e-14
1.00001e-14
1.00001e-14
1e-14
1e-14
1e-14
1.00001e-14
1.00001e-14
1e-14
1.34512e-14
3.64997e-14
1.00001e-14
1e-14
1.00001e-14
1.00001e-14
1.00002e-14
1.00001e-14
1.00001e-14
1e-14
1e-14
1.00002e-14
1.00001e-14
1e-14
1e-14
1.22438e-14
1.16006e-14
1.44123e-14
1.20255e-14
1.03201e-14
1.07931e-14
1.11905e-14
1e-14
1.01153e-14
1.17573e-14
1.24558e-14
1e-14
1e-14
1e-14
1.00218e-14
1.00951e-14
1.07533e-14
1.02238e-14
1.07953e-14
1e-14
1e-14
1e-14
1e-14
1e-14
1e-14
1.00058e-14
1.10557e-14
1.11676e-14
1.00728e-14
1e-14
1e-14
1e-14
1e-14
1e-14
1e-14
1e-14
1e-14
1.00907e-14
1e-14
1.00198e-14
1e-14
1e-14
1e-14
1e-14
1e-14
1e-14
1e-14
1.00001e-14
1e-14
1.01221e-14
1e-14
1.00718e-14
1.00001e-14
1e-14
1e-14
1e-14
1e-14
1e-14
1e-14
1e-14
1e-14
1e-14
1.00914e-14
1e-14
1e-14
1e-14
1e-14
1e-14
1e-14
1e-14
1e-14
1e-14
1e-14
1e-14
1e-14
1.10558e-14
1.30603e-14
1e-14
1e-14
1e-14
1e-14
1e-14
1e-14
1e-14
1e-14
1e-14
1e-14
1e-14
1.0006e-14
1e-14
1.00161e-14
1e-14
1e-14
1e-14
1e-14
1e-14
1e-14
1e-14
1e-14
1.00001e-14
1.00001e-14
1e-14
1e-14
1.07537e-14
1.24801e-14
1e-14
1e-14
1e-14
1e-14
1e-14
1e-14
1e-14
1.00001e-14
1.00001e-14
1e-14
1e-14
1e-14
1.00953e-14
1e-14
1e-14
1e-14
1e-14
1e-14
1e-14
1e-14
1.00001e-14
1e-14
1e-14
1e-14
1.00001e-14
1e-14
1.00219e-14
1.01155e-14
1.29739e-14
1e-14
1e-14
1e-14
1e-14
1e-14
1e-14
1e-14
1e-14
1e-14
1e-14
1.00001e-14
1.00001e-14
1.00001e-14
1e-14
1.06408e-14
1e-14
1e-14
1e-14
1e-14
1e-14
1.00001e-14
1e-14
1e-14
1e-14
1.00001e-14
1.00001e-14
1.00001e-14
1e-14
1.11882e-14
1.20789e-14
1.00001e-14
1e-14
1e-14
1.00001e-14
1.00002e-14
1.00001e-14
1e-14
1e-14
1e-14
1.00002e-14
1.00001e-14
1e-14
1e-14
1.07937e-14
1e-14
1.01391e-14
1.00523e-14
1.00036e-14
1.02379e-14
1.03667e-14
1.00037e-14
1.0014e-14
1.00544e-14
1.00436e-14
1e-14
1e-14
1e-14
1.00067e-14
1.00273e-14
1.0192e-14
1.00218e-14
1.00158e-14
1e-14
1e-14
1e-14
1e-14
1e-14
1e-14
1.00008e-14
1.02775e-14
1.00631e-14
1.00011e-14
1e-14
1e-14
1e-14
1e-14
1e-14
1e-14
1e-14
1e-14
1.00155e-14
1.00093e-14
1e-14
1e-14
1e-14
1e-14
1e-14
1e-14
1e-14
1e-14
1.00001e-14
1e-14
1.00262e-14
1.00096e-14
1.00003e-14
1e-14
1e-14
1e-14
1e-14
1e-14
1e-14
1e-14
1e-14
1e-14
1e-14
1.00157e-14
1.00018e-14
1e-14
1e-14
1e-14
1e-14
1e-14
1e-14
1e-14
1e-14
1e-14
1e-14
1e-14
1.02777e-14
1.01172e-14
1e-14
1e-14
1e-14
1e-14
1e-14
1e-14
1e-14
1e-14
1e-14
1e-14
1e-14
1.00009e-14
1e-14
1.00007e-14
1e-14
1e-14
1e-14
1e-14
1e-14
1e-14
1e-14
1e-14
1e-14
1e-14
1e-14
1e-14
1.01921e-14
1.01115e-14
1e-14
1e-14
1e-14
1e-14
1e-14
1e-14
1e-14
1.00001e-14
1e-14
1e-14
1.00001e-14
1e-14
1.00274e-14
1.00025e-14
1e-14
1e-14
1e-14
1e-14
1e-14
1e-14
1e-14
1e-14
1e-14
1e-14
1e-14
1e-14
1.00067e-14
1.00141e-14
1.00856e-14
1e-14
1e-14
1e-14
1e-14
1e-14
1e-14
1e-14
1e-14
1e-14
1e-14
1.00001e-14
1.00001e-14
1e-14
1.00036e-14
1.00174e-14
1e-14
1e-14
1e-14
1e-14
1e-14
1.00001e-14
1e-14
1e-14
1e-14
1e-14
1.00001e-14
1.00001e-14
1e-14
1.03657e-14
1.01155e-14
1.00002e-14
1e-14
1e-14
1e-14
1.00001e-14
1e-14
1e-14
1e-14
1e-14
1.00002e-14
1e-14
1e-14
1e-14
1.02383e-14
1.00219e-14
1.00036e-14
1.00015e-14
1.00001e-14
1.0063e-14
1.00992e-14
1.00014e-14
1.0002e-14
1.0001e-14
1.00007e-14
1e-14
1e-14
1e-14
1.00019e-14
1.00068e-14
1.00432e-14
1.00044e-14
1.00004e-14
1e-14
1e-14
1e-14
1e-14
1e-14
1e-14
1.00002e-14
1.00623e-14
1.0005e-14
1.00001e-14
1e-14
1e-14
1e-14
1e-14
1e-14
1e-14
1e-14
1e-14
1.00024e-14
1.00012e-14
1e-14
1e-14
1e-14
1e-14
1e-14
1e-14
1e-14
1.00001e-14
1.00001e-14
1e-14
1.00057e-14
1.00014e-14
1e-14
1e-14
1e-14
1e-14
1e-14
1e-14
1e-14
1e-14
1e-14
1e-14
1e-14
1.00026e-14
1.00003e-14
1e-14
1e-14
1e-14
1e-14
1e-14
1e-14
1e-14
1e-14
1e-14
1e-14
1e-14
1.00624e-14
1.00055e-14
1e-14
1e-14
1e-14
1e-14
1e-14
1e-14
1e-14
1e-14
1e-14
1e-14
1e-14
1.00002e-14
1e-14
1e-14
1e-14
1e-14
1e-14
1e-14
1e-14
1e-14
1e-14
1e-14
1e-14
1e-14
1e-14
1e-14
1.00432e-14
1.00045e-14
1e-14
1e-14
1e-14
1e-14
1e-14
1e-14
1e-14
1e-14
1e-14
1e-14
1e-14
1e-14
1.00069e-14
1.00006e-14
1e-14
1e-14
1e-14
1e-14
1e-14
1e-14
1e-14
1e-14
1e-14
1e-14
1e-14
1e-14
1.0002e-14
1.00021e-14
1.00014e-14
1e-14
1e-14
1e-14
1e-14
1e-14
1e-14
1e-14
1e-14
1e-14
1e-14
1e-14
1.00001e-14
1e-14
1.00015e-14
1.00003e-14
1e-14
1e-14
1e-14
1e-14
1e-14
1e-14
1e-14
1e-14
1e-14
1e-14
1e-14
1e-14
1e-14
1.0099e-14
1.00107e-14
1.00002e-14
1e-14
1.00001e-14
1.00002e-14
1.00001e-14
1e-14
1e-14
1e-14
1e-14
1.00001e-14
1e-14
1e-14
1e-14
1.00633e-14
1.00063e-14
1.00002e-14
1.00002e-14
1e-14
1.00152e-14
1.00241e-14
1.00003e-14
1.00003e-14
1e-14
1e-14
1e-14
1e-14
1e-14
1.00005e-14
1.00015e-14
1.00087e-14
1.0001e-14
1.00005e-14
1e-14
1e-14
1e-14
1e-14
1e-14
1e-14
1e-14
1.00122e-14
1.00008e-14
1.00001e-14
1e-14
1e-14
1e-14
1e-14
1e-14
1e-14
1e-14
1e-14
1.00003e-14
1.00002e-14
1e-14
1e-14
1e-14
1e-14
1e-14
1e-14
1e-14
1.00001e-14
1e-14
1e-14
1.00012e-14
1.00003e-14
1e-14
1e-14
1e-14
1e-14
1e-14
1e-14
1e-14
1e-14
1e-14
1e-14
1e-14
1.00004e-14
1e-14
1e-14
1e-14
1e-14
1e-14
1e-14
1e-14
1e-14
1e-14
1.00001e-14
1e-14
1e-14
1.00123e-14
1.00009e-14
1e-14
1e-14
1e-14
1e-14
1e-14
1e-14
1e-14
1e-14
1e-14
1e-14
1e-14
1.00001e-14
1e-14
1e-14
1e-14
1e-14
1e-14
1e-14
1e-14
1e-14
1e-14
1e-14
1e-14
1e-14
1e-14
1e-14
1.00087e-14
1.00006e-14
1e-14
1e-14
1e-14
1e-14
1e-14
1e-14
1e-14
1e-14
1e-14
1e-14
1e-14
1e-14
1.00015e-14
1.00001e-14
1e-14
1.00001e-14
1e-14
1e-14
1e-14
1e-14
1e-14
1e-14
1e-14
1e-14
1e-14
1e-14
1.00005e-14
1.00004e-14
1e-14
1.00001e-14
1.00001e-14
1e-14
1e-14
1e-14
1e-14
1e-14
1e-14
1e-14
1e-14
1e-14
1e-14
1e-14
1.00004e-14
1.00002e-14
1.00001e-14
1e-14
1e-14
1e-14
1e-14
1e-14
1e-14
1e-14
1e-14
1e-14
1e-14
1e-14
1e-14
1.0024e-14
1.00023e-14
1.00003e-14
1.00001e-14
1.00001e-14
1.00001e-14
1e-14
1e-14
1.00001e-14
1.00001e-14
1e-14
1e-14
1e-14
1e-14
1e-14
1.00153e-14
1.00013e-14
1e-14
1e-14
1e-14
1.00033e-14
1.00053e-14
1.00001e-14
1e-14
1e-14
1e-14
1e-14
1e-14
1e-14
1.00001e-14
1.00003e-14
1.00016e-14
1.00001e-14
1e-14
1e-14
1e-14
1e-14
1e-14
1e-14
1e-14
1.00001e-14
1.00021e-14
1.00001e-14
1e-14
1e-14
1e-14
1e-14
1e-14
1e-14
1e-14
1.00001e-14
1.00001e-14
1e-14
1e-14
1e-14
1e-14
1e-14
1e-14
1e-14
1.00001e-14
1.00001e-14
1.00001e-14
1e-14
1e-14
1.00003e-14
1.00002e-14
1e-14
1e-14
1.00001e-14
1e-14
1e-14
1e-14
1e-14
1e-14
1e-14
1e-14
1.00001e-14
1.00001e-14
1e-14
1e-14
1e-14
1e-14
1e-14
1e-14
1e-14
1e-14
1e-14
1e-14
1.00001e-14
1e-14
1.00022e-14
1.00003e-14
1e-14
1e-14
1e-14
1e-14
1e-14
1e-14
1e-14
1e-14
1e-14
1e-14
1e-14
1.00001e-14
1.00003e-14
1.00002e-14
1e-14
1e-14
1e-14
1e-14
1e-14
1e-14
1e-14
1e-14
1e-14
1e-14
1e-14
1e-14
1.00015e-14
1e-14
1e-14
1e-14
1e-14
1e-14
1e-14
1e-14
1e-14
1e-14
1e-14
1e-14
1e-14
1e-14
1.00003e-14
1.00001e-14
1.00001e-14
1.00001e-14
1e-14
1e-14
1e-14
1e-14
1e-14
1e-14
1e-14
1e-14
1e-14
1e-14
1.00001e-14
1e-14
1e-14
1.00002e-14
1.00001e-14
1e-14
1e-14
1e-14
1e-14
1e-14
1e-14
1e-14
1e-14
1e-14
1e-14
1e-14
1e-14
1.00002e-14
1.00001e-14
1e-14
1e-14
1e-14
1e-14
1e-14
1e-14
1e-14
1e-14
1e-14
1e-14
1e-14
1e-14
1.00053e-14
1.00002e-14
1.00003e-14
1.00002e-14
1.00002e-14
1.00001e-14
1.00001e-14
1e-14
1e-14
1e-14
1e-14
1e-14
1.00001e-14
1.00001e-14
1e-14
1.00033e-14
1.00002e-14
1e-14
1e-14
1e-14
1.00007e-14
1.00011e-14
1e-14
1e-14
1e-14
1e-14
1.00001e-14
1e-14
1e-14
1e-14
1e-14
1.00003e-14
1.00002e-14
1e-14
1.00001e-14
1e-14
1e-14
1e-14
1e-14
1e-14
1e-14
1.00003e-14
1e-14
1.00002e-14
1.00001e-14
1e-14
1e-14
1.00001e-14
1e-14
1.00001e-14
1e-14
1e-14
1e-14
1.00001e-14
1e-14
1.00002e-14
1.00001e-14
1e-14
1e-14
1e-14
1e-14
1.00001e-14
1e-14
1e-14
1.00001e-14
1.00002e-14
1e-14
1.00002e-14
1e-14
1e-14
1e-14
1.00001e-14
1.00001e-14
1e-14
1e-14
1e-14
1e-14
1.00001e-14
1e-14
1.00001e-14
1e-14
1e-14
1e-14
1e-14
1e-14
1e-14
1e-14
1e-14
1.00001e-14
1.00001e-14
1.00004e-14
1e-14
1.00001e-14
1e-14
1e-14
1e-14
1e-14
1e-14
1e-14
1.00001e-14
1.00001e-14
1e-14
1e-14
1e-14
1.00001e-14
1.00002e-14
1.00002e-14
1e-14
1e-14
1e-14
1e-14
1e-14
1e-14
1e-14
1e-14
1e-14
1e-14
1e-14
1.00002e-14
1e-14
1.00002e-14
1.00001e-14
1.00001e-14
1e-14
1e-14
1e-14
1e-14
1e-14
1e-14
1e-14
1e-14
1e-14
1.00001e-14
1e-14
1.00001e-14
1.00001e-14
1e-14
1e-14
1e-14
1e-14
1e-14
1e-14
1e-14
1e-14
1e-14
1e-14
1.00001e-14
1e-14
1e-14
1.00001e-14
1e-14
1e-14
1e-14
1e-14
1e-14
1e-14
1e-14
1e-14
1e-14
1e-14
1.00001e-14
1.00001e-14
1e-14
1e-14
1.00002e-14
1e-14
1e-14
1e-14
1e-14
1e-14
1e-14
1e-14
1e-14
1e-14
1.00001e-14
1.00001e-14
1.00001e-14
1.00012e-14
1e-14
1.00006e-14
1.00001e-14
1e-14
1e-14
1e-14
1e-14
1e-14
1e-14
1e-14
1.00002e-14
1.00001e-14
1e-14
1e-14
1.00008e-14
1e-14
1.00003e-14
1e-14
1e-14
1.00002e-14
1.00002e-14
1e-14
1e-14
1.00001e-14
1e-14
1.00002e-14
1e-14
1.00001e-14
1e-14
1e-14
1.00001e-14
1e-14
1e-14
1e-14
1e-14
1e-14
1e-14
1.00001e-14
1.00001e-14
1e-14
1.00001e-14
1e-14
1.00002e-14
1e-14
1e-14
1e-14
1e-14
1.00001e-14
1.00001e-14
1.00001e-14
1.00001e-14
1e-14
1.00001e-14
1e-14
1e-14
1e-14
1e-14
1e-14
1.00001e-14
1.00001e-14
1e-14
1.00001e-14
1.00001e-14
1.00001e-14
1.00002e-14
1.00002e-14
1e-14
1.00001e-14
1e-14
1e-14
1e-14
1.00001e-14
1e-14
1.00001e-14
1.00001e-14
1.00001e-14
1.00001e-14
1.00001e-14
1e-14
1e-14
1e-14
1e-14
1e-14
1e-14
1.00001e-14
1.00001e-14
1.00001e-14
1.00001e-14
1e-14
1.00001e-14
1e-14
1e-14
1e-14
1e-14
1e-14
1.00001e-14
1.00001e-14
1.00001e-14
1.00001e-14
1.00001e-14
1e-14
1e-14
1e-14
1e-14
1.00001e-14
1e-14
1e-14
1e-14
1e-14
1e-14
1e-14
1e-14
1e-14
1e-14
1e-14
1e-14
1e-14
1.00001e-14
1e-14
1e-14
1e-14
1e-14
1e-14
1e-14
1e-14
1e-14
1e-14
1e-14
1.00001e-14
1e-14
1e-14
1e-14
1e-14
1e-14
1e-14
1e-14
1e-14
1e-14
1e-14
1e-14
1e-14
1e-14
1e-14
1e-14
1e-14
1e-14
1e-14
1e-14
1e-14
1e-14
1.00001e-14
1.00001e-14
1e-14
1e-14
1e-14
1.00001e-14
1e-14
1e-14
1e-14
1e-14
1e-14
1e-14
1e-14
1e-14
1e-14
1.00001e-14
1e-14
1e-14
1e-14
1e-14
1e-14
1e-14
1e-14
1.00001e-14
1e-14
1e-14
1.00002e-14
1e-14
1.00005e-14
1.00002e-14
1.00003e-14
1.00002e-14
1e-14
1e-14
1e-14
1e-14
1e-14
1.00001e-14
1e-14
1e-14
1e-14
1.00001e-14
1.00002e-14
8.20584e-13
8.75303e-13
5.03337e-14
5.64776e-14
9.22558e-13
7.03315e-14
9.78022e-14
1.69133e-13
2.06669e-14
1.27874e-14
1.7783e-13
2.39009e-13
1.91008e-12
1.20796e-13
9.55977e-14
2.11067e-14
1.00076e-14
5.51766e-13
4.19033e-14
1.56229e-13
1e-14
6.30339e-13
1.65093e-12
3.02368e-14
1.27526e-13
1.07489e-14
1.87817e-14
2.49247e-13
2.68959e-14
2.57151e-13
1e-14
7.28915e-14
6.85653e-13
1.15898e-14
3.89972e-14
1.73122e-12
2.37753e-13
1.3244e-12
1.4096e-12
2.15502e-13
1.41315e-12
1.32567e-12
2.37846e-13
1.73154e-12
3.90282e-14
6.85582e-13
1.15946e-14
7.29053e-14
1e-14
2.57242e-13
2.69552e-14
2.50021e-13
1.64905e-12
1.88566e-14
1.28726e-13
1.0828e-14
3.14552e-14
6.31307e-13
1.145e-14
1.51243e-13
4.16825e-14
5.53478e-13
1.0113e-14
9.53642e-14
2.06398e-14
1.17099e-13
1.91167e-12
2.158e-13
1.74116e-13
1.18741e-14
2.12367e-14
1.69292e-13
9.60192e-14
6.92673e-14
9.26855e-13
5.57941e-14
8.79407e-13
4.94052e-14
8.24256e-13
5.28056e-13
2.65118e-14
2.90582e-14
8.07672e-13
8.63162e-13
4.54269e-14
5.14355e-14
4.34221e-14
2.63896e-14
9.10663e-13
6.35272e-14
8.66946e-14
8.6137e-14
1e-14
1.52656e-13
1.85559e-14
1.09936e-14
1e-14
1.21409e-14
1.61729e-13
1e-14
1.58462e-12
2.06294e-13
1.89439e-12
1e-14
1e-14
1.00982e-14
1.05956e-13
8.79828e-14
1.75975e-14
1.01246e-14
2.82929e-14
6.49526e-14
5.46746e-13
3.83839e-14
1.4253e-13
1.41029e-14
1e-14
1.26626e-14
6.4016e-13
1.04246e-12
1.63928e-12
9.03432e-14
1.10247e-14
1e-14
2.79356e-14
1.18191e-13
1.05046e-14
1.73467e-14
2.01322e-14
1.05569e-13
2.38158e-13
2.55828e-14
2.40629e-13
1.16491e-14
1e-14
4.17969e-13
1.11479e-14
1.17799e-14
6.86825e-14
6.71e-13
1.08813e-14
3.46316e-14
1.08843e-13
1e-14
1.70605e-12
2.20223e-13
1.36482e-12
8.82579e-14
1.11381e-13
1.4426e-12
1.98266e-13
1.44653e-12
1.08874e-13
1.15994e-12
1.3659e-12
2.20384e-13
1.70604e-12
4.17862e-13
1.11464e-14
3.47577e-14
3.46643e-14
6.70998e-13
1.08875e-14
6.86805e-14
1.16245e-14
1e-14
2.01249e-14
1e-14
2.40616e-13
2.55606e-14
2.37656e-13
1.04401e-12
1.63958e-12
9.07477e-14
1.10462e-14
1.05104e-14
1.74054e-14
1.18491e-13
1.05164e-14
2.81026e-14
1.26877e-14
6.40444e-13
1.26569e-14
2.84533e-14
3.55381e-13
1.42962e-13
3.87291e-14
5.47451e-13
1e-14
1e-14
8.97865e-14
1.01144e-14
8.80822e-14
1.77629e-14
1.06906e-13
1e-14
1.89532e-12
2.07907e-13
1.1139e-14
1.63026e-13
1.20917e-14
8.73326e-14
1.86935e-14
1.54136e-13
4.32525e-14
5.70506e-13
8.73127e-14
6.38073e-14
9.11356e-13
5.36602e-13
2.65225e-14
5.20205e-13
5.1713e-14
8.63922e-13
4.57472e-14
8.09139e-13
5.36667e-13
2.60233e-14
2.85569e-14
8.07412e-13
8.6242e-13
4.51358e-14
5.11376e-14
4.16941e-14
2.4572e-14
9.10587e-13
6.30896e-14
8.5698e-14
8.6734e-14
1e-14
1.5205e-13
1.83938e-14
1.08811e-14
1e-14
1.1977e-14
1.62733e-13
1e-14
1.59037e-12
2.08564e-13
1.89632e-12
1e-14
1e-14
1.03254e-14
1.05137e-13
8.57656e-14
1.72028e-14
1.00729e-14
2.76798e-14
6.19035e-14
5.47648e-13
3.81979e-14
1.42462e-13
1.10794e-14
1e-14
1.36256e-14
6.35795e-13
1.05922e-12
1.63972e-12
8.97127e-14
1.09154e-14
1e-14
2.81539e-14
1.18814e-13
1.04666e-14
1.69276e-14
1.96976e-14
1.09094e-13
2.41793e-13
2.5236e-14
2.40596e-13
1.14749e-14
1e-14
4.21346e-13
1.10728e-14
1.10559e-14
6.93165e-14
6.70842e-13
1.09112e-14
3.37694e-14
1.10982e-13
3.21846e-14
1.70904e-12
2.18587e-13
1.35136e-12
8.93427e-14
1.54953e-13
1.42957e-12
1.97441e-13
1.43336e-12
1.11019e-13
1.1635e-12
1.35234e-12
2.18747e-13
1.70897e-12
4.21319e-13
1.10726e-14
3.38386e-14
3.38009e-14
6.70844e-13
1.09147e-14
6.93082e-14
1.14758e-14
1e-14
1.96899e-14
1e-14
2.40646e-13
2.52381e-14
2.4171e-13
1.05925e-12
1.64022e-12
8.98744e-14
1.0918e-14
1.01497e-14
1.69334e-14
1.18879e-13
1.0468e-14
2.81753e-14
1.1163e-14
6.3582e-13
1.36064e-14
2.78244e-14
3.57413e-13
1.42667e-13
3.82751e-14
5.47639e-13
1e-14
1e-14
8.71074e-14
1.00667e-14
8.57351e-14
1.72229e-14
1.05381e-13
1e-14
1.89727e-12
2.08671e-13
1.09042e-14
1.6286e-13
1.19803e-14
8.73201e-14
1.84209e-14
1.52317e-13
4.18128e-14
5.73072e-13
8.58401e-14
6.31447e-14
9.10375e-13
5.36963e-13
2.61566e-14
5.19999e-13
5.11612e-14
8.62483e-13
4.52205e-14
8.07968e-13
5.37473e-13
2.62409e-14
2.87747e-14
8.07606e-13
8.62364e-13
4.52877e-14
5.13161e-14
4.1786e-14
2.45084e-14
9.1052e-13
6.33191e-14
8.58593e-14
8.80668e-14
1e-14
1.52646e-13
1.83746e-14
1.08753e-14
1e-14
1.1951e-14
1.62661e-13
1e-14
1.58537e-12
2.0893e-13
1.89675e-12
1e-14
1e-14
1.03384e-14
1.05455e-13
8.52816e-14
1.71623e-14
1.00562e-14
2.78218e-14
6.26238e-14
5.48202e-13
3.83794e-14
1.43077e-13
1.08923e-14
1e-14
1.37441e-14
6.33771e-13
1.06128e-12
1.64022e-12
9.06067e-14
1.08845e-14
1e-14
2.83425e-14
1.19386e-13
1.04513e-14
1.68371e-14
1.96013e-14
1.10959e-13
2.43985e-13
2.52221e-14
2.40939e-13
1.16363e-14
1e-14
4.22125e-13
1.10492e-14
1.07966e-14
6.95681e-14
6.70962e-13
1.091e-14
3.37072e-14
1.12637e-13
3.4844e-14
1.70942e-12
2.1867e-13
1.34807e-12
9.07046e-14
1.57844e-13
1.42635e-12
1.97654e-13
1.43018e-12
1.12678e-13
1.1626e-12
1.34916e-12
2.18827e-13
1.70956e-12
4.22053e-13
1.10483e-14
3.39761e-14
3.37391e-14
6.70928e-13
1.09129e-14
6.95694e-14
1.16389e-14
1e-14
1.96003e-14
1e-14
2.40974e-13
2.52274e-14
2.43957e-13
1.06155e-12
1.64029e-12
9.06458e-14
1.08855e-14
1.01657e-14
1.68411e-14
1.19405e-13
1.04526e-14
2.83483e-14
1.09096e-14
6.33759e-13
1.374e-14
2.78419e-14
3.57751e-13
1.4311e-13
3.83927e-14
5.48204e-13
1e-14
1e-14
8.7206e-14
1.00545e-14
8.52731e-14
1.71673e-14
1.05504e-13
1e-14
1.89702e-12
2.08942e-13
1.08828e-14
1.62693e-13
1.1946e-14
8.81684e-14
1.83769e-14
1.52711e-13
4.18099e-14
5.74057e-13
8.59186e-14
6.33224e-14
9.10497e-13
5.37539e-13
2.62666e-14
5.20601e-13
5.12861e-14
8.62325e-13
4.53221e-14
8.07836e-13
5.37032e-13
2.62269e-14
2.87613e-14
8.07437e-13
8.62653e-13
4.54476e-14
5.15408e-14
4.17904e-14
2.42072e-14
9.10897e-13
6.36776e-14
8.64067e-14
8.85767e-14
1e-14
1.53491e-13
1.83632e-14
1.08691e-14
1e-14
1.19668e-14
1.62368e-13
1e-14
1.58366e-12
2.08889e-13
1.89653e-12
1e-14
1e-14
1.03253e-14
1.05765e-13
8.45847e-14
1.71411e-14
1.00444e-14
2.78431e-14
6.25044e-14
5.49071e-13
3.85193e-14
1.43379e-13
1.0816e-14
1e-14
1.38591e-14
6.32134e-13
1.06186e-12
1.64039e-12
9.08111e-14
1.08638e-14
1e-14
2.84649e-14
1.19548e-13
1.04316e-14
1.67459e-14
1.9563e-14
1.1112e-13
2.45988e-13
2.52293e-14
2.40715e-13
1.16482e-14
1e-14
4.22381e-13
1.10361e-14
1.07607e-14
6.95863e-14
6.70908e-13
1.08967e-14
3.36889e-14
1.129e-13
3.43884e-14
1.7094e-12
2.18746e-13
1.34755e-12
9.09298e-14
1.57745e-13
1.42568e-12
1.97769e-13
1.42946e-12
1.12966e-13
1.16259e-12
1.34853e-12
2.18904e-13
1.70953e-12
4.2232e-13
1.10355e-14
3.40514e-14
3.37238e-14
6.70923e-13
1.08995e-14
6.95883e-14
1.16476e-14
1e-14
1.9564e-14
1e-14
2.40741e-13
2.52347e-14
2.45982e-13
1.06155e-12
1.64035e-12
9.08196e-14
1.08642e-14
1.02305e-14
1.67498e-14
1.19565e-13
1.04323e-14
2.84693e-14
1.08237e-14
6.32088e-13
1.38561e-14
2.78465e-14
3.57817e-13
1.43405e-13
3.85233e-14
5.49092e-13
1e-14
1e-14
8.74445e-14
1.00443e-14
8.45984e-14
1.71414e-14
1.05776e-13
1e-14
1.89638e-12
2.08839e-13
1.08716e-14
1.6236e-13
1.19645e-14
8.85934e-14
1.83675e-14
1.53501e-13
4.17879e-14
5.73736e-13
8.6424e-14
6.36611e-14
9.10709e-13
5.37199e-13
2.62372e-14
5.2032e-13
5.14919e-14
8.62565e-13
4.54703e-14
8.0801e-13
5.35721e-13
2.61703e-14
2.86891e-14
8.0778e-13
8.63464e-13
4.58066e-14
5.21216e-14
4.17938e-14
2.35447e-14
9.10759e-13
6.4659e-14
8.81095e-14
8.95583e-14
1e-14
1.55207e-13
1.8561e-14
1.08312e-14
1e-14
1.21939e-14
1.62209e-13
1e-14
1.581e-12
2.09376e-13
1.89587e-12
1e-14
1e-14
1.02933e-14
1.0691e-13
8.28825e-14
1.70885e-14
1.00193e-14
2.78262e-14
6.20285e-14
5.51406e-13
3.88009e-14
1.44075e-13
1.07056e-14