/*--------------------------------*- C++ -*----------------------------------*\
| =========                 |                                                 |
| \\      /  F ield         | OpenFOAM: The Open Source CFD Toolbox           |
|  \\    /   O peration     | Version:  2.1.1                                 |
|   \\  /    A nd           | Web:      www.OpenFOAM.org                      |
|    \\/     M anipulation  |                                                 |
\*---------------------------------------------------------------------------*/
FoamFile
{
    version     2.0;
    format      ascii;
    class       volScalarField;
    location    "0.0005";
    object      p;
}
// * * * * * * * * * * * * * * * * * * * * * * * * * * * * * * * * * * * * * //

dimensions      [0 2 -2 0 0 0 0];

internalField   nonuniform List<scalar> 
10233
(
0.153336
0.152018
0.126612
0.15975
0.15938
0.158851
0.159691
0.156305
0.14357
0.15453
0.155368
0.157084
0.157764
0.158718
0.158734
0.162278
0.147291
0.150322
0.150681
0.151546
0.152483
0.154454
0.156321
0.159599
0.16066
0.159918
0.1442
0.147936
0.14803
0.148388
0.148915
0.150158
0.151728
0.154373
0.15696
0.160203
0.161746
0.152042
0.146193
0.146218
0.146424
0.146771
0.147514
0.148482
0.150014
0.151629
0.153879
0.157765
0.161347
0.152333
0.145111
0.145111
0.145242
0.145468
0.145927
0.146523
0.147461
0.14853
0.150098
0.152315
0.15719
0.165403
0.14424
0.144238
0.144341
0.144521
0.144844
0.145261
0.145896
0.146685
0.147881
0.14965
0.15302
0.159588
0.161314
0.143584
0.143578
0.143656
0.143815
0.144079
0.144423
0.144935
0.145601
0.146644
0.148209
0.150905
0.155065
0.160278
0.136307
0.143043
0.143036
0.143111
0.143245
0.143477
0.143784
0.144223
0.144797
0.145658
0.146927
0.148975
0.152187
0.156533
0.156328
0.142614
0.142603
0.142662
0.142795
0.143008
0.143299
0.143706
0.144237
0.145011
0.146118
0.147892
0.150458
0.154157
0.158847
0.142269
0.142255
0.142309
0.142429
0.142627
0.142899
0.143275
0.143754
0.144425
0.145325
0.146763
0.148801
0.151996
0.155326
0.140793
0.142002
0.141987
0.142036
0.142147
0.14233
0.14259
0.14294
0.143383
0.143987
0.144722
0.145904
0.147407
0.150255
0.15217
0.135198
0.1418
0.141782
0.141826
0.141931
0.142102
0.142349
0.142671
0.143071
0.143606
0.144186
0.145133
0.14626
0.149034
0.152946
0.16578
0.141658
0.14164
0.141683
0.141782
0.141947
0.142177
0.142489
0.142863
0.143361
0.143867
0.144715
0.145658
0.148259
0.152412
0.168092
0.115614
0.114568
0.108402
0.101972
0.101371
0.102556
0.103858
0.128777
0.112742
0.104935
0.104755
0.105421
0.103633
0.106495
0.106008
0.136463
0.117765
0.09994
0.100006
0.10096
0.101328
0.103926
0.103739
0.10683
0.106583
0.135492
0.114236
0.0994051
0.0994388
0.0999632
0.0999409
0.101412
0.10168
0.104425
0.103971
0.107307
0.104297
0.141619
0.0974705
0.0975745
0.0980466
0.0983367
0.0993516
0.099726
0.101297
0.101827
0.103896
0.104598
0.104368
0.139882
0.0967716
0.0968502
0.0971614
0.0973867
0.0980852
0.0985113
0.0997275
0.100364
0.102433
0.103885
0.107295
0.139715
0.0958644
0.095948
0.0962012
0.0964555
0.0969864
0.0974184
0.0982841
0.0990023
0.100366
0.101821
0.103974
0.106564
0.138658
0.0953363
0.0954108
0.0956062
0.0958422
0.0962776
0.0967213
0.0974996
0.0982813
0.0997234
0.101288
0.104415
0.106813
0.138218
0.113642
0.0948376
0.0949093
0.0950836
0.0953039
0.0956703
0.0960812
0.0967207
0.0974161
0.0985083
0.0997199
0.101675
0.103729
0.105999
0.132317
0.0944906
0.0945581
0.094709
0.0949281
0.0952644
0.0956694
0.0962761
0.0969831
0.0980816
0.0993456
0.101405
0.103917
0.106486
0.135986
0.0942101
0.0942748
0.0944162
0.0946213
0.0949271
0.0953022
0.0958398
0.0964521
0.0973828
0.0983315
0.0999352
0.101321
0.103626
0.103853
0.133546
0.0940164
0.0940806
0.094216
0.0944152
0.0947076
0.0950816
0.0956032
0.0961976
0.0971576
0.0980418
0.0999578
0.100955
0.105415
0.102552
0.131977
0.0938858
0.0939493
0.0940796
0.0942732
0.094556
0.0949065
0.0954076
0.0959446
0.0968461
0.0975696
0.0994338
0.100001
0.104749
0.101363
0.136599
0.0938218
0.0938855
0.0940151
0.0942085
0.0944885
0.094835
0.0953334
0.0958612
0.0967679
0.0974661
0.0994
0.0999348
0.104929
0.101965
0.139555
0.114035
0.114159
0.116288
0.110243
0.110107
0.11171
0.110257
0.122577
0.113465
0.114852
0.114651
0.115074
0.113929
0.112768
0.110337
0.128247
0.116545
0.113615
0.113675
0.114297
0.114194
0.114438
0.11401
0.112546
0.111166
0.125652
0.119093
0.114418
0.114423
0.114718
0.114553
0.114799
0.114536
0.114838
0.11462
0.113078
0.112366
0.139497
0.113556
0.113623
0.113917
0.114039
0.114406
0.114503
0.114748
0.114813
0.114983
0.115026
0.112382
0.136775
0.113384
0.113428
0.113619
0.113718
0.114044
0.114211
0.114638
0.114828
0.114937
0.114982
0.113076
0.130366
0.112826
0.112882
0.113051
0.113205
0.113505
0.113742
0.11414
0.114443
0.114829
0.11481
0.114616
0.111156
0.126587
0.112509
0.11256
0.112699
0.11285
0.113124
0.11338
0.113799
0.114138
0.114634
0.11474
0.114829
0.112533
0.127526
0.11511
0.112144
0.112198
0.112325
0.112483
0.112735
0.112997
0.113379
0.113739
0.114208
0.114497
0.11453
0.114
0.110329
0.123374
0.111888
0.11194
0.112058
0.112218
0.112462
0.112734
0.113122
0.113502
0.11404
0.114399
0.114792
0.114429
0.11276
0.126172
0.111665
0.111717
0.111829
0.111986
0.112217
0.112481
0.112847
0.113201
0.113714
0.114033
0.114547
0.114187
0.113922
0.110251
0.131372
0.111509
0.111561
0.11167
0.111828
0.112056
0.112323
0.112696
0.113048
0.113615
0.113911
0.114711
0.11429
0.115068
0.111703
0.127198
0.111401
0.111453
0.11156
0.111715
0.111938
0.112195
0.112557
0.112878
0.113423
0.113618
0.114418
0.113668
0.114645
0.110101
0.126279
0.111348
0.111401
0.111507
0.111662
0.111885
0.112141
0.112505
0.112822
0.113379
0.11355
0.114412
0.113608
0.114844
0.110237
0.125743
0.113846
0.114177
0.115932
0.11249
0.112259
0.112747
0.112405
0.121154
0.114173
0.113955
0.113845
0.114067
0.113511
0.113567
0.112509
0.12448
0.115531
0.113634
0.11362
0.113903
0.113863
0.11379
0.113771
0.113493
0.113223
0.122341
0.11832
0.114058
0.114047
0.114225
0.114128
0.114301
0.114167
0.114119
0.114219
0.113909
0.114042
0.135872
0.113489
0.113529
0.113721
0.11381
0.114032
0.11413
0.114282
0.114302
0.114275
0.113948
0.114058
0.133478
0.113332
0.113364
0.11351
0.113588
0.113824
0.113948
0.114205
0.11434
0.114443
0.114271
0.113906
0.127253
0.112868
0.112914
0.113051
0.11318
0.113414
0.113604
0.113892
0.114094
0.114344
0.114301
0.114216
0.113216
0.123439
0.112587
0.112632
0.112752
0.112883
0.113111
0.113321
0.11364
0.11389
0.114203
0.114276
0.114112
0.113482
0.124526
0.114951
0.112257
0.112305
0.112419
0.112561
0.11278
0.113006
0.11332
0.113601
0.113946
0.114125
0.11416
0.113762
0.112501
0.120844
0.11202
0.112069
0.112177
0.112323
0.112541
0.112779
0.113109
0.113411
0.11382
0.114026
0.114293
0.113781
0.113559
0.123547
0.11181
0.111859
0.111964
0.11211
0.112322
0.112559
0.11288
0.113177
0.113584
0.113804
0.114121
0.113855
0.113504
0.112398
0.129169
0.111663
0.111712
0.111815
0.111963
0.112175
0.112416
0.112749
0.113048
0.113505
0.113715
0.114219
0.113896
0.11406
0.11274
0.124701
0.111561
0.111609
0.111711
0.111857
0.112067
0.112302
0.112629
0.11291
0.113359
0.113523
0.114041
0.113613
0.113838
0.112253
0.124072
0.11151
0.11156
0.111661
0.111808
0.112018
0.112254
0.112583
0.112864
0.113328
0.113484
0.114053
0.113628
0.113948
0.112484
0.123373
0.112819
0.113213
0.114843
0.110819
0.110733
0.110833
0.110913
0.119525
0.113368
0.111452
0.111379
0.111505
0.111132
0.111321
0.111049
0.122096
0.114063
0.111529
0.111507
0.111601
0.111572
0.111428
0.11135
0.111361
0.111456
0.120021
0.116625
0.111894
0.111867
0.111945
0.111842
0.111913
0.111809
0.111664
0.111648
0.111633
0.111848
0.133244
0.111729
0.111743
0.111831
0.111853
0.111911
0.111909
0.111951
0.111896
0.111822
0.111429
0.111849
0.130686
0.111717
0.111731
0.111811
0.111837
0.111946
0.111969
0.112035
0.112027
0.112038
0.11182
0.111631
0.124728
0.111466
0.111494
0.111577
0.111648
0.111771
0.111856
0.111975
0.11201
0.112028
0.111896
0.111646
0.111449
0.121431
0.111303
0.111333
0.111412
0.111492
0.11163
0.11174
0.111894
0.111974
0.112033
0.111947
0.111658
0.111352
0.122422
0.113763
0.11108
0.111114
0.111193
0.111289
0.111431
0.111566
0.111739
0.111854
0.111967
0.111904
0.111803
0.111342
0.111041
0.119174
0.110913
0.110949
0.111028
0.11113
0.11128
0.11143
0.111628
0.111769
0.111943
0.111906
0.111906
0.111419
0.111314
0.121662
0.110755
0.110793
0.110872
0.110978
0.111129
0.111287
0.11149
0.111645
0.111833
0.111847
0.111835
0.111564
0.111125
0.110906
0.127187
0.110643
0.110681
0.11076
0.110871
0.111027
0.111191
0.11141
0.111573
0.111807
0.111825
0.111939
0.111594
0.111498
0.110827
0.12301
0.110562
0.1106
0.11068
0.110792
0.110947
0.111112
0.11133
0.11149
0.111726
0.111737
0.11186
0.1115
0.111372
0.110726
0.122514
0.110521
0.110561
0.110641
0.110754
0.110911
0.111077
0.1113
0.111463
0.111713
0.111724
0.111889
0.111523
0.111446
0.110813
0.121832
0.111851
0.112273
0.113849
0.109651
0.109629
0.109606
0.109748
0.118316
0.112423
0.109946
0.109898
0.109985
0.109747
0.109867
0.10983
0.120614
0.11284
0.110201
0.110188
0.110191
0.110183
0.110019
0.109952
0.10994
0.110067
0.118496
0.11525
0.110473
0.110451
0.110487
0.110407
0.110412
0.110348
0.110164
0.110139
0.110067
0.110312
0.131588
0.110512
0.110513
0.110537
0.110535
0.110522
0.110488
0.110464
0.110383
0.110293
0.109919
0.110322
0.129079
0.110572
0.110576
0.110614
0.110612
0.110641
0.11062
0.110593
0.110534
0.110461
0.110292
0.110067
0.123065
0.110465
0.110481
0.110524
0.110559
0.110609
0.110628
0.110647
0.110609
0.110535
0.110383
0.110138
0.110062
0.12001
0.110378
0.110396
0.110445
0.110491
0.110563
0.11061
0.110658
0.110646
0.110591
0.11046
0.11016
0.109934
0.121085
0.112622
0.110236
0.110259
0.110311
0.110373
0.110459
0.11053
0.110609
0.110627
0.110618
0.110484
0.110343
0.109945
0.109822
0.11791
0.11012
0.110146
0.110201
0.110271
0.110369
0.110458
0.110562
0.110607
0.110637
0.110517
0.110406
0.110011
0.10986
0.120377
0.110006
0.110033
0.110091
0.110167
0.110271
0.110372
0.110489
0.110556
0.110608
0.11053
0.110401
0.110176
0.109739
0.10974
0.125938
0.109922
0.109951
0.11001
0.110091
0.110201
0.11031
0.110443
0.110521
0.110611
0.110532
0.110481
0.110184
0.109979
0.109599
0.121732
0.109861
0.10989
0.10995
0.110033
0.110145
0.110257
0.110393
0.110477
0.110572
0.110507
0.110445
0.110181
0.10989
0.109622
0.121348
0.109831
0.109861
0.109921
0.110005
0.110119
0.110234
0.110375
0.110462
0.110569
0.110509
0.110469
0.110196
0.109942
0.109647
0.120654
0.110866
0.111295
0.112804
0.108584
0.10859
0.108514
0.108693
0.117213
0.111413
0.108629
0.108602
0.108673
0.108525
0.108642
0.108712
0.119385
0.11171
0.108927
0.108924
0.108889
0.108902
0.108746
0.108711
0.10872
0.108864
0.117232
0.114023
0.109097
0.109081
0.109094
0.109039
0.109023
0.108999
0.108823
0.108829
0.108768
0.109049
0.130238
0.109237
0.109234
0.109225
0.109213
0.109165
0.109125
0.109085
0.109011
0.108944
0.108621
0.109054
0.127754
0.109331
0.109326
0.109333
0.109315
0.109301
0.109267
0.1092
0.10914
0.109049
0.108944
0.108768
0.121752
0.109346
0.10935
0.109361
0.109363
0.109357
0.109335
0.109302
0.109236
0.10914
0.10901
0.108827
0.10886
0.118793
0.109328
0.109336
0.109356
0.109371
0.109387
0.109381
0.109356
0.1093
0.109198
0.109082
0.10882
0.108715
0.119922
0.111549
0.109266
0.109278
0.109304
0.109332
0.109365
0.10938
0.10938
0.109334
0.109265
0.109121
0.108994
0.108705
0.108705
0.11678
0.109202
0.109217
0.109249
0.109286
0.109333
0.109364
0.109386
0.109355
0.109298
0.109161
0.109017
0.10874
0.108635
0.119249
0.109133
0.109151
0.109186
0.109231
0.109286
0.109331
0.109369
0.10936
0.109311
0.109207
0.109033
0.108895
0.108517
0.108685
0.124803
0.109079
0.109097
0.109136
0.109186
0.109248
0.109303
0.109355
0.109358
0.10933
0.10922
0.109089
0.108883
0.108666
0.108507
0.120591
0.109038
0.109057
0.109097
0.10915
0.109216
0.109276
0.109333
0.109347
0.109322
0.109229
0.109075
0.108917
0.108595
0.108581
0.120247
0.109017
0.109038
0.109078
0.109133
0.109201
0.109264
0.109326
0.109344
0.109329
0.109234
0.109094
0.108923
0.108626
0.108581
0.11956
0.109862
0.110295
0.111765
0.107517
0.107542
0.107436
0.107636
0.11613
0.110377
0.107432
0.10742
0.107481
0.107376
0.107492
0.10761
0.118236
0.110612
0.107735
0.10774
0.107688
0.107714
0.107569
0.107539
0.107569
0.10771
0.116062
0.112874
0.107824
0.107815
0.107819
0.107782
0.10776
0.10776
0.107596
0.107612
0.107568
0.107862
0.128988
0.108003
0.108
0.107974
0.107961
0.107902
0.107863
0.107824
0.107758
0.107713
0.107419
0.107864
0.126525
0.108096
0.10809
0.108082
0.108059
0.108026
0.107991
0.107911
0.107861
0.107774
0.107712
0.107568
0.120552
0.108178
0.108175
0.108164
0.10815
0.108118
0.10808
0.108025
0.107955
0.107861
0.107757
0.10761
0.107706
0.117643
0.108213
0.108213
0.108212
0.108202
0.108181
0.108148
0.108091
0.108024
0.107909
0.107822
0.107593
0.107565
0.118808
0.110492
0.108214
0.108217
0.108222
0.108224
0.108216
0.108192
0.108148
0.108079
0.107989
0.10786
0.107756
0.107534
0.107604
0.115686
0.108194
0.108201
0.108212
0.108222
0.108227
0.108215
0.10818
0.108116
0.108023
0.107898
0.107755
0.107563
0.107486
0.11816
0.108165
0.108174
0.108189
0.108207
0.108222
0.108222
0.108199
0.108147
0.108055
0.107956
0.107776
0.107707
0.107367
0.107627
0.123691
0.108138
0.108148
0.108166
0.108189
0.108211
0.10822
0.10821
0.108161
0.108079
0.10797
0.107813
0.107683
0.107474
0.107429
0.119493
0.108115
0.108126
0.108147
0.108173
0.108199
0.108215
0.10821
0.108171
0.108086
0.107995
0.107808
0.107732
0.107411
0.107531
0.119168
0.108104
0.108115
0.108137
0.108164
0.108193
0.108211
0.108211
0.108176
0.108095
0.108001
0.107821
0.107732
0.10743
0.107514
0.118493
0.108848
0.109286
0.110731
0.106462
0.106499
0.10638
0.106585
0.115062
0.109335
0.106312
0.106311
0.106364
0.106281
0.106393
0.106529
0.117127
0.109534
0.1066
0.106611
0.106553
0.106586
0.106451
0.106424
0.106464
0.106595
0.114939
0.111763
0.106629
0.106626
0.106626
0.106604
0.106581
0.106596
0.106444
0.106467
0.106432
0.106725
0.127803
0.106811
0.10681
0.106779
0.106768
0.106709
0.106676
0.106642
0.106586
0.106559
0.106288
0.106726
0.125357
0.106887
0.106881
0.106867
0.106846
0.106808
0.106779
0.1067
0.106663
0.106586
0.106559
0.10643
0.119407
0.106993
0.106988
0.106967
0.106948
0.106906
0.106866
0.106808
0.106746
0.106663
0.106585
0.106464
0.106592
0.116529
0.107049
0.107044
0.10703
0.10701
0.106975
0.106935
0.106867
0.106807
0.106698
0.10664
0.106441
0.106461
0.117716
0.109439
0.107095
0.107092
0.107082
0.107065
0.107034
0.106994
0.106935
0.106865
0.106777
0.106672
0.106592
0.106419
0.106523
0.11461
0.10711
0.107109
0.107105
0.107094
0.107071
0.107033
0.106974
0.106904
0.106805
0.106706
0.106577
0.106447
0.106387
0.117087
0.107112
0.107114
0.107113
0.10711
0.107094
0.107064
0.107008
0.106945
0.106842
0.106764
0.106598
0.106578
0.106272
0.106575
0.122601
0.107107
0.107109
0.107112
0.107113
0.107103
0.10708
0.107029
0.106965
0.106864
0.106776
0.106622
0.106548
0.106357
0.106372
0.118417
0.1071
0.107104
0.107108
0.107112
0.107107
0.10709
0.107041
0.106984
0.106877
0.106805
0.10662
0.106603
0.1063
0.106487
0.118104
0.107098
0.1071
0.107105
0.107111
0.107107
0.107093
0.107048
0.106991
0.106885
0.106809
0.106628
0.106598
0.106312
0.106461
0.117438
0.107828
0.10827
0.109698
0.105417
0.105457
0.105337
0.10554
0.114003
0.108293
0.105228
0.105234
0.105284
0.105215
0.105322
0.105464
0.116043
0.108469
0.105493
0.105507
0.105449
0.105487
0.105359
0.105336
0.105381
0.105506
0.113842
0.110676
0.105477
0.105479
0.105479
0.105467
0.105446
0.105471
0.10533
0.105358
0.105331
0.105625
0.126659
0.105643
0.105644
0.105614
0.105608
0.105552
0.105527
0.105501
0.105456
0.105443
0.105194
0.105624
0.124228
0.105694
0.10569
0.105675
0.10566
0.105623
0.105604
0.105533
0.10551
0.105446
0.105443
0.105329
0.118295
0.1058
0.105794
0.105772
0.105754
0.105712
0.105678
0.105625
0.105578
0.10551
0.105455
0.105356
0.105503
0.115438
0.105856
0.10585
0.105832
0.105811
0.105772
0.105736
0.105672
0.105625
0.105531
0.105499
0.105327
0.105378
0.116638
0.108391
0.10592
0.105913
0.105895
0.105873
0.105835
0.105794
0.105735
0.105676
0.105601
0.105523
0.105467
0.105331
0.105458
0.113545
0.105958
0.105952
0.105937
0.105914
0.105877
0.105834
0.105771
0.10571
0.105621
0.10555
0.105442
0.105355
0.105316
0.116024
0.105983
0.105979
0.105968
0.105949
0.105914
0.105872
0.105809
0.105751
0.105656
0.105603
0.105461
0.105479
0.105206
0.105529
0.121527
0.105994
0.105991
0.105982
0.105967
0.105936
0.105894
0.105831
0.10577
0.105673
0.105611
0.105475
0.105445
0.105277
0.105328
0.117356
0.106
0.105997
0.10599
0.105978
0.10595
0.105911
0.105847
0.105791
0.105686
0.105639
0.105472
0.105499
0.105222
0.105446
0.117048
0.106002
0.105999
0.105993
0.105981
0.105956
0.105919
0.105855
0.105798
0.105692
0.105642
0.105477
0.105492
0.10523
0.105417
0.116388
0.106807
0.107251
0.10867
0.104383
0.104427
0.104302
0.104502
0.112954
0.107256
0.104169
0.10418
0.104227
0.104169
0.10427
0.104413
0.114976
0.107415
0.104405
0.104421
0.104366
0.104408
0.104283
0.104266
0.104313
0.104436
0.112763
0.109605
0.104354
0.10436
0.104362
0.104358
0.104341
0.104372
0.104244
0.104276
0.104256
0.104549
0.125539
0.104492
0.104496
0.104468
0.104468
0.104419
0.104403
0.104385
0.104356
0.104351
0.104129
0.104548
0.123125
0.104516
0.104516
0.104503
0.104494
0.104463
0.104454
0.104395
0.104386
0.104339
0.10435
0.104254
0.117204
0.104605
0.104602
0.104582
0.104568
0.104532
0.104508
0.104467
0.104436
0.104385
0.104354
0.104273
0.104434
0.114364
0.104651
0.104646
0.104629
0.104611
0.104577
0.104549
0.104497
0.104466
0.104394
0.104383
0.104241
0.10431
0.115571
0.107348
0.104713
0.104707
0.104688
0.104666
0.104631
0.104597
0.104549
0.104507
0.104452
0.1044
0.104369
0.104262
0.104408
0.11249
0.104756
0.104748
0.10473
0.104706
0.104668
0.10463
0.104576
0.104531
0.104461
0.104417
0.104337
0.10428
0.104265
0.11497
0.104795
0.104789
0.10477
0.104744
0.104705
0.104665
0.10461
0.104566
0.104491
0.104464
0.104353
0.104401
0.104161
0.104492
0.120468
0.104818
0.104811
0.104795
0.10477
0.104729
0.104687
0.104628
0.10458
0.104501
0.104465
0.104358
0.104363
0.10422
0.104297
0.116306
0.104832
0.104825
0.10481
0.104787
0.104747
0.104704
0.104643
0.104599
0.104511
0.10449
0.104354
0.104413
0.104168
0.104412
0.115998
0.104838
0.104832
0.104817
0.104794
0.104755
0.104712
0.104649
0.104604
0.104514
0.10449
0.104354
0.104404
0.104171
0.104383
0.115343
0.105798
0.106235
0.10765
0.103363
0.103406
0.103285
0.103477
0.111919
0.10623
0.103128
0.103142
0.10319
0.103146
0.103236
0.103377
0.113926
0.106373
0.103331
0.103347
0.1033
0.103342
0.103223
0.103211
0.103253
0.103384
0.111696
0.108548
0.10325
0.103259
0.103264
0.10327
0.103256
0.103293
0.103177
0.103214
0.103205
0.103497
0.12443
0.103351
0.103355
0.103335
0.10334
0.1033
0.103296
0.103286
0.103277
0.103277
0.103091
0.103495
0.122039
0.103347
0.103349
0.103341
0.10334
0.103318
0.10332
0.103278
0.103282
0.103257
0.103277
0.103203
0.116129
0.10341
0.103409
0.103394
0.103387
0.10336
0.103349
0.103323
0.103313
0.103281
0.103276
0.103212
0.103382
0.113307
0.103438
0.103435
0.103422
0.103411
0.103386
0.10337
0.103335
0.103322
0.103277
0.103284
0.103175
0.103251
0.114511
0.106313
0.103487
0.103482
0.103467
0.103451
0.103423
0.103402
0.10337
0.103348
0.103318
0.103294
0.10329
0.103207
0.103373
0.111444
0.103524
0.103518
0.103501
0.10348
0.10345
0.103424
0.103386
0.103359
0.103316
0.103299
0.103253
0.103221
0.103232
0.113925
0.103564
0.103555
0.103536
0.103513
0.10348
0.10345
0.10341
0.103385
0.103337
0.103337
0.103265
0.103336
0.103139
0.10347
0.119421
0.103592
0.103584
0.103564
0.103537
0.1035
0.103466
0.103421
0.103393
0.103339
0.103333
0.103261
0.103298
0.103185
0.103284
0.115267
0.103612
0.103603
0.103584
0.103555
0.103516
0.103481
0.103433
0.103406
0.103345
0.103351
0.103253
0.10334
0.103132
0.103391
0.114957
0.103621
0.103612
0.103592
0.103564
0.103524
0.103486
0.103437
0.103409
0.103346
0.103349
0.103249
0.10333
0.10313
0.103362
0.114303
0.104793
0.105224
0.106642
0.102361
0.102398
0.102303
0.10248
0.110901
0.10522
0.102101
0.102119
0.102176
0.102149
0.102225
0.102362
0.112894
0.105343
0.102266
0.102283
0.102251
0.102291
0.102175
0.102169
0.102204
0.102347
0.110638
0.107502
0.102154
0.102168
0.102179
0.102197
0.102187
0.102229
0.102128
0.102172
0.102181
0.102471
0.12332
0.102211
0.102217
0.102207
0.102219
0.10219
0.102199
0.102198
0.102215
0.102222
0.102085
0.102467
0.120965
0.10218
0.102185
0.102183
0.102191
0.10218
0.102194
0.102172
0.102192
0.102194
0.102222
0.102179
0.115067
0.10221
0.102211
0.102204
0.102205
0.10219
0.102194
0.102186
0.102199
0.102191
0.102214
0.102171
0.102346
0.112267
0.102218
0.102218
0.102211
0.102207
0.102194
0.102193
0.102178
0.102185
0.102171
0.102197
0.102127
0.102202
0.113461
0.105289
0.102247
0.102245
0.102235
0.102227
0.102211
0.102204
0.102193
0.102194
0.102193
0.102198
0.102227
0.102166
0.102359
0.110408
0.102273
0.102268
0.102256
0.102243
0.102224
0.102211
0.102194
0.10219
0.102179
0.102189
0.102185
0.102175
0.102222
0.112894
0.102303
0.102296
0.102281
0.102264
0.102243
0.102226
0.102206
0.102203
0.102189
0.102216
0.102194
0.102286
0.102145
0.102474
0.118391
0.10233
0.102321
0.102303
0.102281
0.102255
0.102234
0.10221
0.102203
0.102182
0.102206
0.102178
0.10225
0.102171
0.102301
0.114243
0.102351
0.102341
0.10232
0.102296
0.102267
0.102243
0.102216
0.102209
0.102182
0.102214
0.102164
0.102277
0.102113
0.102388
0.113925
0.102361
0.102351
0.102329
0.102303
0.102273
0.102247
0.102217
0.102209
0.102179
0.10221
0.102155
0.102266
0.102101
0.102362
0.113268
0.103803
0.104227
0.10566
0.101391
0.101427
0.101368
0.101532
0.109912
0.104238
0.101085
0.10111
0.101187
0.101191
0.101244
0.101378
0.111888
0.104329
0.10121
0.101229
0.101221
0.101256
0.101143
0.101141
0.101166
0.101326
0.10959
0.106468
0.101061
0.10108
0.101104
0.101135
0.10113
0.101177
0.101097
0.101152
0.101188
0.101487
0.122169
0.101066
0.101076
0.101079
0.101098
0.101081
0.101108
0.101118
0.101166
0.101188
0.101122
0.101489
0.119902
0.101006
0.101015
0.101022
0.101039
0.101041
0.10107
0.101071
0.101112
0.101146
0.101189
0.101188
0.114018
0.101001
0.101005
0.101007
0.101017
0.101016
0.101036
0.101049
0.101087
0.101111
0.101166
0.101152
0.101326
0.111253
0.100987
0.10099
0.10099
0.100996
0.100996
0.101011
0.10102
0.101049
0.10107
0.101117
0.101096
0.101166
0.112424
0.104282
0.100993
0.100994
0.100991
0.100991
0.10099
0.100999
0.10101
0.101036
0.101069
0.101107
0.101176
0.101139
0.101376
0.109385
0.101005
0.101003
0.100997
0.100993
0.100987
0.10099
0.100996
0.101016
0.10104
0.101081
0.101129
0.101142
0.101242
0.111882
0.101022
0.101018
0.101009
0.101001
0.100993
0.100991
0.100995
0.101015
0.101038
0.101096
0.101132
0.101253
0.101188
0.101528
0.117385
0.101042
0.101035
0.101023
0.10101
0.100997
0.10099
0.100989
0.101006
0.101021
0.101078
0.101102
0.10122
0.101184
0.101367
0.11324
0.101059
0.10105
0.101035
0.101018
0.101002
0.100992
0.100988
0.101003
0.101012
0.101073
0.101076
0.101224
0.101107
0.101419
0.112905
0.101071
0.10106
0.101042
0.101023
0.101005
0.100993
0.100986
0.101
0.101006
0.101066
0.101062
0.101211
0.101085
0.101392
0.112237
0.102828
0.103251
0.104716
0.10047
0.100509
0.100519
0.100678
0.108971
0.103304
0.100071
0.100108
0.10023
0.100283
0.100307
0.100443
0.110931
0.103345
0.100165
0.100188
0.100214
0.100242
0.100127
0.100127
0.100144
0.100325
0.108548
0.105444
0.0999604
0.0999792
0.100027
0.100077
0.10008
0.100137
0.100082
0.100162
0.10024
0.100601
0.120968
0.0999084
0.0999202
0.0999434
0.0999706
0.0999678
0.100013
0.10004
0.100129
0.100181
0.100221
0.10061
0.118845
0.0998167
0.0998282
0.0998467
0.0998734
0.0998893
0.0999387
0.099966
0.100036
0.100111
0.100182
0.100241
0.112982
0.0997779
0.0997844
0.0997961
0.0998143
0.0998291
0.0998668
0.0999039
0.0999703
0.100036
0.10013
0.100163
0.100326
0.110282
0.0997407
0.099746
0.099755
0.0997698
0.0997855
0.0998166
0.0998505
0.0999041
0.0999661
0.10004
0.100083
0.100145
0.111409
0.103304
0.0997245
0.0997274
0.0997321
0.0997418
0.0997553
0.0997811
0.0998167
0.0998673
0.0999384
0.100013
0.100137
0.100128
0.100443
0.108381
0.0997233
0.0997241
0.0997251
0.0997297
0.0997363
0.0997556
0.099786
0.0998295
0.099889
0.0999674
0.10008
0.100127
0.100307
0.110903
0.0997269
0.0997256
0.0997236
0.0997239
0.0997293
0.0997419
0.0997696
0.0998139
0.0998722
0.09997
0.100075
0.100241
0.100281
0.100677
0.116412
0.0997369
0.0997333
0.0997282
0.0997239
0.099725
0.099732
0.0997545
0.0997957
0.0998457
0.0999432
0.100026
0.100214
0.10023
0.100519
0.112266
0.099747
0.0997413
0.0997335
0.0997254
0.0997236
0.0997267
0.0997451
0.0997832
0.0998267
0.0999189
0.0999777
0.100186
0.100107
0.100506
0.111903
0.0997557
0.0997476
0.0997375
0.0997276
0.0997234
0.0997242
0.0997401
0.099777
0.0998161
0.0999082
0.0999605
0.100165
0.100071
0.100469
0.111212
0.101875
0.102297
0.103833
0.0996261
0.0996807
0.0998288
0.10001
0.108105
0.10246
0.0990194
0.0990737
0.099284
0.0994335
0.0994146
0.0995922
0.110051
0.102419
0.0991484
0.0991651
0.0992431
0.0992468
0.0991068
0.0990979
0.0991385
0.0993584
0.107506
0.104418
0.0988054
0.0988349
0.0989269
0.0990125
0.0990173
0.099126
0.0990687
0.0992091
0.0993507
0.0999334
0.119586
0.0987613
0.0987718
0.0988096
0.0988353
0.0988332
0.0989006
0.0989557
0.0990997
0.0991991
0.099417
0.0999271
0.117783
0.0985998
0.0986153
0.098655
0.0986973
0.0987296
0.0987985
0.0988467
0.0989509
0.0990773
0.0992011
0.0993507
0.112032
0.098541
0.0985492
0.0985707
0.0985954
0.0986235
0.0986787
0.0987411
0.0988381
0.0989515
0.0991005
0.099211
0.099362
0.109385
0.0984753
0.0984837
0.0985023
0.0985264
0.0985571
0.0986039
0.0986627
0.0987416
0.0988473
0.0989568
0.09907
0.0991406
0.110435
0.102387
0.098438
0.0984433
0.0984555
0.0984731
0.0985007
0.0985434
0.0986044
0.0986793
0.098799
0.0989012
0.0991269
0.0990993
0.0995947
0.107407
0.0984275
0.0984309
0.0984381
0.0984499
0.0984659
0.0985013
0.0985575
0.0986239
0.0987299
0.0988337
0.0990178
0.0991086
0.0994163
0.109981
0.0984194
0.0984204
0.0984247
0.0984327
0.0984499
0.0984733
0.0985261
0.0985954
0.0986973
0.0988352
0.0990125
0.0992472
0.0994342
0.100011
0.115476
0.0984206
0.0984201
0.0984215
0.0984249
0.098438
0.0984552
0.0985021
0.0985705
0.0986547
0.0988096
0.0989272
0.0992435
0.0992848
0.0998304
0.111339
0.0984238
0.0984213
0.0984201
0.0984201
0.0984304
0.0984429
0.098483
0.0985484
0.0986146
0.0987716
0.0988346
0.0991652
0.099074
0.0996816
0.110923
0.0984269
0.0984236
0.0984206
0.0984193
0.0984274
0.0984381
0.098475
0.0985404
0.0985996
0.0987614
0.0988057
0.0991477
0.0990186
0.0996241
0.110183
0.100961
0.101368
0.103062
0.0988906
0.0989758
0.0994156
0.0996942
0.107342
0.101796
0.0979072
0.0979713
0.0983663
0.0986755
0.0985376
0.09887
0.109305
0.101639
0.098118
0.0981233
0.098289
0.0982484
0.0980651
0.0980624
0.0981355
0.0984491
0.106484
0.103258
0.0976065
0.0976416
0.0977996
0.0979299
0.0979317
0.0981014
0.0980589
0.098248
0.0984929
0.0996418
0.117529
0.097578
0.0975836
0.0976455
0.097663
0.097667
0.0977593
0.097846
0.098059
0.098136
0.0986326
0.0996433
0.116599
0.0973504
0.097368
0.0974312
0.0974862
0.0975356
0.0976279
0.0977014
0.0978314
0.097997
0.0981392
0.0984949
0.111049
0.0972871
0.0972947
0.0973256
0.0973531
0.0973928
0.0974647
0.0975515
0.0976865
0.0978314
0.0980602
0.0982506
0.0984547
0.108619
0.0971947
0.0972047
0.0972336
0.0972648
0.0973095
0.09737
0.0974518
0.0975522
0.097702
0.0978477
0.0980613
0.09814
0.109579
0.101636
0.0971513
0.0971579
0.0971762
0.0971986
0.0972373
0.0972891
0.0973702
0.0974651
0.097628
0.0977606
0.0981031
0.098066
0.0988748
0.106526
0.0971207
0.097126
0.0971402
0.09716
0.0971937
0.0972377
0.0973097
0.097393
0.0975359
0.097668
0.0979329
0.0980679
0.0985407
0.109162
0.0971029
0.0971058
0.0971157
0.0971306
0.0971599
0.0971984
0.0972644
0.0973528
0.0974862
0.0976634
0.0979307
0.0982496
0.0986777
0.0996973
0.114554
0.0970951
0.0970974
0.0971044
0.0971158
0.0971402
0.097176
0.0972334
0.0973253
0.0974315
0.0976457
0.0978006
0.0982899
0.0983687
0.0994186
0.110516
0.0970945
0.0970929
0.0970971
0.0971056
0.0971257
0.0971575
0.0972039
0.0972941
0.0973678
0.0975836
0.0976425
0.0981242
0.0979738
0.0989791
0.10999
0.0970944
0.0970942
0.097095
0.0971024
0.0971204
0.0971511
0.0971943
0.0972866
0.0973505
0.0975775
0.0976066
0.0981165
0.0979056
0.0988863
0.109149
0.100163
0.100528
0.102586
0.0982859
0.0983209
0.0994981
0.09997
0.106709
0.101562
0.0966804
0.0967596
0.0974492
0.0979729
0.0975915
0.0983015
0.108774
0.101297
0.0970485
0.0970164
0.0973054
0.0971569
0.0969606
0.0969857
0.0971455
0.0976713
0.105707
0.101981
0.0963462
0.0963764
0.0966308
0.0967915
0.0967987
0.0970392
0.0970854
0.097351
0.0982206
0.100479
0.114116
0.0963483
0.0963436
0.096435
0.0964309
0.0964478
0.096571
0.0967176
0.0971147
0.0972185
0.0987351
0.100484
0.11493
0.096063
0.096079
0.0961704
0.0962289
0.096297
0.0964086
0.0965245
0.0967085
0.0970263
0.0972219
0.0982245
0.10975
0.0960041
0.0960095
0.0960496
0.0960746
0.0961247
0.0962105
0.0963225
0.0965107
0.0967076
0.0971169
0.097355
0.0976784
0.108084
0.0958914
0.0959015
0.0959402
0.0959737
0.096031
0.0961
0.0962031
0.0963229
0.0965248
0.0967195
0.0970886
0.0971518
0.109042
0.101454
0.0958469
0.0958531
0.0958758
0.0958995
0.0959461
0.0960043
0.0960998
0.0962106
0.0964086
0.0965727
0.0970414
0.0969914
0.0983097
0.105998
0.0958064
0.0958123
0.0958316
0.0958544
0.0958965
0.0959461
0.0960311
0.0961249
0.0962972
0.0964491
0.0968007
0.0969648
0.0975964
0.108504
0.0957844
0.0957883
0.0958019
0.0958195
0.095854
0.0958996
0.0959736
0.0960742
0.0962288
0.0964322
0.0967931
0.0971595
0.0979758
0.0999738
0.11356
0.0957719
0.0957752
0.0957859
0.0958016
0.0958316
0.0958757
0.0959398
0.096049
0.0961708
0.0964355
0.0966321
0.0973068
0.0974529
0.0995038
0.110084
0.0957654
0.0957668
0.0957748
0.095788
0.0958121
0.0958524
0.0959008
0.0960088
0.0960793
0.0963434
0.0963781
0.0970177
0.0967644
0.0983276
0.109168
0.0957629
0.0957642
0.095771
0.0957833
0.0958053
0.0958459
0.0958908
0.096003
0.0960628
0.0963468
0.0963458
0.0970451
0.0966786
0.098278
0.108106
0.0999186
0.10022
0.103343
0.0977312
0.0976033
0.100626
0.100762
0.106339
0.102822
0.0953047
0.0953463
0.0965356
0.0975464
0.0966901
0.0978477
0.108453
0.102427
0.0958971
0.0958078
0.0962242