/*--------------------------------*- C++ -*----------------------------------*\
| =========                 |                                                 |
| \\      /  F ield         | OpenFOAM: The Open Source CFD Toolbox           |
|  \\    /   O peration     | Version:  2.1.1                                 |
|   \\  /    A nd           | Web:      www.OpenFOAM.org                      |
|    \\/     M anipulation  |                                                 |
\*---------------------------------------------------------------------------*/
FoamFile
{
    version     2.0;
    format      ascii;
    class       volVectorField;
    location    "0.0005";
    object      U;
}
// * * * * * * * * * * * * * * * * * * * * * * * * * * * * * * * * * * * * * //

dimensions      [0 1 -1 0 0 0 0];

internalField   nonuniform List<vector> 
10233
(
(0.000287473 0.000206881 0.0729995)
(0.00220839 0.00151728 0.0703385)
(0.011663 -0.0063158 0.044701)
(0.000420971 0.0167337 0.0804083)
(0.00223889 0.0150495 0.0800715)
(0.0027425 0.0083177 0.0814486)
(-0.00270496 -0.00872407 0.0813108)
(0.00634884 -0.0130823 0.0744128)
(-0.00339789 -0.000918664 0.0630662)
(8.75983e-05 0.00689914 0.0832905)
(-0.000197738 0.00606634 0.0830395)
(-0.000413705 0.00384026 0.0831136)
(-0.00155223 0.00193361 0.0832282)
(-0.00117413 0.00595513 0.0820438)
(-0.00310369 0.00870661 0.0809469)
(-0.0034486 -0.00252336 0.0848495)
(0.00784144 0.00210024 0.0626739)
(-2.96432e-05 0.00359567 0.0840805)
(-0.000295927 0.00346495 0.0841034)
(-0.000918378 0.00300096 0.0842563)
(-0.00194954 0.00261436 0.0848058)
(-0.00297839 0.00362105 0.0845244)
(-0.00310073 0.00546848 0.083447)
(-0.00361494 0.00998548 0.0812864)
(-0.00127206 0.00934348 0.0806375)
(0.00151633 -0.00607958 0.0820763)
(-0.00401174 -0.00487203 0.0594092)
(-6.04858e-05 0.00160035 0.0842721)
(-0.000250009 0.0016464 0.084397)
(-0.000658984 0.00169371 0.0846181)
(-0.00120624 0.00184655 0.0849292)
(-0.00195822 0.00248625 0.085113)
(-0.00254715 0.00352306 0.085174)
(-0.00337419 0.00497451 0.0844605)
(-0.00284037 0.00627027 0.0834276)
(-0.00233405 0.00930542 0.0823877)
(-0.00415529 0.0123996 0.08529)
(0.002974 -0.00295314 0.0618518)
(-8.00876e-05 0.00125117 0.084444)
(-0.000240522 0.0012974 0.0845566)
(-0.000513731 0.00135608 0.0847074)
(-0.000816168 0.00138863 0.0848894)
(-0.00124292 0.00162156 0.0850301)
(-0.00155965 0.00201294 0.0851395)
(-0.00206646 0.00280314 0.0852726)
(-0.00231256 0.00355894 0.0854974)
(-0.00307318 0.00489617 0.0855925)
(-0.00413058 0.00565265 0.0857422)
(-0.00581988 0.00966513 0.0910964)
(-0.000321484 -0.00373439 0.0622452)
(-9.00479e-05 0.000853394 0.0845717)
(-0.000225876 0.000890163 0.0846708)
(-0.00041874 0.000949775 0.0847811)
(-0.000613709 0.000999927 0.0849098)
(-0.000886379 0.00111939 0.0850154)
(-0.00108006 0.00127537 0.0851279)
(-0.00142578 0.00158285 0.0852579)
(-0.00172862 0.00191574 0.0855193)
(-0.00250778 0.00241853 0.0861238)
(-0.00430769 0.00334231 0.0877843)
(-0.00549343 0.00417641 0.0873394)
(0.00270624 0.00677234 0.0862249)
(-9.12587e-05 0.000745326 0.0846751)
(-0.000215626 0.000754032 0.0847631)
(-0.000368662 0.000775757 0.0848549)
(-0.000519876 0.000795256 0.0849579)
(-0.00071614 0.000861539 0.0850539)
(-0.000876707 0.000946735 0.0851632)
(-0.00114301 0.001119 0.0852915)
(-0.0014468 0.0012962 0.0855136)
(-0.00221602 0.00164402 0.0860062)
(-0.003771 0.0021418 0.0873085)
(-0.0061436 0.00346436 0.0885082)
(-0.00477974 0.00607514 0.08691)
(0.00663006 -0.00635515 0.0746239)
(-8.80262e-05 0.00059084 0.084762)
(-0.000203349 0.000590187 0.0848425)
(-0.000334145 0.000597855 0.0849256)
(-0.000465774 0.000605422 0.0850155)
(-0.000626864 0.000640518 0.085106)
(-0.000779701 0.000691067 0.0852125)
(-0.00101047 0.000783383 0.0853318)
(-0.0012996 0.000889415 0.0855219)
(-0.00192935 0.00106357 0.0858561)
(-0.00317586 0.00139036 0.0866784)
(-0.00563181 0.00210554 0.0882733)
(-0.00601781 0.00345692 0.0873779)
(-0.00182341 0.00340479 0.0865703)
(0.00579173 0.00019115 0.0542278)
(-8.39641e-05 0.000487459 0.0848416)
(-0.000193303 0.00048341 0.084917)
(-0.00031029 0.000482843 0.0849923)
(-0.000430441 0.00048341 0.0850769)
(-0.000571194 0.000498266 0.0851643)
(-0.000715899 0.000528249 0.0852665)
(-0.000916076 0.000597741 0.0853816)
(-0.00117017 0.000691178 0.0855456)
(-0.001651 0.00086399 0.0858027)
(-0.00254792 0.00117243 0.0863473)
(-0.00433167 0.00195725 0.0875861)
(-0.0056516 0.00342581 0.0881853)
(-0.00327725 0.0077222 0.0853194)
(0.0115501 0.000992722 0.076784)
(-8.03906e-05 0.000377641 0.0849146)
(-0.000184003 0.000373103 0.0849869)
(-0.000292518 0.00037148 0.0850616)
(-0.000405416 0.000368219 0.0851393)
(-0.000533972 0.000370917 0.0852247)
(-0.000671891 0.000379053 0.0853227)
(-0.000850988 0.000409096 0.0854333)
(-0.00107286 0.000459417 0.0855794)
(-0.00144503 0.000543673 0.0857793)
(-0.00206393 0.000697591 0.0861352)
(-0.00332334 0.00108449 0.08681)
(-0.00510475 0.00209693 0.0879663)
(-0.0030411 0.00402673 0.0863692)
(0.0120274 0.00724208 0.0842188)
(-7.76514e-05 0.00028166 0.0849846)
(-0.000176447 0.000277902 0.0850552)
(-0.000278773 0.000275594 0.0851273)
(-0.000385966 0.000273399 0.0852047)
(-0.000505524 0.000273557 0.0852883)
(-0.00063463 0.000276617 0.0853842)
(-0.000795521 0.00029184 0.0854929)
(-0.000984668 0.000327463 0.0856323)
(-0.00127683 0.000394968 0.0858085)
(-0.00171023 0.000516688 0.086094)
(-0.00261517 0.000755022 0.0865803)
(-0.00410738 0.00139426 0.0875976)
(-0.00446779 0.00245102 0.0877875)
(-0.00229356 0.00597844 0.0853339)
(0.00279068 0.00142358 0.0611996)
(-7.63431e-05 0.000187193 0.0850526)
(-0.000170521 0.000184907 0.0851221)
(-0.000268629 0.000182477 0.0851944)
(-0.000371706 0.000179195 0.0852715)
(-0.000485828 0.000177277 0.0853554)
(-0.000609423 0.000173925 0.0854513)
(-0.000759761 0.000174404 0.0855613)
(-0.000929369 0.000182224 0.085704)
(-0.00118124 0.00020253 0.0858812)
(-0.00150234 0.000253372 0.0861783)
(-0.0022222 0.0002878 0.0866474)
(-0.00333135 0.000442943 0.0877213)
(-0.00494879 5.31199e-05 0.089287)
(-0.00127371 -0.00198508 0.0877248)
(0.00845609 -0.0185553 0.0627209)
(-7.56091e-05 9.88618e-05 0.0851199)
(-0.000166494 9.68104e-05 0.0851899)
(-0.000261774 9.48349e-05 0.0852631)
(-0.000361564 9.2845e-05 0.085341)
(-0.000471737 9.07696e-05 0.0854263)
(-0.000591736 8.91984e-05 0.0855248)
(-0.0007355 8.89006e-05 0.0856381)
(-0.000894353 9.72667e-05 0.085789)
(-0.00113085 0.00011991 0.0859801)
(-0.00140552 0.000181015 0.0863267)
(-0.00207781 0.000243349 0.0868777)
(-0.00305771 0.0002972 0.0881027)
(-0.00550401 -0.000160816 0.0899726)
(-0.00475782 -0.00248239 0.0899508)
(-0.0015923 -0.00951937 0.0847157)
(-7.45107e-05 9.78482e-06 0.0851876)
(-0.000164558 9.82347e-06 0.0852585)
(-0.0002575 7.39159e-06 0.0853326)
(-0.000355365 4.24951e-06 0.0854131)
(-0.000464072 4.44301e-07 0.0855012)
(-0.00058205 -3.62773e-06 0.0856036)
(-0.000724608 -7.30178e-06 0.0857224)
(-0.000881231 -7.677e-06 0.0858829)
(-0.0011191 1.96477e-06 0.0860885)
(-0.0013876 3.99232e-05 0.0864708)
(-0.00206396 8.85541e-05 0.087041)
(-0.0029995 0.000139704 0.088324)
(-0.00560051 2.12829e-05 0.0902133)
(-0.00738552 -0.00078905 0.0901539)
(-0.000235281 -0.00248713 0.0856916)
(0.000826945 -0.00675667 0.0580947)
(0.00212968 -0.00578793 0.0525186)
(-0.000425207 -0.00265677 0.023892)
(0.000746875 0.0434764 0.125058)
(0.00102709 0.0392257 0.125872)
(-0.00303365 0.0315856 0.135945)
(-0.0183025 0.0214405 0.119639)
(-0.0154097 -0.00903997 0.0952731)
(0.00299672 -0.00374759 0.0455319)
(0.000236571 0.0171703 0.13825)
(-0.000166791 0.0151477 0.139648)
(0.000214278 0.0139778 0.143426)
(-0.00750071 0.0161495 0.145547)
(-0.00986015 0.0278737 0.123905)
(-0.0226384 0.0311778 0.110951)
(-0.0194391 -0.00333601 0.116274)
(0.00500618 -0.00308471 0.0505032)
(-0.000256735 0.0148091 0.134517)
(-0.00175982 0.0141608 0.135325)
(-0.00300441 0.0137305 0.136517)
(-0.00670299 0.0122768 0.139649)
(-0.00756869 0.0175149 0.141519)
(-0.0122488 0.0208669 0.144375)
(-0.00978419 0.0322412 0.124336)
(-0.0199734 0.0350218 0.11748)
(-0.0148814 -0.000332704 0.103268)
(0.00372771 -0.00849261 0.0333038)
(-0.000293884 0.00908511 0.130353)
(-0.00140976 0.00900713 0.130806)
(-0.00215447 0.00957152 0.131324)
(-0.00429281 0.00988083 0.132888)
(-0.00561402 0.012646 0.134745)
(-0.00824671 0.0133564 0.138669)
(-0.00790956 0.0193059 0.141511)
(-0.0118281 0.0218282 0.145551)
(-0.006505 0.0307607 0.125153)
(-0.01731 0.0219234 0.121946)
(-0.0297994 0.00194261 0.061759)
(-0.000357948 0.00781251 0.12996)
(-0.0013675 0.00779913 0.130161)
(-0.00217744 0.00813995 0.130324)
(-0.00351125 0.00816057 0.13086)
(-0.00434654 0.00958819 0.131345)
(-0.00584149 0.0100326 0.132838)
(-0.00653654 0.0128699 0.135104)
(-0.00807991 0.0125279 0.138902)
(-0.00855796 0.0170089 0.142273)
(-0.0121207 0.0120341 0.14823)
(-0.0218645 0.0172685 0.121879)
(-0.0322987 0.00219725 0.0617781)
(-0.000322014 0.00575502 0.1294)
(-0.00112139 0.00581493 0.129509)
(-0.00180635 0.00614283 0.129602)
(-0.00279549 0.00636029 0.129914)
(-0.003606 0.00720972 0.130126)
(-0.00484611 0.0075067 0.13079)
(-0.00577936 0.00887811 0.131538)
(-0.00774182 0.00885844 0.133375)
(-0.0102549 0.0102662 0.136775)
(-0.0169805 0.00856361 0.142247)
(-0.0307154 0.00659372 0.125093)
(-0.0280991 0.0042716 0.114743)
(-0.000306268 0.00475996 0.129382)
(-0.0010009 0.00480218 0.129428)
(-0.0016439 0.00499436 0.129458)
(-0.0024318 0.00511854 0.129594)
(-0.00315096 0.00559003 0.129693)
(-0.00412782 0.00579784 0.130051)
(-0.00510927 0.00657759 0.130469)
(-0.00663725 0.00664209 0.131448)
(-0.00884882 0.00774748 0.133367)
(-0.0125197 0.00808076 0.138885)
(-0.0218052 0.0118257 0.145514)
(-0.0349996 0.0199452 0.117457)
(-0.00590706 -0.00351985 0.0945608)
(-0.000283101 0.00372852 0.129279)
(-0.000895345 0.00376795 0.129301)
(-0.00149341 0.00390231 0.129312)
(-0.00219276 0.00401909 0.12938)
(-0.00290833 0.00430725 0.129423)
(-0.00384177 0.00447163 0.129616)
(-0.00491022 0.00491527 0.129846)
(-0.00657094 0.00511316 0.130469)
(-0.0088685 0.00578386 0.131534)
(-0.0128588 0.00653779 0.135096)
(-0.0192904 0.00791518 0.141496)
(-0.032234 0.00976846 0.124324)
(-0.0305531 0.00269504 0.108751)
(-0.00111598 -0.00364517 0.0317598)
(-0.000268159 0.00299418 0.129286)
(-0.000830889 0.0030217 0.129291)
(-0.00139486 0.00310466 0.129289)
(-0.00202481 0.00318761 0.129317)
(-0.00269239 0.00337171 0.129339)
(-0.00351537 0.00351852 0.129453)
(-0.00446762 0.00384479 0.129616)
(-0.00579309 0.00412968 0.13005)
(-0.00750025 0.00484677 0.130786)
(-0.010027 0.00583897 0.132832)
(-0.0133482 0.00824173 0.13866)
(-0.0208622 0.0122345 0.144369)
(-0.0311781 0.0226323 0.110946)
(-0.0023377 0.00349222 0.0943304)
(-0.000256272 0.00231765 0.129272)
(-0.000786595 0.00233902 0.129272)
(-0.00132854 0.00239514 0.129264)
(-0.00192522 0.0024587 0.129274)
(-0.00257586 0.00257841 0.129279)
(-0.00336869 0.0026948 0.129339)
(-0.00430343 0.00291038 0.129422)
(-0.00558583 0.00315235 0.129692)
(-0.00720494 0.00360665 0.130123)
(-0.00958374 0.00434527 0.131342)
(-0.0126409 0.00561221 0.134741)
(-0.0175116 0.0075617 0.141517)
(-0.0278743 0.00985725 0.123903)
(-0.0231136 0.00872385 0.105898)
(-0.000247247 0.00174242 0.129276)
(-0.000754296 0.00175797 0.129276)
(-0.00127587 0.00179571 0.129269)
(-0.00184164 0.0018437 0.129272)
(-0.00245629 0.00192731 0.129274)
(-0.00318498 0.00202644 0.129317)
(-0.00401609 0.00219405 0.129379)
(-0.00511524 0.00243231 0.129592)
(-0.00635656 0.00279544 0.129912)
(-0.00815751 0.00350962 0.130858)
(-0.00987785 0.00429045 0.132885)
(-0.0122743 0.00669808 0.139648)
(-0.0161505 0.00749693 0.145546)
(-0.021441 0.0183007 0.119637)
(-0.0256716 -0.00354753 0.0650826)
(-0.000241093 0.00120976 0.129276)
(-0.000733705 0.00122038 0.129275)
(-0.00124305 0.00124461 0.129271)
(-0.00179363 0.00127766 0.129269)
(-0.00239303 0.00133012 0.129264)
(-0.00310246 0.00139614 0.129289)
(-0.0038996 0.00149446 0.12931)
(-0.00499152 0.00164436 0.129457)
(-0.00614026 0.00180619 0.129601)
(-0.00813775 0.00217639 0.130322)
(-0.00956945 0.00215289 0.131323)
(-0.0137285 0.00300172 0.136517)
(-0.0139765 -0.000217439 0.143426)
(-0.0315862 0.003032 0.135944)
(-0.0374471 -0.00500876 0.0825935)
(-0.000236823 0.000714645 0.129279)
(-0.000719556 0.000720794 0.129278)
(-0.00121863 0.000734845 0.129275)
(-0.00175595 0.000755173 0.129275)
(-0.00233712 0.00078739 0.129271)
(-0.00301958 0.000831258 0.12929)
(-0.00376579 0.000895541 0.1293)
(-0.0048001 0.00100042 0.129427)
(-0.00581269 0.00112062 0.129508)
(-0.0077975 0.00136621 0.130159)
(-0.00900574 0.00140844 0.130805)
(-0.0141597 0.0017578 0.135325)
(-0.0151481 0.000164818 0.139648)
(-0.0392273 -0.00102794 0.125872)
(-0.0204559 -0.0104504 0.114628)
(-0.00023429 0.000235686 0.129281)
(-0.000713459 0.000238212 0.129279)
(-0.00120849 0.000242753 0.129276)
(-0.00174066 0.000249036 0.129276)
(-0.00231602 0.000258047 0.129271)
(-0.00299253 0.00026967 0.129284)
(-0.00372666 0.0002843 0.129278)
(-0.00475806 0.000307085 0.129381)
(-0.00575321 0.000322804 0.129398)
(-0.00781077 0.000358085 0.129958)
(-0.00908373 0.000293878 0.130352)
(-0.0148075 0.000255977 0.134516)
(-0.0171676 -0.000237195 0.13825)
(-0.0434755 -0.000746648 0.125058)
(-0.0267288 -0.00440506 0.112473)
(0.00041328 -0.00652376 0.0307209)
(0.000590108 -0.0067334 0.0270967)
(-0.00144651 -0.00300387 0.0123966)
(0.000175671 0.0125558 0.103633)
(-0.00151658 0.0111946 0.102603)
(-0.00149551 0.0106784 0.10961)
(-0.00549586 0.0072676 0.0931502)
(0.00027081 -0.00738702 0.0361247)
(0.00119158 -0.00621924 0.0234536)
(0.000180004 0.00507349 0.120531)
(-0.000972068 0.00418396 0.120377)
(-7.00033e-05 0.00514529 0.122601)
(-0.000897948 0.00429881 0.122638)
(-0.000115336 0.00752486 0.106787)
(-0.00817555 0.0105402 0.0922801)
(-0.000233252 -0.00831431 0.0396128)
(0.000805687 -0.00588534 0.0269821)
(-0.000300726 0.0100056 0.10868)
(-0.00188145 0.00949998 0.109031)
(-0.00271133 0.00955621 0.11048)
(-0.00408754 0.00763952 0.113241)
(-0.00422224 0.00737382 0.119659)
(-0.00399313 0.0060733 0.123135)
(-0.000857903 0.00923745 0.107186)
(-0.00826246 0.01169 0.0955404)
(-0.000545938 -0.0059782 0.0428182)
(-0.00135978 -0.00680313 0.0191355)
(-0.000297876 0.00707226 0.103799)
(-0.00138075 0.0070039 0.104096)
(-0.00194138 0.00757629 0.104903)
(-0.00311431 0.00754912 0.105983)
(-0.00396509 0.0084292 0.109416)
(-0.00508637 0.00791405 0.113072)
(-0.00467215 0.00760934 0.120094)
(-0.00363791 0.00626344 0.123434)
(-6.28314e-05 0.00914642 0.10763)
(-0.00779865 0.00573695 0.0897583)
(-0.0145889 0.000152805 0.0136479)
(-0.000379175 0.00710752 0.100803)
(-0.00139385 0.00705506 0.101039)
(-0.00214651 0.0073007 0.101637)
(-0.00311362 0.00712404 0.102381)
(-0.00377485 0.00767757 0.104039)
(-0.00455669 0.00758617 0.105555)
(-0.00501359 0.00832119 0.109502)
(-0.00532474 0.00718736 0.11305)
(-0.00537405 0.0060527 0.11956)
(-0.00282158 0.00277865 0.124678)
(-0.00568648 0.00776606 0.0898095)
(-0.0106928 0.00518958 0.0154941)
(-0.000347167 0.00562606 0.0990103)
(-0.0011812 0.00566154 0.0991833)
(-0.00186974 0.00591976 0.0995863)
(-0.00273487 0.00602332 0.100141)
(-0.00346618 0.00648088 0.101179)
(-0.00437575 0.00654257 0.102275)
(-0.00502463 0.00696441 0.104418)
(-0.00572743 0.0066706 0.10657)
(-0.00656299 0.00655763 0.112055)
(-0.00604704 0.00537561 0.119541)
(-0.00911319 0.000109854 0.107587)
(-0.00103623 -0.00198893 0.0284563)
(-0.00034097 0.00495674 0.0978142)
(-0.00109703 0.00498161 0.097943)
(-0.00178348 0.00513131 0.0982301)
(-0.00255577 0.00518846 0.0986489)
(-0.00326089 0.00547792 0.099358)
(-0.00408536 0.00554673 0.100204)
(-0.00485943 0.00590008 0.10165)
(-0.0057538 0.00575706 0.103347)
(-0.00666371 0.00573231 0.106559)
(-0.0071795 0.00533934 0.113035)
(-0.00624791 0.00365629 0.123421)
(-0.0116692 0.00824036 0.0955128)
(0.000713355 -0.00222446 0.0398102)
(-0.000320478 0.00403296 0.0970022)
(-0.00100437 0.00406562 0.0971032)
(-0.00166115 0.00418232 0.0973192)
(-0.00238891 0.00426825 0.097654)
(-0.00311042 0.00447685 0.0981873)
(-0.00395817 0.00457388 0.0989047)
(-0.00481187 0.00481757 0.100055)
(-0.00589313 0.00486404 0.101649)
(-0.00695536 0.005031 0.104412)
(-0.00831304 0.00501971 0.109493)
(-0.00759737 0.00468147 0.12008)
(-0.0092302 0.000851747 0.107166)
(-0.000332822 -0.00477235 0.0308022)
(0.000981474 -0.00335918 0.0238915)
(-0.000307181 0.00333859 0.0964528)
(-0.00094664 0.00336254 0.0965341)
(-0.00157999 0.00343768 0.0967068)
(-0.0022614 0.00350342 0.0969809)
(-0.00295596 0.003649 0.0974033)
(-0.00374584 0.00374947 0.0979969)
(-0.00456889 0.00396188 0.0989039)
(-0.00554137 0.00408753 0.100203)
(-0.00653576 0.00437727 0.102271)
(-0.00758031 0.00455689 0.10555)
(-0.00790694 0.00508554 0.113066)
(-0.00607024 0.00398497 0.123126)
(-0.0105403 0.0081709 0.0922759)
(0.00156696 -0.00153083 0.0432471)
(-0.000295995 0.00263725 0.0960654)
(-0.000904719 0.00265654 0.0961349)
(-0.00151971 0.00270896 0.0962815)
(-0.00217747 0.00276514 0.0965191)
(-0.00286431 0.00286768 0.0968792)
(-0.00364524 0.00295914 0.0974032)
(-0.00447243 0.00311345 0.0981869)
(-0.00547316 0.00326279 0.0993567)
(-0.0064752 0.00346791 0.101177)
(-0.00767245 0.0037746 0.104036)
(-0.0084239 0.00396459 0.109413)
(-0.00737167 0.00421779 0.119654)
(-0.00752578 0.000113627 0.106782)
(0.000631773 -0.00382158 0.0305149)
(-0.0002878 0.00201377 0.0958002)
(-0.000874661 0.0020275 0.0958622)
(-0.00147114 0.00206229 0.0959918)
(-0.00210263 0.00210559 0.096203)
(-0.00276196 0.00218016 0.0965193)
(-0.00350008 0.00226358 0.0969809)
(-0.00426452 0.00239081 0.0976535)
(-0.00518447 0.00255678 0.098648)
(-0.00601904 0.00273524 0.10014)
(-0.00712047 0.00311257 0.10238)
(-0.00754567 0.00311257 0.105981)
(-0.00763784 0.0040839 0.113239)
(-0.00430017 0.000894976 0.122636)
(-0.00726752 0.00549372 0.0931495)
(-0.00867827 -0.00364581 0.0231041)
(-0.000282339 0.00141255 0.0956208)
(-0.000856093 0.00142171 0.0956779)
(-0.0014415 0.00144371 0.0957973)
(-0.0020596 0.00147333 0.095992)
(-0.00270637 0.00152169 0.0962814)
(-0.00343469 0.00158161 0.0967066)
(-0.00417909 0.00166235 0.0973188)
(-0.00512813 0.00178399 0.0982291)
(-0.00591623 0.00186975 0.099585)
(-0.0072977 0.00214574 0.101636)
(-0.00757342 0.00194011 0.104902)
(-0.00955478 0.00270864 0.110479)
(-0.0051449 6.77354e-05 0.122599)
(-0.0106786 0.00149418 0.109609)
(-0.00755649 0.00341617 0.0287336)
(-0.000278711 0.000840325 0.0955107)
(-0.000843468 0.000845259 0.0955645)
(-0.00141952 0.000858217 0.0956778)
(-0.00202475 0.000876587 0.095862)
(-0.00265391 0.000906562 0.0961348)
(-0.00335999 0.000948099 0.096534)
(-0.00406301 0.00100538 0.0971027)
(-0.00497882 0.00109764 0.0979425)
(-0.00565855 0.0011816 0.0991828)
(-0.00705281 0.00139344 0.101038)
(-0.00700233 0.00137988 0.104096)
(-0.00949903 0.00187968 0.109031)
(-0.00418402 0.00097085 0.120378)
(-0.0111956 0.0015155 0.102603)
(0.000844606 -0.00113742 0.0366838)
(-0.000276682 0.000278216 0.0954589)
(-0.000838192 0.000279865 0.0955107)
(-0.00141019 0.000283704 0.0956212)
(-0.00201136 0.000289173 0.0958008)
(-0.00263513 0.000297234 0.0960657)
(-0.00333645 0.000308022 0.096453)
(-0.00403058 0.000321061 0.0970021)
(-0.0049542 0.000341114 0.0978144)
(-0.00562362 0.000347106 0.0990105)
(-0.00710585 0.000378417 0.100803)
(-0.00707066 0.000297041 0.103799)
(-0.0100044 0.000299579 0.10868)
(-0.00507244 -0.00018106 0.12053)
(-0.0125554 -0.000176565 0.103631)
(0.00106914 -0.000517275 0.0347212)
(6.17184e-05 -0.00506183 0.0231317)
(-0.000393467 -0.00482907 0.0206058)
(-0.00151373 -0.00133626 0.0100872)
(0.000270594 -0.00083511 0.0959925)
(-0.000847999 -0.000919527 0.0957256)
(-0.000715778 -0.000360495 0.10201)
(0.00140373 -0.00071643 0.0854141)
(0.00131876 -0.00569728 0.028964)
(0.000940331 -0.00347314 0.0181655)
(8.11682e-05 0.00279874 0.115202)
(-0.000803915 0.00225133 0.115005)
(-0.000614103 0.00265776 0.116967)
(-0.000187228 0.00152976 0.11606)
(0.000495981 -0.0010139 0.0993822)
(0.000597167 -7.4112e-05 0.08453)
(0.00201642 -0.0082938 0.0309977)
(4.40944e-05 -0.00426185 0.0206792)
(-0.000177597 0.00590426 0.108557)
(-0.00113915 0.00560906 0.108861)
(-0.00174102 0.00565002 0.110193)
(-0.00213168 0.0047039 0.111485)
(-0.00254019 0.00374726 0.114536)
(-0.00168265 0.00199765 0.115764)
(-0.000121033 -0.000510603 0.0984745)
(0.000454043 -7.41747e-05 0.0863994)
(0.000610272 -0.00555206 0.0321406)
(-0.00132598 -0.00459249 0.014513)
(-0.000218263 0.00516787 0.106976)
(-0.000985984 0.00506106 0.107209)
(-0.00141703 0.00526937 0.10791)
(-0.00201559 0.00516685 0.108359)
(-0.0025258 0.00511077 0.109963)
(-0.00274058 0.00490956 0.111444)
(-0.00286849 0.00361849 0.11473)
(-0.00153359 0.00213426 0.116057)
(-3.73907e-05 -0.000414418 0.0990933)
(0.000165276 -0.00106603 0.0820007)
(-0.0121233 0.00245888 0.0139166)
(-0.000292808 0.00549544 0.104784)
(-0.00105599 0.00543001 0.104989)
(-0.00164653 0.00552821 0.105547)
(-0.00226774 0.00534311 0.106082)
(-0.00274916 0.00540505 0.107186)
(-0.00306797 0.00518746 0.107998)
(-0.00325774 0.00493238 0.109893)
(-0.00308349 0.00441591 0.111579)
(-0.00284425 0.0026896 0.114516)
(-0.00118435 0.00116408 0.117634)
(0.00108867 -0.000181956 0.081992)
(-0.00889137 0.00465684 0.0166543)
(-0.000282017 0.00464731 0.103613)
(-0.000952136 0.00465119 0.103758)
(-0.00151075 0.00478312 0.104119)
(-0.00214541 0.00480295 0.104541)
(-0.00268636 0.00494198 0.105332)
(-0.00321896 0.00489395 0.106107)
(-0.00358796 0.00479049 0.107499)
(-0.00375964 0.00442839 0.108659)
(-0.00372459 0.00372274 0.110978)
(-0.00269043 0.0028431 0.114517)
(0.000428705 6.72416e-05 0.099074)
(-0.000889077 0.000164194 0.0239301)
(-0.000288033 0.00422772 0.102606)
(-0.000920902 0.00423061 0.102722)
(-0.00149545 0.00431033 0.102995)
(-0.00210536 0.00430926 0.103354)
(-0.00265697 0.00442112 0.103958)
(-0.00322563 0.00438313 0.104633)
(-0.00371743 0.00440554 0.105715)
(-0.00416462 0.0041617 0.106887)
(-0.00442304 0.00376061 0.108655)
(-0.0044077 0.00308865 0.111571)
(-0.00212532 0.0015515 0.116052)
(8.71644e-05 -0.000461178 0.0863821)
(0.0019152 -0.00215521 0.0296146)
(-0.000278229 0.00352864 0.101939)
(-0.000869126 0.00354364 0.102032)
(-0.00143115 0.00361167 0.10224)
(-0.00203125 0.00364765 0.102539)
(-0.00260809 0.003745 0.103018)
(-0.0032313 0.00375887 0.103622)
(-0.00380509 0.00380985 0.104555)
(-0.00440098 0.00372075 0.105712)
(-0.00478346 0.00359759 0.107495)
(-0.00492762 0.00326487 0.109886)
(-0.00361163 0.0028772 0.11472)
(0.000515435 0.00012137 0.0984581)
(-9.46844e-05 -0.00390027 0.024282)
(0.00112787 -0.00273074 0.0176758)
(-0.000272351 0.00297273 0.101441)
(-0.000837673 0.0029843 0.101518)
(-0.00139084 0.00302909 0.101686)
(-0.00197049 0.00305809 0.101941)
(-0.00254351 0.00313221 0.102333)
(-0.0031586 0.00316167 0.102854)
(-0.00375485 0.00323445 0.103621)
(-0.00437942 0.00322725 0.104631)
(-0.00488886 0.00322174 0.106104)
(-0.00518251 0.00306885 0.107993)
(-0.00490441 0.00274258 0.111439)
(-0.00199487 0.00167916 0.115757)
(7.41765e-05 -0.000599029 0.0845275)
(0.00223298 -0.00253666 0.0326705)
(-0.000266094 0.00237636 0.10109)
(-0.000812536 0.00238728 0.101156)
(-0.00135693 0.00242035 0.101299)
(-0.00192743 0.00245013 0.101523)
(-0.00250376 0.00250667 0.101862)
(-0.00312896 0.00254635 0.102333)
(-0.0037413 0.00261087 0.103017)
(-0.00441728 0.00265881 0.103956)
(-0.00493767 0.00268877 0.10533)
(-0.00540092 0.00274996 0.107182)
(-0.00510665 0.00252665 0.109959)
(-0.0037454 0.00253811 0.114531)
(0.00101379 -0.000496402 0.0993783)
(-0.000111577 -0.00308266 0.0249714)
(-0.000261214 0.0018312 0.100841)
(-0.000793559 0.00183937 0.1009)
(-0.00132781 0.00186181 0.101025)
(-0.00188397 0.00188644 0.101225)
(-0.00244727 0.00192978 0.101523)
(-0.00305509 0.00197243 0.101941)
(-0.00364459 0.00203278 0.102538)
(-0.00430621 0.00210619 0.103353)
(-0.0047993 0.00214608 0.104539)
(-0.00533964 0.00226766 0.10608)
(-0.0051641 0.00201507 0.108357)
(-0.00470213 0.00212972 0.111482)
(-0.00153022 0.00018578 0.116059)
(0.000716371 -0.00140507 0.0854137)
(-0.00693265 -0.00265918 0.0210988)
(-0.000257923 0.00129143 0.100672)
(-0.000781861 0.0012971 0.100726)
(-0.0013098 0.00131179 0.100841)
(-0.00185945 0.00132975 0.101025)
(-0.00241795 0.00135885 0.101299)
(-0.00302664 0.00139231 0.101686)
(-0.00360909 0.0014324 0.102238)
(-0.00430744 0.00149623 0.102994)
(-0.00477983 0.00151157 0.104118)
(-0.0055253 0.00164631 0.105546)
(-0.00526703 0.00141643 0.107908)
(-0.00564876 0.00173945 0.110191)
(-0.0026569 0.000612972 0.116966)
(0.000360846 0.000715464 0.102009)
(-0.00694932 0.00320712 0.0241115)
(-0.000255877 0.000771754 0.100567)
(-0.00077318 0.000774841 0.100617)
(-0.00129516 0.000783314 0.100726)
(-0.00183697 0.000795025 0.1009)
(-0.00238489 0.000813795 0.101156)
(-0.00298198 0.000838507 0.101518)
(-0.00354128 0.000869735 0.102031)
(-0.00422802 0.000921279 0.102721)
(-0.00464858 0.000952266 0.103758)
(-0.00542794 0.00105537 0.104988)
(-0.00505957 0.000984979 0.107208)
(-0.00560777 0.00113749 0.10886)
(-0.00225051 0.000802579 0.115006)
(0.000919349 0.000846365 0.0957263)
(0.00184379 -0.000869728 0.0303153)
(-0.000253796 0.000255144 0.100518)
(-0.000770303 0.000257206 0.100567)
(-0.00128963 0.000259351 0.100671)
(-0.00182903 0.000262887 0.10084)
(-0.00237459 0.000267602 0.101089)
(-0.00297093 0.000273521 0.10144)
(-0.00352652 0.000279115 0.101938)
(-0.00422535 0.000288776 0.102604)
(-0.00464509 0.000282373 0.103612)
(-0.00549372 0.000292689 0.104782)
(-0.0051665 0.000217784 0.106974)
(-0.0059033 0.000177069 0.108555)
(-0.00279806 -8.19154e-05 0.1152)
(0.000835257 -0.00027143 0.0959906)
(0.00174598 -1.95611e-05 0.026948)
(-7.98366e-07 -0.005109 0.0223448)
(-0.000679292 -0.00483228 0.0201317)
(-0.00164481 -0.00131288 0.0103186)
(0.000123413 -0.000718025 0.0984088)
(-0.000316066 -0.000670158 0.0982704)
(-0.000667674 -0.000526079 0.103696)
(0.00100874 -0.000795556 0.0873468)
(0.00136399 -0.00577873 0.0297506)
(0.000573906 -0.00330955 0.018112)
(-6.97708e-07 0.00225187 0.116346)
(-0.000509775 0.00196059 0.116357)
(-0.000499389 0.0018686 0.11822)
(-0.000500583 0.00155846 0.117624)
(-0.000407373 -0.000500855 0.100111)
(0.000849588 -0.00047513 0.085729)
(0.00191722 -0.00865717 0.0316708)
(-0.000405277 -0.00451962 0.0198078)
(-0.000124106 0.00331484 0.112884)
(-0.000634777 0.00316414 0.113139)
(-0.00100716 0.00314241 0.114173)
(-0.00104538 0.00266907 0.115142)
(-0.00129142 0.00238601 0.116398)
(-0.00123338 0.00174547 0.117079)
(-0.000749048 -0.000439389 0.0990336)
(0.000786178 -0.000602146 0.0876133)
(0.000531025 -0.00577337 0.0323114)
(-0.00174921 -0.00441239 0.0147607)
(-0.000148782 0.00348978 0.111838)
(-0.000641674 0.00340758 0.112058)
(-0.000940361 0.00341275 0.112656)
(-0.00127119 0.00329276 0.113068)
(-0.00156643 0.0029747 0.11405)
(-0.00146238 0.00283719 0.115055)
(-0.00155629 0.00226473 0.116428)
(-0.00132513 0.00182984 0.117374)
(-0.000794523 -0.000445171 0.0999933)
(0.000602541 -0.000774114 0.0839068)
(-0.0122286 0.00245443 0.0159527)
(-0.000209937 0.00381596 0.109945)
(-0.000724635 0.00375155 0.110147)
(-0.00113243 0.00375136 0.110662)
(-0.00148505 0.00357891 0.111154)
(-0.00178758 0.00348554 0.111991)
(-0.00197085 0.00326077 0.112693)
(-0.00202584 0.0027961 0.113844)
(-0.00181041 0.00251568 0.115039)
(-0.00134789 0.00176094 0.11632)
(-0.00149563 0.00148235 0.118242)
(0.000784968 -0.000610265 0.0838811)
(-0.0089751 0.00439526 0.0189978)
(-0.000213695 0.00351288 0.108823)
(-0.000708219 0.00349579 0.10897)
(-0.0011215 0.00352368 0.109325)
(-0.00154395 0.00347493 0.109738)
(-0.00189206 0.00341432 0.110435)
(-0.002163 0.00328369 0.111125)
(-0.00233942 0.00306153 0.112167)
(-0.00242195 0.00272931 0.113068)
(-0.00214168 0.00214229 0.11443)
(-0.00176293 0.00134833 0.116318)
(0.000454652 0.000811588 0.0999748)
(-0.00101502 -0.000546916 0.0265379)
(-0.00022696 0.00331352 0.107763)
(-0.000715466 0.00330007 0.107886)
(-0.00115793 0.00331907 0.10817)
(-0.00159638 0.003272 0.108539)
(-0.00198105 0.00325781 0.109125)
(-0.00232873 0.00314171 0.109786)
(-0.00257979 0.00299536 0.110732)
(-0.00273215 0.00273095 0.111734)
(-0.00272608 0.0024233 0.113072)
(-0.00251214 0.00181462 0.115037)
(-0.00182254 0.00133689 0.117371)
(0.000610216 -0.00078716 0.0875994)
(0.00150775 -0.00213891 0.0303843)
(-0.000226652 0.00287467 0.107043)
(-0.000702449 0.0028737 0.107145)
(-0.00114985 0.00289437 0.10737)
(-0.00160365 0.00288352 0.107689)
(-0.00202092 0.00288561 0.108184)
(-0.00242508 0.00282779 0.108793)
(-0.00274901 0.00275165 0.109681)
(-0.00299115 0.0025821 0.11073)
(-0.00305599 0.00234549 0.112166)
(-0.00279322 0.00203251 0.113837)
(-0.00226008 0.00156339 0.116422)
(0.000443327 0.000750293 0.099019)
(-0.000238711 -0.00417189 0.0262104)
(0.000648962 -0.00265031 0.0172469)
(-0.000227656 0.00248029 0.10647)
(-0.00069571 0.00248019 0.106559)
(-0.0011478 0.00249413 0.10675)
(-0.0016036 0.00248796 0.107033)
(-0.00203467 0.00249569 0.107459)
(-0.00246046 0.00246326 0.108011)
(-0.00282482 0.00242786 0.108793)
(-0.00313857 0.0023316 0.109784)
(-0.00327937 0.00216524 0.111123)
(-0.00325668 0.00197258 0.112689)
(-0.00283304 0.00146474 0.115051)
(-0.00174275 0.00123289 0.117073)
(0.000475551 -0.000849884 0.0857262)
(0.00171499 -0.00262761 0.0327534)
(-0.000226456 0.00202135 0.106061)
(-0.000688469 0.00202347 0.10614)
(-0.00114175 0.00203499 0.106307)
(-0.00160138 0.0020375 0.106564)
(-0.00204489 0.00204758 0.106946)
(-0.00249283 0.00203731 0.107459)
(-0.00288256 0.00202348 0.108183)
(-0.00325455 0.00198346 0.109124)
(-0.00341088 0.00189455 0.110433)
(-0.00348239 0.00178935 0.111987)
(-0.00297127 0.00156804 0.114046)
(-0.00238383 0.0012912 0.116393)
(0.000501347 0.000407761 0.100107)
(-0.000568408 -0.00386399 0.0266127)
(-0.000225397 0.00157844 0.10576)
(-0.000681992 0.00158045 0.105832)
(-0.00113362 0.00158871 0.105982)
(-0.00159081 0.00159316 0.106217)
(-0.00203484 0.00160356 0.106564)
(-0.00248524 0.00160547 0.107033)
(-0.00288078 0.00160511 0.107688)
(-0.00326922 0.00159761 0.108538)
(-0.00347154 0.00154501 0.109737)
(-0.00357571 0.00148576 0.111152)
(-0.00329032 0.0012717 0.113066)
(-0.00266727 0.00104456 0.11514)
(-0.0015584 0.000500401 0.117623)
(0.000796143 -0.00100932 0.0873464)
(-0.0069114 -0.00237078 0.0224476)
(-0.00022439 0.0011235 0.105554)
(-0.000678165 0.00112532 0.105621)
(-0.00112899 0.0011308 0.105761)
(-0.00158652 0.00113553 0.105982)