/*--------------------------------*- C++ -*----------------------------------*\
| =========                 |                                                 |
| \\      /  F ield         | OpenFOAM: The Open Source CFD Toolbox           |
|  \\    /   O peration     | Version:  2.1.1                                 |
|   \\  /    A nd           | Web:      www.OpenFOAM.org                      |
|    \\/     M anipulation  |                                                 |
\*---------------------------------------------------------------------------*/
FoamFile
{
    version     2.0;
    format      ascii;
    class       volScalarField;
    location    "0.0035";
    object      p;
}
// * * * * * * * * * * * * * * * * * * * * * * * * * * * * * * * * * * * * * //

dimensions      [0 2 -2 0 0 0 0];

internalField   nonuniform List<scalar> 
10229
(
0.022562
0.0200504
0.0198201
0.0199658
0.0198341
0.0198912
0.0198071
0.0198181
0.0197569
0.0197494
0.0197063
0.019693
0.0196655
0.0196561
0.0196467
0.0229661
0.0200805
0.0198237
0.0199675
0.0198376
0.0198959
0.0198137
0.0198241
0.0197655
0.0197566
0.0197146
0.0197013
0.0196748
0.0196657
0.0196566
0.024341
0.0199657
0.0198611
0.0199431
0.0198535
0.019891
0.0198226
0.0198276
0.0197729
0.0197632
0.0197229
0.0197098
0.0196841
0.0196752
0.0196663
0.020155
0.0198178
0.0199737
0.0198614
0.019904
0.0198386
0.0198417
0.0197923
0.019782
0.0197457
0.0197334
0.0197102
0.0197023
0.0196943
0.0285894
0.019935
0.0199078
0.0198856
0.0198985
0.0198496
0.0198479
0.0198026
0.0197929
0.019758
0.0197462
0.019724
0.0197162
0.0197083
0.0229527
0.0200707
0.0198974
0.0199191
0.0199001
0.0198767
0.0198647
0.0198328
0.0198202
0.0197932
0.0197831
0.0197651
0.0197591
0.0197524
0.0305494
0.0199838
0.019859
0.0199312
0.0198657
0.0198766
0.0198377
0.0198327
0.0198028
0.0197935
0.019775
0.0197679
0.0197611
0.0231004
0.0200837
0.0198909
0.019916
0.019901
0.0198942
0.019881
0.0198658
0.0198483
0.0198424
0.0198287
0.0198262
0.0198214
0.0283867
0.0199349
0.0199524
0.0199124
0.0199033
0.0198708
0.0198748
0.0198483
0.019838
0.0198225
0.0198146
0.0198095
0.025207
0.0201672
0.0197807
0.0199535
0.0199183
0.0199344
0.0199032
0.0198979
0.0199042
0.0198917
0.0198974
0.0198939
0.0408107
0.0201781
0.0199369
0.0198933
0.0198618
0.0199216
0.0198868
0.0198628
0.0198551
0.0198396
0.0198369
0.0386266
0.0326599
0.0200862
0.0199862
0.0199003
0.019911
0.0199759
0.0199457
0.0199699
0.0199691
0.0299873
0.0311128
0.0200736
0.0199378
0.0198199
0.0198643
0.0198274
0.0198235
0.0230653
0.0281649
0.030512
0.0201592
0.0199694
0.0200842
0.0200545
0.0360468
0.0318747
0.0316501
0.0309909
0.0215143
0.0190015
0.0187675
0.0189128
0.0187756
0.0188278
0.0187366
0.0187418
0.0186735
0.0186587
0.0186079
0.0185888
0.0185559
0.0185431
0.0185315
0.0219185
0.0190305
0.0187656
0.0189213
0.0187804
0.018834
0.0187456
0.0187492
0.0186822
0.0186671
0.0186176
0.0185988
0.0185669
0.0185545
0.0185434
0.0232936
0.0189169
0.0188099
0.0188902
0.0187968
0.01883
0.0187567
0.0187546
0.0186921
0.0186761
0.0186287
0.0186103
0.0185795
0.0185674
0.0185566
0.0191061
0.0187665
0.0189227
0.0188043
0.0188441
0.0187738
0.0187711
0.0187147
0.0186987
0.0186559
0.0186386
0.0186105
0.0185997
0.0185899
0.0275428
0.0188856
0.0188543
0.0188318
0.0188378
0.0187838
0.0187794
0.0187284
0.0187137
0.0186728
0.0186563
0.0186297
0.0186191
0.0186098
0.0219049
0.0190221
0.0188464
0.0188656
0.0188435
0.0188081
0.0187986
0.0187632
0.0187464
0.018714
0.0186995
0.0186774
0.0186689
0.0186611
0.0295024
0.018934
0.0188063
0.0188777
0.0188076
0.0188172
0.0187718
0.0187643
0.0187293
0.0187155
0.0186931
0.0186838
0.0186762
0.0220526
0.0190366
0.0188403
0.0188624
0.0188473
0.0188365
0.0188201
0.0188036
0.0187815
0.0187708
0.0187536
0.0187492
0.0187439
0.0273392
0.0188857
0.0189043
0.0188589
0.0188496
0.0188141
0.0188232
0.0187874
0.0187701
0.0187511
0.0187417
0.0187371
0.024159
0.0191237
0.0187302
0.0189053
0.0188652
0.0188825
0.0188492
0.0188404
0.0188439
0.018829
0.0188341
0.0188299
0.0398136
0.0191251
0.0188872
0.0188432
0.0188098
0.0188686
0.0188341
0.0188059
0.0187985
0.0187826
0.0187786
0.0375862
0.0316144
0.0190394
0.0189368
0.0188495
0.0188572
0.0189254
0.0188931
0.0189249
0.0189163
0.0289406
0.0300655
0.0190253
0.0188887
0.0187698
0.0188132
0.0187683
0.0187711
0.0220175
0.0271179
0.0294648
0.0191094
0.0189204
0.0190339
0.0190053
0.0350018
0.0308282
0.0306029
0.0299436
0.0204711
0.0179575
0.0177188
0.0178623
0.0177182
0.0177643
0.0176616
0.0176624
0.0175853
0.0175631
0.0175032
0.0174775
0.0174379
0.0174211
0.0174069
0.0208752
0.0179862
0.0177175
0.0178716
0.0177232
0.0177712
0.0176711
0.0176707
0.0175952
0.0175729
0.0175147
0.0174895
0.0174511
0.0174349
0.0174212
0.0222505
0.0178724
0.0177632
0.0178394
0.0177414
0.0177682
0.0176847
0.0176782
0.0176077
0.0175847
0.017529
0.0175042
0.0174675
0.0174517
0.0174387
0.0180622
0.0177175
0.0178756
0.0177489
0.0177853
0.0177056
0.0176986
0.0176341
0.0176116
0.017561
0.0175381
0.0175044
0.0174903
0.0174784
0.0265005
0.0178405
0.0178056
0.0177796
0.0177818
0.0177249
0.0177118
0.0176522
0.0176314
0.0175834
0.0175615
0.0175298
0.0175161
0.017505
0.0208613
0.0179775
0.0177997
0.0178148
0.0177899
0.0177542
0.0177358
0.0176926
0.0176703
0.0176317
0.0176124
0.0175857
0.0175745
0.017565
0.0284599
0.0178881
0.0177577
0.0178289
0.0177534
0.0177579
0.0177059
0.0176937
0.0176533
0.0176352
0.0176088
0.0175969
0.0175878
0.0210092
0.0179934
0.0177932
0.0178131
0.0177957
0.0177805
0.0177596
0.0177385
0.0177135
0.0176995
0.0176789
0.017672
0.0176647
0.0262964
0.0178402
0.0178591
0.0178085
0.017798
0.0177572
0.0177582
0.0177267
0.0177062
0.017685
0.0176722
0.0176646
0.0231167
0.0180809
0.0176837
0.01786
0.0178162
0.0178341
0.0177923
0.0177839
0.0177865
0.0177692
0.0177729
0.017767
0.0387736
0.0180797
0.0178414
0.0177964
0.0177615
0.0178177
0.017782
0.0177512
0.0177437
0.0177258
0.0177215
0.0365439
0.0305719
0.0179965
0.0178911
0.0178029
0.0178086
0.0178784
0.0178422
0.0178747
0.0178657
0.0278983
0.0290223
0.0179807
0.0178436
0.0177208
0.0177667
0.0177209
0.0177226
0.0209741
0.0260752
0.0284221
0.0180658
0.0178758
0.0179898
0.0179613
0.0339601
0.0297859
0.0295601
0.0289004
0.0194332
0.0169182
0.0166743
0.0168154
0.0166628
0.0167038
0.0165919
0.0165826
0.0164932
0.016462
0.0163915
0.0163581
0.0163106
0.0162891
0.0162715
0.0198372
0.0169469
0.0166729
0.0168256
0.016668
0.0167111
0.0166008
0.0165916
0.0165044
0.0164735
0.016405
0.0163724
0.0163264
0.0163056
0.0162889
0.0212124
0.0168326
0.0167208
0.0167926
0.0166883
0.0167085
0.0166154
0.0166009
0.0165196
0.0164884
0.016423
0.0163909
0.0163472
0.0163272
0.0163113
0.0170235
0.0166727
0.0168325
0.0166963
0.0167284
0.0166383
0.0166248
0.0165504
0.0165204
0.0164608
0.0164313
0.0163911
0.0163733
0.0163588
0.0254636
0.0167994
0.0167614
0.0167321
0.0167267
0.0166586
0.0166415
0.0165735
0.0165456
0.0164895
0.0164614
0.0164238
0.0164064
0.0163932
0.019823
0.0169377
0.0167572
0.016766
0.0167396
0.0166953
0.0166713
0.0166204
0.0165919
0.016546
0.0165213
0.0164894
0.0164751
0.0164636
0.0274224
0.0168462
0.0167117
0.016779
0.0166985
0.0166982
0.0166394
0.0166215
0.0165748
0.0165519
0.0165211
0.0165063
0.0164956
0.0199709
0.0169541
0.0167498
0.0167661
0.0167452
0.0167263
0.0167002
0.0166739
0.0166436
0.0166264
0.0166022
0.0165936
0.0165848
0.0252584
0.0167981
0.0168172
0.0167608
0.0167489
0.0167026
0.0166991
0.0166612
0.0166402
0.0166172
0.0166031
0.0165949
0.0220788
0.01704
0.0166415
0.0168185
0.0167698
0.0167833
0.0167434
0.0167294
0.0167306
0.0167105
0.0167136
0.0167066
0.0377311
0.0170418
0.0168001
0.0167533
0.0167157
0.0167699
0.0167341
0.0166988
0.0166911
0.0166711
0.0166665
0.0355096
0.0295352
0.0169575
0.0168493
0.0167608
0.0167642
0.0168353
0.0167955
0.0168289
0.0168187
0.026861
0.0279839
0.016941
0.0168025
0.016676
0.0167245
0.0166765
0.0166783
0.0199357
0.025038
0.0273844
0.0170271
0.016836
0.0169507
0.016922
0.0329244
0.0287491
0.0285226
0.0278626
0.0184009
0.0158839
0.0156345
0.0157724
0.015609
0.0156439
0.0155184
0.0154999
0.0153962
0.0153548
0.0152722
0.0152295
0.0151733
0.0151456
0.0151242
0.018805
0.0159132
0.0156324
0.0157835
0.0156146
0.0156521
0.0155281
0.0155102
0.015409
0.0153683
0.015288
0.0152463
0.0151921
0.0151655
0.0151454
0.0201802
0.0157982
0.0156833
0.0157499
0.0156373
0.01565
0.0155452
0.0155214
0.0154275
0.0153867
0.01531
0.0152697
0.0152179
0.0151929
0.0151739
0.0159906
0.0156323
0.0157938
0.0156454
0.0156735
0.0155709
0.0155497
0.0154633
0.0154247
0.0153545
0.0153171
0.0152698
0.0152472
0.0152301
0.0244329
0.0157635
0.0157212
0.0156854
0.0156735
0.0155955
0.0155707
0.0154921
0.015456
0.0153903
0.0153552
0.0153108
0.0152895
0.0152736
0.0187906
0.0159026
0.0157203
0.0157234
0.0156907
0.0156366
0.0156063
0.0155465
0.0155109
0.0154564
0.0154257
0.0153877
0.01537
0.0153563
0.0263908
0.0158092
0.0156707
0.0157328
0.0156392
0.0156382
0.0155722
0.0155479
0.0154935
0.015465
0.0154291
0.0154111
0.0153985
0.0189383
0.0159198
0.0157109
0.0157228
0.0156935
0.0156743
0.0156428
0.01561
0.0155732
0.0155517
0.0155231
0.0155126
0.0155021
0.0242261
0.0157604
0.0157794
0.0157162
0.0157077
0.0156559
0.015643
0.0155986
0.0155734
0.0155478
0.015531
0.0155217
0.0210464
0.0160035
0.0156039
0.0157816
0.0157287
0.0157394
0.0156954
0.0156766
0.0156762
0.0156526
0.0156553
0.0156469
0.0366971
0.0160105
0.0157633
0.0157148
0.0156746
0.0157267
0.015688
0.0156484
0.0156407
0.0156183
0.0156131
0.0344825
0.0285046
0.0159235
0.0158121
0.0157236
0.0157239
0.0157967
0.015753
0.0157873
0.0157759
0.0258294
0.0269517
0.0159057
0.0157665
0.0156357
0.015687
0.0156363
0.0156387
0.0189034
0.0240064
0.0263526
0.0159941
0.0158016
0.015917
0.0158878
0.0318951
0.0277182
0.0274908
0.026831
0.0173751
0.0148556
0.0145997
0.0147334
0.0145569
0.0145841
0.0144428
0.0144127
0.014294
0.0142401
0.0141449
0.0140918
0.0140263
0.0139914
0.0139652
0.0177794
0.0148857
0.0145967
0.0147459
0.0145626
0.0145939
0.0144535
0.0144249
0.0143087
0.0142559
0.0141632
0.0141114
0.0140482
0.0140151
0.013991
0.0191548
0.0147696
0.0146514
0.0147112
0.0145889
0.0145925
0.0144739
0.0144386
0.0143308
0.0142783
0.0141898
0.01414
0.0140798
0.014049
0.0140268
0.0149648
0.0145978
0.0147592
0.0145971
0.014621
0.014503
0.0144725
0.0143723
0.0143227
0.0142414
0.0141951
0.0141401
0.0141123
0.0140923
0.0234092
0.0147337
0.0146859
0.0146434
0.0146228
0.0145336
0.0144985
0.0144077
0.0143616
0.0142852
0.0142421
0.0141906
0.0141647
0.0141463
0.0177649
0.0148731
0.0146889
0.0146848
0.0146459
0.0145827
0.0145427
0.0144712
0.0144258
0.014362
0.0143238
0.0142793
0.0142576
0.0142416
0.025366
0.0147775
0.0146348
0.0146939
0.014596
0.0145825
0.0145038
0.0144722
0.014409
0.0143742
0.0143325
0.014311
0.0142962
0.0179122
0.0148916
0.0146772
0.0146885
0.0146627
0.0146244
0.0145827
0.0145447
0.0145006
0.0144747
0.0144407
0.0144275
0.014415
0.0231999
0.0147287
0.014749
0.014675
0.0146513
0.0145966
0.0145855
0.0145361
0.0145058
0.0144767
0.0144569
0.0144462
0.0200212
0.0149837
0.0145706
0.0147471
0.0146882
0.0146957
0.0146484
0.014625
0.0146236
0.0145956
0.014598
0.0145877
0.0357128
0.014974
0.0147298
0.0146803
0.0146375
0.0146867
0.0146452
0.0146007
0.0145926
0.0145672
0.0145617
0.0334598
0.0274797
0.0148958
0.0147797
0.0146912
0.0146881
0.0147639
0.0147149
0.0147503
0.0147375
0.0248047
0.0259262
0.0148756
0.0147361
0.0145995
0.0146551
0.0146011
0.0146042
0.0178777
0.0229818
0.0253284
0.014968
0.014773
0.0148896
0.0148596
0.0308734
0.0266947
0.0264663
0.0258061
0.0163575
0.0138341
0.0135707
0.0136978
0.0135043
0.0135223
0.0133652
0.0133202
0.0131859
0.0131183
0.0130099
0.0129456
0.0128704
0.0128279
0.0127976
0.0167619
0.013865
0.0135661
0.0137121
0.0135095
0.0135343
0.0133772
0.0133347
0.0132027
0.0131365
0.0130308
0.0129683
0.0128956
0.0128555
0.0128274
0.0181373
0.0137472
0.0136253
0.0136768
0.0135435
0.0135343
0.0134009
0.0133514
0.0132287
0.0131632
0.0130622
0.0130022
0.0129333
0.0128964
0.0128709
0.0139465
0.0135662
0.0137324
0.013556
0.01357
0.0134347
0.0133914
0.0132767
0.0132146
0.0131213
0.0130654
0.0130023
0.0129691
0.0129462
0.0223933
0.0137098
0.0136567
0.0136074
0.0135745
0.0134712
0.0134235
0.0133191
0.0132617
0.0131739
0.0131221
0.013063
0.0130323
0.0130112
0.0167465
0.0138501
0.0136646
0.0136513
0.0136032
0.0135286
0.0134763
0.0133928
0.0133362
0.0132621
0.0132156
0.0131641
0.0131381
0.0131196
0.0243486
0.0137517
0.0136075
0.0136563
0.0135451
0.0135247
0.013434
0.0133938
0.0133204
0.0132785
0.0132305
0.013205
0.013188
0.0168933
0.0138686
0.0136435
0.0136521
0.0136156
0.0135756
0.0135254
0.0134781
0.0134254
0.0133938
0.0133536
0.0133373
0.0133225
0.0221803
0.0136966
0.0137212
0.0136384
0.0136163
0.0135469
0.0135307
0.0134734
0.0134377
0.0134041
0.013381
0.0133686
0.0190019
0.0139494
0.0135433
0.0137221
0.013659
0.0136573
0.0136044
0.0135745
0.0135715
0.0135381
0.0135405
0.0135273
0.0346331
0.0139706
0.0137059
0.0136558
0.0136019
0.0136511
0.0136038
0.0135534
0.0135474
0.0135209
0.0135146
0.03245
0.0264645
0.0138756
0.0137519
0.0136632
0.0136563
0.0137347
0.0136812
0.0137186
0.0137034
0.0237879
0.0249078
0.013852
0.0137121
0.0135697
0.0136299
0.0135713
0.0135756
0.0168597
0.0219655
0.0243122
0.0139504
0.013751
0.0138694
0.0138381
0.0298606
0.0256801
0.0254503
0.0247897
0.0153494
0.0128196
0.0125485
0.012667
0.0124602
0.0124594
0.0122844
0.0122221
0.0120715
0.0119894
0.0118678
0.0117924
0.011708
0.0116604
0.0116296
0.0157536
0.0128519
0.0125419
0.0126835
0.0124655
0.0124734
0.0122982
0.012239
0.0120907
0.0120101
0.0118913
0.0118179
0.0117362
0.0116899
0.0116601
0.0171288
0.0127318
0.0126059
0.0126454
0.012497
0.0124739
0.0123249
0.0122594
0.0121207
0.0120412
0.0119275
0.0118571
0.0117795
0.0117369
0.0117084
0.0129352
0.0125429
0.0127054
0.012504
0.0125141
0.0123648
0.012306
0.0121757
0.0121
0.0119943
0.0119284
0.0118572
0.0118187
0.0117931
0.021386
0.0126914
0.0126313
0.0125759
0.012526
0.0124063
0.0123451
0.0122256
0.0121557
0.012056
0.011995
0.0119282
0.0118928
0.0118689
0.0157363
0.0128334
0.0126425
0.0126223
0.0125625
0.0124728
0.0124076
0.0123101
0.0122417
0.0121561
0.012101
0.0120422
0.0120117
0.0119906
0.0233393
0.012729
0.0125745
0.0126194
0.0124963
0.0124656
0.0123615
0.0123111
0.0122269
0.0121775
0.0121225
0.012093
0.0120735
0.0158823
0.0128528
0.0126189
0.0126233
0.0125757
0.0125276
0.0124667
0.0124095
0.0123471
0.0123084
0.0122615
0.0122418
0.0122245
0.0211684
0.0126695
0.0126794
0.0126049
0.0125797
0.0124994
0.0124753
0.0124087
0.0123682
0.0123286
0.0123022
0.0122877
0.0179921
0.012955
0.0125189
0.0127225
0.0126325
0.0126228
0.0125642
0.0125251
0.0125209
0.0124801
0.0124792
0.0124634
0.033721
0.0129422
0.0126834
0.0126355
0.0125795
0.0126227
0.0125629
0.0125234
0.0125072
0.012473
0.0124656
0.0314462
0.0254561
0.0128616
0.0127306
0.0126423
0.0126303
0.0127128
0.0126521
0.0126897
0.0126718
0.0227794
0.0238981
0.0128365
0.0126948
0.0125479
0.0126115
0.0125476
0.0125536
0.0158503
0.0209578
0.0233043
0.0129396
0.0127362
0.0128567
0.0128239
0.0288585
0.0246753
0.0244433
0.0237828
0.0143515
0.0118125
0.0115338
0.0116384
0.0114147
0.0113936
0.011199
0.0111181
0.0109506
0.0108539
0.0107202
0.0106351
0.0105451
0.0104983
0.010468
0.014756
0.0118466
0.0115258
0.011658
0.0114216
0.0114102
0.011215
0.0111373
0.0109723
0.0108771
0.0107461
0.0106628
0.0105744
0.0105277
0.0104979
0.0161305
0.0117238
0.0115935
0.0116187
0.0114563
0.0114133
0.0112448
0.0111614
0.0110062
0.0109125
0.0107865
0.0107064
0.0106209
0.0105751
0.0105455
0.0119315
0.0115275
0.0116861
0.0114728
0.0114602
0.0112914
0.0112152
0.0110684
0.0109787
0.0108606
0.0107852
0.0107065
0.0106636
0.0106355
0.0203887
0.0116785
0.0116077
0.0115318
0.0114742
0.0113384
0.0112618
0.0111262
0.0110431
0.0109313
0.0108614
0.0107872
0.0107475
0.0107211
0.0147355
0.0118237
0.0116237
0.0115929
0.011521
0.0114154
0.0113356
0.0112223
0.0111412
0.0110435
0.0109798
0.0109135
0.0108787
0.010855
0.0223389
0.0117131
0.0115514
0.0115832
0.0114482
0.0114033
0.0112852
0.0112233
0.0111275
0.0110703
0.0110079
0.0109746
0.0109525
0.01488
0.0118454
0.0116061
0.0116004
0.0115394
0.0114795
0.0114046
0.0113376
0.0112639
0.0112177
0.0111638
0.0111402
0.0111202
0.0201653
0.011652
0.0116816
0.0115727
0.0115429
0.0114519
0.0114187
0.0113414
0.0112951
0.0112485
0.0112189
0.0112021
0.0169904
0.0119391
0.0114988
0.011691
0.0116085
0.0115887
0.0115249
0.0114772
0.0114654
0.0114184
0.0114151
0.0113972
0.0326499
0.011954
0.0116623
0.0116155
0.0115568
0.0115985
0.011535
0.01148
0.011463
0.0114275
0.0114192
0.0304545
0.0244568
0.0118525
0.0117118
0.0116351
0.0116133
0.0116924
0.0116247
0.0116635
0.0116428
0.0217805
0.0228975
0.0118302
0.0116839
0.0115334
0.011599
0.0115313
0.0115387
0.0148503
0.0199606
0.0223069
0.0119367
0.0117285
0.0118516
0.0118169
0.0278683
0.0236812
0.023447
0.0227866
0.0133658
0.0108125
0.0105275
0.0106101
0.0103681
0.010323
0.0101077
0.0100072
0.00982356
0.00971347
0.00956976
0.00948026
0.00939293
0.00934906
0.00932045
0.0137705
0.0108491
0.0105181
0.0106333
0.0103768
0.0103424
0.0101262
0.0100289
0.00984744
0.00973901
0.00959767
0.00950817
0.00942132
0.00937672
0.00934862
0.0151435
0.0107226
0.0105881
0.0105934
0.0104134
0.0103484
0.0101588
0.0100566
0.00988478
0.00977792
0.00964124
0.00955343
0.00946664
0.00942207
0.00939325
0.0109366
0.0105195
0.0106697
0.0104364
0.0104025
0.0102128
0.0101177
0.00995409
0.00985096
0.0097215
0.00963776
0.00955359
0.00950891
0.00948058
0.0194023
0.0106712
0.0105916
0.0104937
0.0104213
0.010265
0.0101718
0.0100193
0.00992346
0.00980004
0.00972235
0.00964206
0.00959906
0.00957067
0.0137448
0.010823
0.0106141
0.0105689
0.010478
0.0103547
0.0102579
0.0101277
0.0100337
0.00992383
0.00985212
0.00977891
0.00974054
0.00971464
0.0213482
0.0106981
0.0105286
0.010547
0.0103951
0.0103366
0.0102021
0.0101287
0.0100206
0.00995606
0.00988654
0.00984974
0.00982518
0.0138869
0.010842
0.0105959
0.0105794
0.010504
0.0104289
0.010338
0.0102602
0.010174
0.0101205
0.010059
0.0100317
0.0100091
0.0191714
0.0106369
0.0106714
0.0105409
0.0105073
0.0103994
0.0103589
0.0102686
0.0102166
0.0101622
0.0101299
0.0101103
0.0159981
0.0109317
0.0104917
0.0106759
0.0105874
0.0105546
0.0104841
0.0104259
0.0104073
0.0103528
0.0103468
0.0103263
0.0316719
0.0109608
0.0106456
0.0106061
0.0105383
0.0105768
0.010499
0.0104423
0.0104187
0.0103819
0.0103721
0.0294788
0.0234666
0.0108518
0.0107058
0.0106226
0.0105979
0.0106757
0.0105988
0.0106385
0.0106141
0.0207925
0.0219087
0.0108301
0.0106771
0.0105256
0.0105937
0.0105234
0.0105322
0.0138612
0.0189746
0.0213206
0.0109423
0.0107277
0.0108543
0.0108168
0.0268917
0.0226999
0.0224637
0.021803
0.0123935
0.00981927
0.00952659
0.00958162
0.00931719
0.00924558
0.00900832
0.00888886
0.00869119
0.00857132
0.00842471
0.00834144
0.00826025
0.0082216
0.0081955
0.0127986
0.0098593
0.00951703
0.00960773
0.00932847
0.00926773
0.0090295
0.00891302
0.00871705
0.00859847
0.00845218
0.00836787
0.00828638
0.00824665
0.00822108
0.0141691
0.0097277
0.00958697
0.00956823
0.00936569
0.00927655
0.0090643
0.0089438
0.00875674
0.00863959
0.00849566
0.00841022
0.00832758
0.00828717
0.00826047
0.00995053
0.00951879
0.00965396
0.00939839
0.00933839
0.00912664
0.00901218
0.00883257
0.00871803
0.00857949
0.0084931
0.00841026
0.00836853
0.0083416
0.0184281
0.0096671
0.00957844
0.00945232
0.00936356
0.00918328
0.00907325
0.00890379
0.00879681
0.00866351
0.00858058
0.00849648
0.00845356
0.00842551
0.0127654
0.00983001
0.00960553
0.0095468
0.00943128
0.00928777
0.00917226
0.00902452
0.0089182
0.00879726
0.00871927
0.00864055
0.00860005
0.00857226
0.020368
0.00968801
0.00950042
0.0095069
0.00933528
0.00926231
0.00910972
0.0090254
0.00890513
0.00883454
0.00875849
0.00871929
0.00869268
0.0129037
0.00983986
0.00957259
0.00955563
0.00946325
0.00937284
0.00926378
0.00917453
0.0090756
0.00901498
0.0089461
0.00891576
0.00889075
0.0181868
0.00964268
0.0096641
0.00950895
0.00946658
0.00934016
0.00929236
0.00918704
0.00913044
0.00906748
0.009033
0.00901071
0.0150189
0.00996316
0.00949188
0.00966028
0.00956997
0.00951878
0.00943887
0.00936853
0.00934312
0.00928047
0.0092718
0.00924845
0.0308707
0.00992898
0.0096112
0.00961709
0.0095211
0.0095568
0.00945796
0.00940409
0.00937032
0.0093332
0.00932061
0.0285052
0.0224803
0.00985773
0.00970075
0.0096151
0.00958501
0.00966
0.00957326
0.00961278
0.00958528
0.0198154
0.0209304
0.00983779
0.00967321
0.00952523
0.00959251
0.00952228
0.00953085
0.0128834
0.0180003
0.0203458
0.00995665
0.0097329
0.00986473
0.00982347
0.0259312
0.0217329
0.0214936
0.0208328
0.0114368
0.00883166
0.00852791
0.00855002
0.00825849
0.008159
0.00789976
0.0077645
0.00755676
0.00743708
0.00730121
0.00722927
0.00715771
0.00712576
0.00710294
0.0118421
0.00887593
0.00851902
0.00857906
0.00827266
0.0081837
0.00792346
0.00779062
0.00758422
0.0074632
0.00732643
0.00725282
0.00718071
0.00714749
0.00712519
0.0132085
0.00873872
0.00858645
0.00854044
0.00830928
0.00819508
0.0079595
0.00782333
0.00762459
0.00750284
0.00736506
0.00728944
0.0072154
0.00718147
0.00715788
0.00897054
0.00852592
0.00863384
0.00835302
0.00826476
0.00803028
0.00789799
0.00770531
0.0075834
0.00744474
0.00736561
0.00728947
0.0072534
0.00722935
0.0174677
0.00866232
0.00856502
0.00840529
0.00829659
0.0080904
0.0079647
0.00777995
0.00766542
0.00752616
0.00744564
0.00736575
0.00732776
0.00730187
0.0117979
0.0088429
0.00859905
0.00852109
0.00837808
0.00821073
0.0080764
0.00791172
0.00779547
0.00766597
0.00758472
0.00750384
0.00746475
0.00743776
0.0193985
0.00868196
0.00847987
0.00846415
0.0082654
0.00817706
0.00800572
0.00791245
0.00778128
0.00770729
0.00762627
0.00758641
0.00755803
0.0119297
0.00884736
0.00858105
0.00853467
0.00841425
0.00830764
0.00817841
0.00807851
0.00796702
0.00790073
0.00782562
0.00779329
0.00776622
0.0172102
0.00860424
0.00864893
0.00846561
0.00841708
0.00826932
0.0082148
0.00809399
0.00803403
0.00796255
0.00792683
0.00790184
0.0140429
0.00889916
0.00849701
0.00865497
0.00854225
0.00847158
0.00838441
0.00830147
0.00826953
0.00819881
0.00818767
0.00816143
0.0295166
0.00900946
0.00861643
0.00859252
0.00848988
0.00852919
0.00841112
0.00835852
0.00831375
0.00827723
0.00826148
0.0275642
0.0215159
0.00885732
0.00869105
0.00860725
0.00857142
0.00864015
0.00854547
0.00858406
0.00855331
0.0188492
0.019963
0.00885037
0.00866834
0.0085326
0.00859212
0.00852435
0.00853183
0.0119168
0.0170394
0.0193846
0.00897707
0.00874424
0.0088815
0.0088356
0.0249898
0.0207814
0.0205375
0.0198773
0.0104975
0.00784551
0.00752319
0.00750749
0.00718352
0.00705738
0.0067783
0.00663371
0.00642834
0.00632633
0.0062079
0.00615214
0.00609266
0.00606886
0.00605017
0.0109026
0.00789389
0.00751713
0.00753954
0.00720109
0.0070846
0.00680418
0.00666107
0.00645403
0.00634945
0.00622946
0.0061719
0.00611169
0.00608655
0.00606833
0.0122627
0.00775205
0.00757627
0.00750171
0.00723563
0.0070974
0.00683962
0.00669382
0.00649045
0.00638263
0.00626032
0.0062005
0.00613819
0.00611238
0.00609279
0.00798985
0.00752856
0.00760041
0.00729122
0.00717448
0.00691801
0.00677271
0.00657196
0.00645652
0.00633073
0.00626559
0.00620045
0.00617243
0.00615222
0.016522
0.00765212
0.00754256
0.0073419
0.00721163
0.00697953
0.006842
0.00664632
0.00653227
0.00639983
0.00633145
0.00626092
0.00623069
0.00620845
0.0108415
0.00785513
0.00758546
0.00747713
0.00730807
0.00711558
0.00696494
0.00678612
0.00666465
0.00653287
0.0064577
0.00638354
0.0063509
0.0063268
0.0184378
0.00766659
0.00744249
0.00740333
0.00717591
0.00707387
0.00688491
0.00678661
0.00664776
0.00657385
0.006492
0.00645617
0.00642924
0.0109613
0.00784399
0.00756703
0.0074965
0.00734932
0.00722439
0.00707497
0.0069668
0.00684427
0.00677543
0.00669603
0.00666375
0.00663495
0.0162404
0.00758774
0.00763258
0.00740332
0.00734996
0.00717849
0.00711882
0.00698287
0.00692174
0.0068425
0.00680752
0.00677995
0.0130857
0.00801356
0.00749269
0.00762619
0.00749823
0.0074079
0.00731304
0.00721626
0.00717921
0.00710108
0.00708863
0.00705943
0.0291719
0.00788128
0.00757718
0.00757203
0.00744863
0.00748333
0.00734726
0.00729679
0.00724
0.00720573
0.00718611
0.0266084
0.0205487
0.00785037
0.00767333
0.00759222
0.00754852
0.00760706
0.00750691
0.00754476
0.00751049
0.0178927
0.0190091
0.00786168
0.00765666
0.00753687
0.00758234
0.00752264
0.00752687
0.0109612
0.0160915
0.0184382
0.00799703
0.00775783
0.00789986
0.00784907
0.0240693
0.0198469
0.0195972
0.0189377
0.00957956
0.00685794
0.00650998
0.00645342
0.00609073
0.00594408
0.00565087
0.00551644
0.00533673
0.00526254
0.00516818
0.00513173
0.00508615
0.00507163
0.00505754
0.00998634
0.00691282
0.00650751
0.00648885
0.00611176
0.005973
0.0056783
0.00554086
0.00535846
0.00528105
0.00518511
0.00514693
0.00510065
0.00508482
0.00507114
0.0113377
0.00676545
0.00655505
0.00645076
0.0061416
0.00598434
0.00571019
0.00556693
0.00538501
0.00530418
0.00520568
0.00516587
0.00511749
0.00510124
0.00508614
0.00700874
0.00653112
0.00655518
0.00621072
0.00606744
0.00579425
0.00564485
0.0054574
0.00536622
0.00526237
0.00521707
0.00516572
0.00514741
0.00513157
0.0155973
0.0066163
0.00650292
0.00625532
0.00610653
0.00585237
0.00571154
0.00551825
0.00542488
0.00531151
0.00526297
0.00520616
0.00518616
0.00516851
0.00989662
0.00685576
0.00655057
0.00641496
0.00621803
0.00600336
0.0058427
0.00565668
0.00554444
0.00542544
0.00536735
0.00530494
0.00528233
0.00526281
0.0174875
0.00663289
0.0063847
0.00632024
0.00606474
0.00595452
0.00575255
0.00565723
0.00551963
0.00545922
0.00538649
0.00536041
0.00533742
0.00999325
0.00681912
0.00653778
0.00643636
0.00626419
0.00612355
0.00595561
0.00584436
0.00571374
0.00564764
0.00556905
0.00554346
0.0055175
0.0152757
0.00652781
0.00658524
0.00631868
0.0062647
0.00606669
0.00600593
0.00585551
0.00579791
0.00571306
0.00568157
0.00565237
0.0121287
0.00687922
0.00649235
0.00659423
0.00643847
0.00632307
0.00622205
0.0061109
0.00607227
0.00598803
0.0059771
0.00594578
0.0275437
0.00701768
0.00654457
0.00653529
0.00638714
0.00641974
0.00626035
0.00621639
0.00614597
0.0061165
0.00609284
0.0257117
0.0196069
0.00682301
0.00663786
0.00655679
0.00650904
0.00656191
0.00645587
0.00649448
0.00645581
0.0169544
0.0180797
0.00686231
0.00662223
0.00653835
0.00656104
0.00651321
0.00651315
0.010017
0.0151598
0.0175113
0.00701636
0.00677126
0.00691954
0.00686075
0.023182
0.0189373
0.0186805
0.0180238
0.00867715
0.00584992
0.00547965
0.00540072
0.00499949
0.00484878
0.0045594
0.0044615
0.0043129
0.0042698
0.00419959
0.00418277
0.00415162
0.00414656
0.00413707
0.00909047
0.00591813
0.00548178
0.00544104
0.00502363
0.00487853
0.00458304
0.00448114
0.00432973
0.00428363
0.00421182
0.00419331
0.00416144
0.00415515
0.00414612
0.010428
0.00576044
0.00551534
0.00539727
0.00504438
0.00488428
0.00460289
0.00449511
0.00434405
0.00429591
0.00422187
0.00420232
0.00416835
0.00416191
0.00415155
0.00599805
0.00550832
0.0055062
0.00512683
0.00497062
0.00468735
0.00456254
0.00440424
0.00434433
0.00426459
0.00423941
0.00420217
0.0041937
0.00418237
0.0146979
0.00554027
0.0054455
0.00515338
0.00500128
0.00473433
0.00461081
0.00444297
0.00438143
0.00429211
0.00426519
0.00422227
0.00421269
0.00419964
0.00895727
0.00581264
0.00548642
0.00533995
0.00512278
0.0048979
0.00473905
0.00456581
0.00448075
0.00438202
0.00434536
0.00429665
0.00428482
0.0042698
0.0165417
0.00554197
0.00529624
0.00521909
0.0049469
0.00484285
0.0046394
0.0045664
0.00444422
0.00440605
0.00434544
0.00433156
0.0043132
0.00900371
0.00573083
0.00546969
0.00536108
0.00516867
0.00502399
0.00484394
0.00474066
0.00461309
0.00456541
0.00449718
0.00448372
0.00446211
0.0143063
0.00543727
0.00552746
0.00520314
0.0051673
0.00494831
0.00490009
0.00473752
0.00469099
0.00460578
0.0045864
0.0045604
0.0111836
0.00594912
0.00545038
0.00552274
0.0053604
0.00522192
0.00512683
0.00500578
0.00497578
0.00488809
0.00488296
0.00484992
0.0272946
0.00586545
0.0054245
0.00546966
0.00529993
0.00534458
0.00515855
0.00513269
0.00504897
0.00502871
0.00500109
0.0248399
0.0186707
0.00573443
0.00554752
0.00549302
0.00545195
0.00551355
0.00540259
0.00544742
0.00540233
0.0160391
0.0171865
0.00581934
0.00554685
0.0055159
0.00552171
0.00548818
0.00548224
0.00907063
0.0142411
0.016621
0.00600665
0.00576664
0.00592637
0.0058516
0.0223356
0.0180553
0.017791
0.0171434
0.00776362
0.00463368
0.00418589
0.0040846
0.00363731
0.00351489
0.00327065
0.00322868
0.00312585
0.00312075
0.00307879
0.00308234
0.00306552
0.00306904
0.00306369
0.00819118
0.0047255
0.00418559
0.00412562
0.00366049
0.00353548
0.00328685
0.00324068
0.00313632
0.00312872
0.00308564
0.00308798
0.00307062
0.0030733
0.00306859
0.00951223
0.00453699
0.0041915
0.00406047
0.0036637
0.00351908
0.0032862
0.00323714
0.00313538
0.00312823
0.00308418
0.00308679
0.00306805
0.00307107
0.00306546
0.00481911
0.00419636
0.00417358
0.00375659
0.00359951
0.00335727
0.00328716
0.00317771
0.00315936
0.00311007
0.00310817
0.00308662
0.00308833
0.00308184
0.0137857
0.00419121
0.00408966
0.00375545
0.00361441
0.00337121
0.00330592
0.0031857
0.00316943
0.00311195
0.00311064
0.00308447
0.00308642
0.00307866
0.00799867
0.00456593
0.00412752
0.00398479
0.00375061
0.00353521
0.00341343
0.00328101
0.00323817
0.00317002
0.00316034
0.00312888
0.00312979
0.0031206
0.015577
0.00417163
0.00392042
0.00383955
0.00356167
0.00348636
0.00331134
0.00328137
0.00318683
0.00317945
0.00313653
0.00313794
0.00312588
0.00792932
0.00442259
0.00413447
0.00402414
0.00381087
0.00366914
0.0034872
0.00341493
0.00330814
0.00328996
0.00323903
0.00324316
0.00322884
0.0132746
0.00407403
0.00422199
0.00381348
0.00380852
0.00356301
0.00353697
0.00337417
0.00336084
0.00328882
0.00329002
0.00327115
0.010238
0.00482155
0.00416666
0.00421637
0.00402305
0.00384291
0.00375475
0.00361914
0.0036049
0.00352283
0.00354017
0.00351549
0.0262628
0.00470944
0.00405821
0.00413427
0.00392454
0.00398935
0.00376077
0.00376274
0.00366839
0.00366597
0.00363843
0.0240232
0.0177318
0.00442733
0.00417823
0.00413465
0.00409659
0.00418166
0.00406604
0.00413313
0.00408522
0.0151496
0.0163399
0.00457287
0.00419822
0.00420484
0.00419865
0.00419336
0.0041881
0.00812426
0.0133002
0.015734
0.00482929
0.00454407
0.00473698
0.00463362
0.021503
0.017132
0.0169171
0.0162956
0.00720753
0.00440557
0.00380618
0.0038799
0.00338255
0.00339374
0.003216
0.00326329
0.00321779
0.00326138