/*--------------------------------*- C++ -*----------------------------------*\
| =========                 |                                                 |
| \\      /  F ield         | OpenFOAM: The Open Source CFD Toolbox           |
|  \\    /   O peration     | Version:  2.1.1                                 |
|   \\  /    A nd           | Web:      www.OpenFOAM.org                      |
|    \\/     M anipulation  |                                                 |
\*---------------------------------------------------------------------------*/
FoamFile
{
    version     2.0;
    format      ascii;
    class       volScalarField;
    location    "0.005";
    object      p;
}
// * * * * * * * * * * * * * * * * * * * * * * * * * * * * * * * * * * * * * //

dimensions      [0 2 -2 0 0 0 0];

internalField   nonuniform List<scalar> 
10266
(
0.0544649
0.05195
0.0517513
0.0518858
0.051798
0.0518568
0.051824
0.0518496
0.0518375
0.0518504
0.0518465
0.0518536
0.0518527
0.0518558
0.0518557
0.0548788
0.0519918
0.0517444
0.0518939
0.0517942
0.0518606
0.0518252
0.0518507
0.0518384
0.0518512
0.0518472
0.051854
0.0518531
0.0518562
0.0518561
0.0562506
0.0518678
0.0517903
0.0518624
0.0518107
0.0518508
0.0518274
0.0518481
0.0518379
0.0518492
0.0518453
0.0518516
0.0518506
0.0518534
0.0518533
0.052064
0.0517359
0.051891
0.0518112
0.0518566
0.0518303
0.0518488
0.0518396
0.0518495
0.0518464
0.0518523
0.0518515
0.0518545
0.0518545
0.0604895
0.0518506
0.0518225
0.0518271
0.0518424
0.0518314
0.0518442
0.0518369
0.0518454
0.051842
0.051847
0.0518457
0.051848
0.0518478
0.0548586
0.0519826
0.0518125
0.0518497
0.0518432
0.0518371
0.0518449
0.0518405
0.0518467
0.0518447
0.0518496
0.051849
0.0518519
0.0518519
0.0624525
0.0518877
0.0517951
0.0518535
0.05183
0.0518421
0.051834
0.0518411
0.0518368
0.0518402
0.0518381
0.0518395
0.0518388
0.0550062
0.0519884
0.0518052
0.0518443
0.0518349
0.0518433
0.0518412
0.0518447
0.0518428
0.0518486
0.0518475
0.0518513
0.0518511
0.0602857
0.0518491
0.0518584
0.0518454
0.0518352
0.0518297
0.0518372
0.0518306
0.0518309
0.0518275
0.0518266
0.0518252
0.0571068
0.0520714
0.051692
0.051858
0.0518438
0.0518522
0.0518424
0.0518406
0.051855
0.051851
0.0518606
0.0518596
0.0727077
0.0520807
0.0518493
0.0518049
0.051794
0.0518495
0.0518246
0.0518121
0.0518099
0.0518016
0.0517994
0.0705155
0.064555
0.0519875
0.0518862
0.0518106
0.0518205
0.051889
0.0518622
0.0518961
0.0518893
0.0618843
0.0630158
0.0519812
0.0518476
0.0517376
0.0517844
0.0517399
0.0517458
0.0549675
0.060063
0.0624072
0.0520558
0.0518639
0.0519801
0.0519508
0.0679369
0.063769
0.0635457
0.0628882
0.0533968
0.050882
0.0506821
0.0508213
0.0507323
0.0507915
0.0507569
0.0507823
0.0507695
0.0507821
0.0507775
0.0507842
0.0507828
0.0507856
0.0507854
0.0538187
0.0509276
0.050675
0.0508342
0.0507312
0.0507964
0.0507581
0.0507838
0.0507706
0.0507828
0.0507783
0.0507847
0.0507833
0.0507862
0.050786
0.0551878
0.0508017
0.050726
0.0507993
0.0507457
0.0507856
0.0507609
0.0507809
0.0507701
0.0507811
0.0507766
0.0507826
0.0507811
0.0507838
0.0507835
0.0509918
0.050678
0.0508286
0.050745
0.0507916
0.0507635
0.050782
0.0507721
0.0507816
0.050778
0.0507835
0.0507825
0.0507852
0.050785
0.0594231
0.0507862
0.0507579
0.0507618
0.0507764
0.0507651
0.0507776
0.0507697
0.0507779
0.050774
0.0507787
0.0507771
0.0507792
0.0507787
0.0537932
0.050917
0.0507473
0.0507836
0.0507777
0.0507707
0.0507785
0.0507735
0.0507796
0.0507771
0.0507818
0.0507809
0.0507835
0.0507835
0.0613872
0.0508223
0.0507291
0.0507881
0.0507636
0.0507761
0.0507673
0.0507743
0.0507696
0.0507728
0.0507705
0.0507716
0.050771
0.0539405
0.0509229
0.0507393
0.0507786
0.050769
0.050777
0.0507751
0.0507783
0.0507761
0.0507817
0.0507805
0.0507843
0.050784
0.0592202
0.0507837
0.0507928
0.0507795
0.0507693
0.0507633
0.0507707
0.0507643
0.0507642
0.0507609
0.0507595
0.0507582
0.0560407
0.0510112
0.0506264
0.050792
0.050778
0.0507866
0.0507766
0.0507747
0.0507896
0.0507853
0.0507948
0.0507941
0.0716869
0.0510086
0.0507828
0.0507389
0.0507278
0.0507833
0.0507589
0.0507455
0.0507427
0.0507316
0.0507316
0.069453
0.0634899
0.0509219
0.0508206
0.0507451
0.0507551
0.0508237
0.0507968
0.0508268
0.050824
0.060819
0.0619503
0.0509152
0.0507816
0.0506716
0.0507187
0.0506796
0.0506799
0.0539017
0.0589974
0.0613419
0.0509904
0.0507992
0.0509163
0.0508864
0.0668716
0.0627038
0.0624804
0.0618227
0.0523264
0.0498154
0.0496141
0.0497558
0.049666
0.0497264
0.0496899
0.0497154
0.0497018
0.0497139
0.0497087
0.0497149
0.0497133
0.049716
0.0497157
0.0527541
0.0498609
0.0496049
0.0497676
0.0496694
0.0497321
0.049691
0.049717
0.0497028
0.0497146
0.0497095
0.0497156
0.049714
0.0497167
0.0497164
0.0541228
0.0497373
0.0496574
0.0497335
0.04968
0.0497201
0.0496942
0.0497137
0.0497024
0.0497131
0.0497083
0.0497138
0.0497121
0.0497145
0.0497141
0.0499354
0.0496022
0.0497609
0.049678
0.0497262
0.0496965
0.0497154
0.0497047
0.0497139
0.0497099
0.049715
0.0497137
0.0497161
0.0497158
0.058359
0.0497189
0.0496917
0.0496958
0.0497102
0.0496987
0.0497107
0.0497026
0.0497105
0.0497063
0.0497106
0.0497087
0.0497106
0.04971
0.0527275
0.0498507
0.0496815
0.0497173
0.0497118
0.0497043
0.049712
0.0497067
0.0497125
0.0497096
0.0497139
0.0497129
0.0497153
0.0497151
0.0603214
0.0497565
0.0496628
0.0497223
0.0496972
0.0497099
0.0497006
0.049708
0.0497025
0.0497051
0.0497029
0.0497039
0.0497031
0.0528745
0.0498571
0.0496732
0.0497126
0.0497028
0.0497107
0.049709
0.0497117
0.0497093
0.0497149
0.0497136
0.0497174
0.049717
0.0581545
0.0497174
0.0497268
0.0497133
0.049703
0.0496968
0.0497043
0.0496981
0.0496972
0.049694
0.0496922
0.0496907
0.0549749
0.0499432
0.0495605
0.049726
0.0497119
0.0497209
0.0497106
0.0497087
0.0497239
0.0497198
0.0497299
0.0497287
0.0706052
0.0499448
0.0497168
0.0496727
0.0496614
0.0497169
0.0496927
0.0496787
0.0496766
0.0496699
0.0496651
0.0683863
0.0624242
0.049856
0.0497547
0.0496793
0.0496893
0.0497581
0.0497321
0.049766
0.0497592
0.0597531
0.0608845
0.049849
0.0497153
0.0496051
0.0496508
0.0496044
0.0496121
0.0528356
0.0579316
0.0602764
0.0499247
0.0497331
0.0498485
0.0498199
0.0658062
0.0616381
0.0614144
0.0607566
0.0512637
0.0487512
0.0485479
0.0486897
0.0485969
0.0486601
0.0486223
0.0486484
0.0486339
0.0486455
0.0486401
0.0486459
0.048644
0.0486466
0.0486464
0.0516848
0.0487947
0.0485455
0.0487029
0.0485941
0.0486639
0.0486233
0.0486501
0.0486351
0.0486464
0.0486411
0.0486467
0.048645
0.0486475
0.0486471
0.0530546
0.0486703
0.0485924
0.0486681
0.0486115
0.0486533
0.0486269
0.0486465
0.0486348
0.0486449
0.04864
0.0486452
0.0486432
0.0486454
0.048645
0.0488604
0.048545
0.0486969
0.0486112
0.0486599
0.0486293
0.0486486
0.0486374
0.0486461
0.0486418
0.0486465
0.048645
0.0486471
0.0486469
0.0572916
0.0486534
0.0486259
0.0486293
0.0486437
0.048632
0.0486437
0.0486354
0.0486431
0.0486386
0.0486426
0.0486404
0.0486421
0.0486414
0.0516614
0.0487843
0.0486154
0.0486508
0.0486455
0.0486379
0.0486453
0.04864
0.0486452
0.0486422
0.0486462
0.048645
0.0486471
0.0486468
0.0592551
0.0486903
0.0485962
0.0486562
0.0486304
0.0486435
0.0486337
0.0486407
0.0486356
0.0486381
0.0486355
0.0486361
0.0486352
0.0518082
0.0487908
0.0486068
0.0486463
0.0486365
0.0486445
0.0486427
0.048645
0.0486427
0.0486481
0.0486468
0.0486503
0.0486499
0.0570883
0.0486511
0.0486606
0.048647
0.0486366
0.0486304
0.0486378
0.0486315
0.04863
0.0486268
0.0486245
0.048623
0.0539087
0.0488776
0.0484944
0.0486599
0.0486459
0.048655
0.0486444
0.0486425
0.0486576
0.0486535
0.0486622
0.0486623
0.0695448
0.0488776
0.0486504
0.0486064
0.048595
0.0486504
0.0486263
0.0486117
0.0486084
0.0485947
0.0485967
0.0673208
0.0613582
0.0487899
0.0486887
0.0486133
0.0486232
0.0486921
0.0486661
0.0486965
0.048693
0.0586871
0.0598184
0.0487826
0.0486489
0.0485386
0.0485854
0.0485485
0.0485465
0.0517695
0.0568657
0.0592107
0.0488589
0.0486679
0.048785
0.0487554
0.0647404
0.0605721
0.0603484
0.0596907
0.0501996
0.0476842
0.0474781
0.047625
0.0475316
0.0475944
0.0475547
0.0475811
0.047566
0.0475772
0.0475716
0.047577
0.0475753
0.0475776
0.0475775
0.050614
0.0477245
0.047474
0.0476363
0.0475323
0.0475985
0.0475558
0.047583
0.0475674
0.0475783
0.0475728
0.0475779
0.0475761
0.0475783
0.0475781
0.0519857
0.0476047
0.0475217
0.0476012
0.0475446
0.0475871
0.0475595
0.0475793
0.0475671
0.0475768
0.0475717
0.0475765
0.0475745
0.0475765
0.0475761
0.0478026
0.0474681
0.0476277
0.047544
0.0475934
0.0475622
0.0475818
0.0475701
0.0475784
0.047574
0.0475781
0.0475764
0.0475783
0.047578
0.0562261
0.047585
0.0475586
0.0475624
0.047577
0.047565
0.0475766
0.0475685
0.0475754
0.0475709
0.0475745
0.0475723
0.0475737
0.047573
0.0505945
0.0477174
0.0475488
0.0475841
0.0475789
0.0475714
0.0475787
0.0475733
0.047578
0.0475749
0.0475784
0.0475771
0.0475789
0.0475786
0.0581884
0.0476239
0.0475295
0.0475899
0.0475637
0.0475768
0.0475668
0.0475737
0.0475685
0.0475707
0.047568
0.0475683
0.0475673
0.0507417
0.0477245
0.0475404
0.0475801
0.0475701
0.0475783
0.0475763
0.0475784
0.0475761
0.0475813
0.04758
0.0475833
0.047583
0.0560221
0.0475846
0.0475943
0.0475808
0.0475702
0.0475638
0.0475711
0.0475648
0.0475628
0.0475598
0.0475576
0.0475558
0.0528426
0.0478109
0.0474284
0.0475937
0.0475797
0.047589
0.047578
0.0475762
0.0475916
0.0475884
0.0475992
0.0475972
0.0684763
0.0478116
0.0475841
0.04754
0.0475285
0.0475838
0.0475599
0.0475452
0.0475435
0.0475398
0.0475313
0.0662549
0.0602922
0.0477238
0.0476225
0.0475471
0.0475571
0.0476262
0.0476008
0.0476331
0.0476284
0.0576211
0.0587521
0.0477162
0.0475825
0.047472
0.0475162
0.0474686
0.0474782
0.0507032
0.0557995
0.0581446
0.0477924
0.0476007
0.0477153
0.0476878
0.0636742
0.0595056
0.0592817
0.058624
0.0491332
0.0466201
0.0464117
0.046558
0.0464619
0.0465274
0.0464867
0.046514
0.0464981
0.0465093
0.0465034
0.0465083
0.0465064
0.0465085
0.0465086
0.0495439
0.0466567
0.0464123
0.0465683
0.0464619
0.0465311
0.0464884
0.0465161
0.0464997
0.0465106
0.0465048
0.0465093
0.0465074
0.0465094
0.0465092
0.0509169
0.0465365
0.0464552
0.0465352
0.0464767
0.0465204
0.046492
0.0465122
0.0464995
0.0465088
0.0465034
0.0465077
0.0465056
0.0465074
0.046507
0.0467255
0.0464112
0.0465633
0.0464774
0.0465266
0.046495
0.0465149
0.0465027
0.0465109
0.0465062
0.04651
0.0465083
0.0465098
0.0465094
0.0551574
0.0465189
0.0464924
0.0464955
0.0465103
0.0464979
0.0465094
0.0465008
0.0465076
0.046503
0.0465063
0.046504
0.0465051
0.0465044
0.0495276
0.0466507
0.0464823
0.0465174
0.0465124
0.0465047
0.0465121
0.0465064
0.0465109
0.0465078
0.046511
0.0465096
0.0465111
0.0465109
0.0571217
0.0465573
0.0464628
0.0465235
0.0464969
0.0465099
0.0464999
0.0465063
0.0465012
0.0465029
0.0465003
0.0465003
0.0464994
0.0496754
0.0466582
0.046474
0.0465138
0.0465036
0.0465121
0.0465097
0.0465118
0.0465095
0.0465145
0.0465134
0.0465165
0.0465164
0.0549561
0.0465183
0.046528
0.0465146
0.0465035
0.0464971
0.0465042
0.046498
0.0464955
0.0464926
0.0464903
0.0464886
0.0517766
0.046745
0.0463622
0.0465274
0.0465133
0.0465228
0.0465116
0.0465099
0.0465254
0.0465224
0.046533
0.0465313
0.0674124
0.0467448
0.0465176
0.0464735
0.046462
0.0465172
0.0464936
0.0464784
0.0464765
0.0464722
0.0464643
0.065189
0.0592262
0.0466576
0.0465563
0.046481
0.046491
0.0465601
0.0465349
0.0465666
0.0465626
0.056555
0.0576858
0.0466498
0.0465161
0.0464055
0.0464497
0.0464032
0.0464115
0.0496369
0.0547334
0.0570785
0.0467263
0.0465347
0.0466495
0.0466218
0.0626078
0.0584391
0.0582153
0.0575575
0.0480661
0.0455535
0.0453433
0.0454925
0.0453952
0.0454614
0.0454193
0.0454471
0.0454303
0.0454415
0.045435
0.0454396
0.0454373
0.0454392
0.0454394
0.0484745
0.0455866
0.04534
0.0455018
0.0453991
0.0454651
0.045421
0.0454492
0.0454321
0.045443
0.0454365
0.045441
0.0454388
0.0454405
0.0454403
0.0498485
0.0454703
0.0453853
0.0454681
0.0454096
0.045454
0.0454244
0.0454451
0.0454314
0.0454409
0.045435
0.0454391
0.0454368
0.0454382
0.0454379
0.0456647
0.0453369
0.0454945
0.0454103
0.0454597
0.0454278
0.0454479
0.0454351
0.0454434
0.0454385
0.0454421
0.0454403
0.0454415
0.0454412
0.0540911
0.0454507
0.0454252
0.0454284
0.0454434
0.0454306
0.0454422
0.045433
0.0454399
0.0454348
0.045438
0.0454354
0.0454364
0.0454358
0.0484607
0.0455838
0.0454156
0.0454506
0.0454458
0.0454379
0.0454453
0.045439
0.045444
0.0454407
0.0454438
0.0454424
0.0454437
0.0454436
0.056055
0.0454907
0.045396
0.0454569
0.0454299
0.0454428
0.045433
0.045439
0.0454337
0.0454352
0.0454325
0.0454324
0.0454315
0.0486086
0.0455916
0.0454074
0.0454473
0.0454371
0.0454457
0.045443
0.0454453
0.0454428
0.0454479
0.0454468
0.0454499
0.0454497
0.0538896
0.0454517
0.0454614
0.0454482
0.0454368
0.0454302
0.0454373
0.0454311
0.0454283
0.0454252
0.0454224
0.0454209
0.05071
0.0456781
0.0452958
0.045461
0.0454473
0.0454562
0.0454453
0.0454436
0.045459
0.0454555
0.0454641
0.0454642
0.066344
0.0456788
0.0454512
0.045407
0.0453954
0.0454506
0.0454271
0.0454114
0.045408
0.0453949
0.0453958
0.0641228
0.0581599
0.0455913
0.04549
0.0454148
0.0454248
0.0454939
0.0454685
0.0454981
0.0454954
0.0554885
0.0566194
0.0455832
0.0454496
0.045339
0.045385
0.0453482
0.0453462
0.0485705
0.053667
0.0560123
0.0456604
0.0454695
0.0455864
0.0455574
0.0615417
0.0573729
0.0571492
0.0564916
0.0469991
0.0444881
0.0442769
0.0444258
0.0443271
0.0443945
0.0443515
0.04438
0.044362
0.0443738
0.0443662
0.0443711
0.0443682
0.04437
0.0443701
0.0474059
0.0445203
0.0442791
0.0444327
0.0443271
0.044397
0.0443533
0.044382
0.0443638
0.0443754
0.0443681
0.0443729
0.0443701
0.0443718
0.0443716
0.0487805
0.0444031
0.044319
0.0444013
0.0443413
0.044387
0.0443565
0.0443779
0.0443635
0.0443733
0.0443665
0.0443709
0.0443679
0.0443694
0.0443689
0.0445939
0.0442738
0.0444283
0.0443433
0.0443925
0.0443604
0.0443809
0.0443675
0.0443763
0.0443706
0.0443745
0.0443721
0.0443735
0.0443732
0.0530239
0.0443839
0.0443585
0.0443613
0.0443765
0.0443632
0.044375
0.0443654
0.0443724
0.0443665
0.0443699
0.0443668
0.0443679
0.0443671
0.0473939
0.0445169
0.0443488
0.0443837
0.044379
0.0443709
0.0443787
0.0443723
0.0443772
0.0443734
0.0443767
0.0443751
0.0443766
0.0443764
0.0549879
0.0444239
0.044329
0.0443901
0.0443627
0.0443756
0.0443653
0.0443714
0.0443659
0.0443675
0.0443644
0.0443643
0.0443634
0.0475415
0.0445249
0.0443406
0.0443807
0.0443703
0.0443793
0.0443761
0.0443789
0.0443761
0.0443814
0.04438
0.0443831
0.0443829
0.0528226
0.0443849
0.0443946
0.0443815
0.0443698
0.0443633
0.0443704
0.044364
0.0443612
0.0443578
0.044355
0.0443532
0.0496431
0.0446118
0.0442292
0.0443944
0.0443805
0.0443902
0.0443791
0.0443772
0.0443927
0.0443897
0.0443996
0.044398
0.0652793
0.0446118
0.0443845
0.0443404
0.0443288
0.0443839
0.0443605
0.0443446
0.0443423
0.0443366
0.0443294
0.0630562
0.0570934
0.0445248
0.0444236
0.0443485
0.0443585
0.0444277
0.0444027
0.044434
0.04443
0.0544219
0.0555527
0.0445166
0.044383
0.0442724
0.0443165
0.0442712
0.0442783
0.0475037
0.0526004
0.0549459
0.0445938
0.0444025
0.0445175
0.0444897
0.0604752
0.0563064
0.0560827
0.0554249
0.0459327
0.043421
0.0432098
0.0433604
0.0432603
0.0433279
0.0432836
0.0433128
0.0432937
0.0433063
0.0432976
0.043303
0.0432993
0.0433012
0.0433009
0.0463383
0.0434514
0.0432049
0.0433675
0.0432658
0.043331
0.0432857
0.0433148
0.0432958
0.0433082
0.0432997
0.043305
0.0433014
0.0433033
0.0433029
0.047713
0.0433361
0.0432504
0.0433348
0.0432745
0.0433204
0.0432888
0.0433108
0.0432954
0.0433059
0.0432979
0.0433028
0.043299
0.0433007
0.0433001
0.0435281
0.0432052
0.0433609
0.0432762
0.0433254
0.0432931
0.0433139
0.0432999
0.0433092
0.0433026
0.0433068
0.0433039
0.0433055
0.0433051
0.0519571
0.0433167
0.0432915
0.0432941
0.0433095
0.0432957
0.0433079
0.0432975
0.043305
0.0432982
0.0433019
0.0432982
0.0432995
0.0432986
0.0463272
0.04345
0.043282
0.0433168
0.0433122
0.0433038
0.043312
0.0433048
0.0433103
0.043306
0.0433096
0.0433076
0.0433093
0.043309
0.053921
0.043357
0.0432619
0.0433231
0.0432955
0.0433085
0.0432981
0.0433042
0.0432979
0.0432997
0.0432961
0.0432963
0.0432952
0.0464748
0.0434581
0.0432738
0.0433142
0.0433034
0.0433128
0.0433093
0.0433124
0.0433092
0.0433148
0.0433131
0.0433163
0.0433161
0.0517558
0.043318
0.0433279
0.0433148
0.0433031
0.043296
0.0433034
0.0432966
0.0432937
0.0432901
0.0432874
0.0432856
0.0485764
0.0435447
0.0431626
0.0433279
0.0433144
0.0433234
0.0433127
0.0433105
0.0433262
0.0433231
0.043333
0.0433315
0.0642108
0.0435454
0.0433179
0.0432737
0.043262
0.043317
0.0432937
0.0432775
0.0432751
0.0432692
0.0432624
0.0619897
0.056027
0.0434584
0.0433571
0.0432821
0.0432921
0.0433613
0.0433362
0.0433673
0.0433637
0.0533555
0.0544861
0.04345
0.0433165
0.0432058
0.04325
0.0432051
0.0432114
0.0464372
0.0515341
0.0538795
0.0435274
0.0433363
0.0434514
0.0434233
0.0594087
0.05524
0.0550163
0.0543582
0.0448663
0.0423559
0.0421439
0.042293
0.0421925
0.0422606
0.0422157
0.0422457
0.0422254
0.0422389
0.0422292
0.042235
0.0422306
0.0422327
0.0422318
0.0452715
0.0423868
0.042146
0.0422993
0.0421915
0.042262
0.0422178
0.0422479
0.042228
0.0422409
0.0422314
0.0422371
0.0422329
0.0422349
0.0422341
0.0466464
0.0422699
0.0421848
0.0422678
0.0422059
0.0422529
0.0422209
0.0422438
0.0422275
0.0422384
0.0422295
0.0422346
0.0422303
0.0422322
0.0422312
0.0424607
0.042139
0.042294
0.042209
0.0422583
0.0422257
0.042247
0.0422323
0.042242
0.0422345
0.0422391
0.0422358
0.0422376
0.0422369
0.0508903
0.0422497
0.0422245
0.0422269
0.0422425
0.0422282
0.0422409
0.0422296
0.0422375
0.0422299
0.0422338
0.0422298
0.0422312
0.0422301
0.0452604
0.042383
0.0422151
0.0422498
0.0422454
0.0422367
0.0422453
0.0422376
0.0422433
0.0422385
0.0422424
0.0422401
0.042242
0.0422416
0.0528541
0.0422901
0.042195
0.0422567
0.0422284
0.0422415
0.0422303
0.0422368
0.0422299
0.0422318
0.0422279
0.0422282
0.0422271
0.0454082
0.0423914
0.0422068
0.0422469
0.0422365
0.0422463
0.0422424
0.0422457
0.0422422
0.042248
0.0422462
0.0422497
0.0422494
0.0506891
0.0422511
0.042261
0.042248
0.0422362
0.0422288
0.0422364
0.042229
0.0422263
0.0422223
0.0422195
0.0422179
0.0475099
0.0424782
0.0420961
0.0422612
0.0422476
0.0422571
0.0422461
0.0422438
0.0422594
0.0422559
0.0422644
0.0422646
0.0631458
0.0424783
0.0422512
0.042207
0.0421952
0.0422502
0.042227
0.0422102
0.0422068
0.0421943
0.0421947
0.0609233
0.0549605
0.0423919
0.0422906
0.0422156
0.0422254
0.0422947
0.0422696
0.0422996
0.0422965
0.052289
0.0534196
0.0423834
0.0422499
0.0421391
0.0421848
0.0421471
0.0421458
0.0453708
0.0504677
0.0528132
0.0424615
0.0422709
0.0423875
0.0423584
0.0583426
0.054174
0.0539502
0.0532921
0.0437999
0.0412896
0.0410774
0.0412264
0.0411255
0.0411938
0.0411482
0.041179
0.0411577
0.0411715
0.0411609
0.041167
0.0411621
0.0411641
0.0411627
0.0442051
0.0413201
0.0410795
0.0412323
0.0411244
0.0411949
0.0411504
0.0411809
0.0411599
0.0411734
0.0411631
0.0411691
0.0411645
0.0411665
0.0411652
0.0455799
0.0412033
0.0411178
0.041201
0.0411387
0.041186
0.0411533
0.0411768
0.0411591
0.0411708
0.0411612
0.0411665
0.0411617
0.0411637
0.0411623
0.041394
0.0410719
0.041227
0.041142
0.0411913
0.0411585
0.0411801
0.0411645
0.0411746
0.0411666
0.0411715
0.0411678
0.0411697
0.0411688
0.0498234
0.0411827
0.0411576
0.0411597
0.0411756
0.0411607
0.0411738
0.0411616
0.0411699
0.0411619
0.0411659
0.0411615
0.0411629
0.0411618
0.0441932
0.041316
0.0411482
0.0411828
0.0411783
0.0411696
0.0411783
0.0411698
0.0411762
0.041171
0.0411752
0.0411727
0.0411748
0.0411743
0.0517873
0.0412233
0.0411278
0.0411895
0.041161
0.0411745
0.0411629
0.0411698
0.041162
0.0411641
0.0411599
0.0411603
0.041159
0.0443414
0.0413246
0.04114
0.0411806
0.0411697
0.0411796
0.0411754
0.0411789
0.0411752
0.0411813
0.0411793
0.041183
0.0411828
0.0496224
0.0411843
0.0411944
0.0411811
0.0411693
0.0411614
0.0411694
0.0411614
0.041159
0.0411548
0.0411522
0.0411506
0.0464433
0.0414114
0.0410295
0.0411946
0.0411809
0.0411904
0.0411793
0.0411771
0.0411928
0.0411895
0.0411991
0.0411984
0.0620785
0.0414117
0.0411845
0.0411402
0.0411283
0.0411834
0.0411602
0.0411433
0.0411407
0.0411341
0.0411285
0.0598569
0.053894
0.0413254
0.0412241
0.0411491
0.0411589
0.0412283
0.0412035
0.0412354
0.0412309
0.0512225
0.0523529
0.0413167
0.0411833
0.0410727
0.0411172
0.0410724
0.0410786
0.0443043
0.0494011
0.0517467
0.0413947
0.0412041
0.0413194
0.0412912
0.0572762
0.0531076
0.0528838
0.0522257
0.0427337
0.0402218
0.0400099
0.0401607
0.0400594
0.0401274
0.0400809
0.040112
0.0400895
0.0401038
0.0400925
0.0400989
0.0400935
0.0400956
0.0400939
0.0431385
0.040251
0.040004
0.040167
0.0400654
0.0401298
0.0400834
0.0401138
0.0400919
0.0401059
0.0400949
0.0401012
0.040096
0.0400981
0.0400967
0.0445132
0.0401358
0.0400496
0.0401345
0.0400728
0.0401195
0.040086
0.0401097
0.0400912
0.0401033
0.040093
0.0400986
0.0400933
0.0400953
0.0400938
0.0403268
0.0400052
0.0401601
0.0400751
0.0401243
0.0400912
0.040113
0.0400968
0.0401073
0.0400988
0.040104
0.0400999
0.0401019
0.0401008
0.0487565
0.0401158
0.0400906
0.0400927
0.0401086
0.0400932
0.0401067
0.0400941
0.0401026
0.040094
0.0400982
0.0400934
0.040095
0.0400936
0.0431264
0.0402492
0.0400813
0.0401159
0.0401112
0.0401026
0.0401115
0.0401038
0.0401092
0.0401036
0.0401081
0.0401054
0.0401076
0.0401069
0.0507205
0.0401564
0.0400607
0.0401228
0.0400936
0.0401075
0.0400948
0.0401016
0.0400941
0.0400966
0.0400922
0.0400925
0.0400911
0.0432746
0.0402578
0.0400732
0.0401136
0.0401027
0.0401127
0.0401084
0.0401118
0.0401082
0.0401145
0.0401124
0.0401162
0.0401158
0.0485556
0.0401174
0.0401276
0.0401141
0.0401023
0.040094
0.0401025
0.040094
0.0400918
0.0400872
0.0400847
0.040083
0.0453765
0.0403443
0.0399627
0.0401279
0.0401142
0.0401238
0.0401124
0.0401104
0.040126
0.0401224
0.040131
0.0401314
0.0610102
0.0403456
0.0401177
0.0400735
0.0400613
0.0401167
0.0400934
0.0400762
0.0400728
0.0400605
0.040061
0.0587903
0.0528273
0.0402589
0.0401575
0.0400825
0.0400923
0.0401616
0.0401367
0.0401669
0.0401637
0.0501559
0.0512863
0.0402501
0.0401167
0.0400058
0.0400515
0.0400136
0.0400126
0.0432377
0.0483346
0.0506801
0.0403287
0.0401382
0.0402548
0.0402257
0.0562097
0.0520412
0.0518175
0.0511594
0.0416676
0.0391566
0.0389446
0.039093
0.0389917
0.0390599
0.0390133
0.0390448
0.0390215
0.0390363
0.0390243
0.0390309
0.039025
0.0390273
0.0390256
0.042072
0.0391867
0.0389467
0.0390985
0.03899
0.0390606
0.0390156
0.0390466
0.039024
0.0390383
0.0390268
0.0390332
0.0390277
0.03903
0.0390285
0.0434465
0.0390697
0.0389843
0.0390673
0.0390045
0.0390518
0.0390183
0.0390424
0.0390233
0.0390357
0.0390249
0.0390307
0.0390251
0.0390273
0.0390257
0.0392601
0.0389384
0.039093
0.039008
0.0390571
0.0390239
0.0390458
0.0390291
0.03904
0.0390311
0.0390364
0.0390321
0.0390342
0.0390331
0.0476898
0.0390489
0.0390236
0.0390256
0.0390416
0.0390256
0.0390394
0.0390259
0.0390351
0.0390262
0.0390306
0.0390255
0.0390272
0.0390256
0.0420596
0.0391824
0.0390144
0.0390491
0.039044
0.0390356
0.0390441
0.039035
0.0390421
0.0390364
0.039041
0.039038
0.0390403
0.0390395
0.0496537
0.0390896
0.0389937
0.039056
0.0390261
0.0390404
0.0390271
0.039036
0.0390268
0.0390292
0.0390244
0.0390248
0.0390233
0.0422076
0.039191
0.0390064
0.0390468
0.0390358
0.0390458
0.0390415
0.0390452
0.0390414
0.0390476
0.0390453
0.0390492
0.0390487
0.0474888
0.0390507
0.0390609
0.039047
0.0390354
0.0390267
0.0390356
0.0390265
0.0390246
0.0390198
0.0390175
0.0390157
0.0443097
0.0392799
0.0388958
0.0390612
0.0390474
0.0390572
0.0390453
0.0390438
0.0390593
0.039056
0.0390656
0.0390648
0.0599531
0.0392763
0.0390506
0.0390067
0.0389943
0.03905
0.0390265
0.0390093
0.0390067
0.0389998
0.0389944
0.0577232
0.0517605
0.0391923
0.039091
0.0390159
0.0390257
0.0390951
0.0390703
0.039102
0.0390976
0.0490892
0.0502196
0.0391836
0.03905
0.0389395
0.0389839
0.0389394
0.0389451
0.0421709
0.047268
0.0496135
0.0392616
0.0390712
0.0391864
0.0391581
0.0551431
0.0509746
0.0507508
0.0500926
0.0406014
0.0380898
0.0378782
0.0380259
0.0379249
0.0379927
0.0379461
0.0379775
0.0379537
0.0379687
0.0379561
0.0379628
0.0379566
0.0379592
0.0379577
0.0410054
0.0381196
0.0378802
0.0380313
0.0379231
0.0379933
0.0379484
0.0379792
0.0379562
0.0379707
0.0379587
0.0379653
0.0379595
0.037962
0.0379605
0.0423798
0.0380027
0.0379177
0.0380002
0.0379376
0.0379846
0.0379509
0.037975
0.0379555
0.0379681
0.0379569
0.0379629
0.037957
0.0379593
0.0379576
0.038193
0.0378718
0.0380259
0.0379411
0.0379899
0.0379567
0.0379785
0.0379616
0.0379725
0.0379633
0.0379688
0.0379643
0.0379665
0.0379653
0.0466229
0.0379822
0.0379567
0.0379586
0.0379747
0.037958
0.0379723
0.0379585
0.0379676
0.0379584
0.0379629
0.0379576
0.0379592
0.0379577
0.0409929
0.0381158
0.0379476
0.0379824
0.0379767
0.0379687
0.0379771
0.0379689
0.0379748
0.0379689
0.0379736
0.0379704
0.0379728
0.0379719
0.048587
0.0380229
0.0379266
0.0379894
0.0379587
0.0379735
0.0379597
0.0379675
0.0379588
0.0379616
0.0379565
0.0379571
0.0379555
0.041141
0.0381245
0.0379395
0.0379799
0.0379689
0.037979
0.0379745
0.0379779
0.0379741
0.0379805
0.0379781
0.0379821
0.0379815
0.0464221
0.037983
0.037994
0.0379798
0.0379685
0.0379592
0.0379686
0.0379589
0.0379574
0.0379524
0.0379501
0.0379482
0.0432427
0.0382061
0.0378292
0.0379949
0.0379807
0.0379907
0.0379783
0.0379772
0.0379924
0.0379888
0.0379975
0.0379973
0.0588549
0.0382175
0.0379844
0.0379399
0.0379273
0.0379832
0.0379596
0.0379423
0.037939
0.0379268
0.0379268
0.0566576
0.0506941
0.038126
0.0380245
0.0379493
0.037959
0.0380282
0.0380034
0.0380335
0.0380299
0.0480226
0.0491528
0.0381172
0.0379834
0.0378726
0.037918
0.0378795
0.0378788
0.0411044
0.0462015
0.048547
0.0381953
0.038005
0.0381212
0.0380924
0.0540765
0.049908
0.0496841
0.0490258
0.0395347
0.0370211
0.0368106
0.0369594
0.0368593
0.036926
0.0368792
0.0369103
0.0368862
0.0369013
0.0368883
0.0368951
0.0368887
0.0368913
0.0368897
0.0399387
0.0370497
0.0368038
0.036965
0.0368655
0.0369281
0.0368816
0.0369117
0.0368886
0.0369031
0.0368908
0.0368974
0.0368915
0.036894
0.0368924
0.041313
0.0369347
0.0368496
0.036933
0.0368721
0.0369179
0.0368838
0.0369076
0.0368878
0.0369004
0.0368889
0.0368949
0.0368888
0.0368912
0.0368895
0.0371254
0.0368051
0.0369587
0.0368744
0.0369227
0.0368896
0.0369111
0.036894
0.0369049
0.0368955
0.036901
0.0368963
0.0368986
0.0368973
0.0455561
0.0369156
0.0368897
0.0368917
0.0369078
0.0368905
0.0369049
0.0368906
0.0369
0.0368904
0.036895
0.0368895
0.0368912
0.0368896
0.0399264
0.0370495
0.0368808
0.0369157
0.0369096
0.0369016
0.0369097
0.0369011
0.0369074
0.0369013
0.036906
0.0369027
0.0369052
0.0369042
0.0475206
0.0369564
0.0368595
0.0369228
0.0368911
0.0369064
0.0368921
0.0369005
0.0368911
0.036894
0.0368887
0.0368894
0.0368877
0.0400748
0.0370585
0.036873
0.0369134
0.036902
0.0369121
0.0369075
0.0369107
0.0369069
0.0369133
0.0369108
0.0369148
0.036914
0.0453558
0.0369178
0.0369281
0.0369124
0.0369015
0.0368915
0.0369016
0.0368914
0.0368902
0.0368851
0.036883
0.0368808
0.042177
0.0371568
0.0367623
0.0369277
0.0369139
0.0369242
0.0369112
0.0369103
0.0369255
0.0369222
0.0369321
0.0369304
0.0578685
0.0371311
0.0369154
0.036873
0.0368602
0.0369165
0.0368926
0.0368754
0.0368729
0.0368659
0.0368602
0.0555882
0.0496267
0.0370601
0.0369582
0.0368829
0.0368924
0.0369615
0.0369364
0.0369669
0.0369638
0.0469563
0.0480862
0.0370511
0.036917
0.0368063
0.0368502
0.0368065
0.0368114
0.0400385
0.0451354
0.0474804
0.0371279
0.0369376
0.0370526
0.0370247
0.0530097
0.0488411
0.0486169
0.0479587
0.038468
0.0359548
0.0357455
0.0358908
0.0357917
0.0358578
0.0358119
0.0358427
0.0358187
0.0358338
0.0358207
0.0358276
0.0358209
0.0358234
0.0358216
0.0388722
0.0359842
0.0357472
0.0358954
0.0357901
0.0358585
0.0358142
0.0358442
0.035821
0.0358354
0.035823
0.0358296
0.0358234
0.035826
0.0358243
0.0402465
0.0358679
0.0357847
0.0358651
0.0358042
0.0358498
0.0358165
0.03584
0.0358201
0.0358327
0.0358209
0.035827
0.0358207
0.0358231
0.0358212
0.0360579
0.0357387
0.035891
0.0358074
0.0358552
0.0358224
0.0358435
0.0358264
0.0358372
0.0358275
0.0358331
0.0358282
0.0358306
0.0358292
0.0444893
0.0358491
0.0358226
0.0358247
0.0358405
0.035823
0.0358374
0.0358229
0.0358322
0.0358224
0.035827
0.0358214
0.0358232
0.0358215
0.03886
0.0359837
0.035814
0.035849
0.0358422
0.0358347
0.0358424
0.0358337
0.0358398
0.0358336
0.0358384
0.035835
0.0358375
0.0358365
0.0464546
0.0358902
0.0357922
0.0358561
0.0358232
0.0358392
0.0358242
0.0358331
0.0358234
0.0358264
0.035821
0.0358217
0.03582
0.0390092
0.035993
0.0358057
0.0358465
0.0358349
0.0358451
0.0358403
0.0358435
0.0358396
0.035846
0.0358433
0.0358474
0.0358465
0.0442897
0.0358466
0.0358605
0.0358446
0.0358345
0.0358236
0.0358345
0.0358237
0.0358229
0.0358177
0.0358158
0.0358136
0.0411095
0.0360538
0.0356967
0.0358631
0.0358477
0.0358578
0.035844
0.0358432
0.0358584
0.035855
0.0358652
0.0358631
0.0566304
0.0361051
0.0358527
0.0358067
0.0357931
0.0358498
0.0358255
0.0358085
0.035806
0.0357991
0.035793
0.0545278
0.0485628
0.0359953
0.0358924
0.0358165
0.0358257
0.0358941
0.0358691
0.0358989
0.035897
0.0458904
0.0470198
0.0359857
0.0358505
0.0357396
0.0357836
0.0357403
0.0357448
0.038973
0.0440695
0.0464138
0.0360611
0.0358709
0.0359853
0.0359579
0.0519432
0.0477744
0.0475498
0.0468918
0.0374024
0.0348862
0.034679
0.0348226
0.0347259
0.0347901
0.0347449
0.034775
0.034751
0.034766
0.0347526
0.0347596
0.0347527
0.0347554
0.0347535
0.0378064
0.0349143
0.0346744
0.0348273
0.0347298
0.0347917
0.0347474
0.0347763
0.0347534
0.0347676
0.034755
0.0347616
0.0347552
0.0347579
0.0347562
0.0391806
0.0347998
0.034718
0.0347968
0.0347383
0.0347821
0.0347493
0.0347723
0.0347525
0.0347649
0.034753
0.034759
0.0347526
0.034755
0.0347531
0.0349895
0.0346724
0.0348226
0.0347405
0.0347873
0.0347552
0.0347759
0.0347589
0.0347695
0.0347596
0.0347652
0.0347601
0.0347627
0.0347611
0.0434229
0.0347829
0.0347554
0.0347575
0.034773
0.0347554
0.0347699
0.0347552
0.0347646
0.0347546
0.0347592
0.0347535
0.0347553
0.0347534
0.0377947
0.0349189
0.0347472
0.0347821
0.0347747
0.0347677
0.0347749
0.0347662
0.0347723
0.034766
0.0347708
0.0347672
0.0347698
0.0347686
0.0453899
0.0348245
0.0347246
0.0347893
0.034755
0.0347718
0.0347562
0.0347656
0.0347556
0.034759
0.0347533
0.034754
0.0347524
0.0379453
0.0349292
0.034739
0.0347803
0.0347677
0.0347779
0.0347729
0.0347761
0.0347721
0.0347785
0.0347758
0.03478
0.034779
0.0432253
0.0347861
0.0347969
0.0347756
0.0347671
0.0347552