/*--------------------------------*- C++ -*----------------------------------*\
| =========                 |                                                 |
| \\      /  F ield         | OpenFOAM: The Open Source CFD Toolbox           |
|  \\    /   O peration     | Version:  2.1.1                                 |
|   \\  /    A nd           | Web:      www.OpenFOAM.org                      |
|    \\/     M anipulation  |                                                 |
\*---------------------------------------------------------------------------*/
FoamFile
{
    version     2.0;
    format      ascii;
    class       volVectorField;
    location    "0.005";
    object      U;
}
// * * * * * * * * * * * * * * * * * * * * * * * * * * * * * * * * * * * * * //

dimensions      [0 1 -1 0 0 0 0];

internalField   nonuniform List<vector> 
10266
(
(-0.00497624 1.16774e-06 0.0217212)
(-0.000258832 -5.3959e-05 0.0881875)
(0.000184118 -3.70011e-06 0.112805)
(-0.000160515 -1.36176e-05 0.112302)
(6.50572e-05 -2.29854e-06 0.111951)
(-8.92873e-05 -3.89316e-06 0.112159)
(-8.92687e-07 -2.44888e-06 0.112308)
(-5.88666e-05 -8.62679e-07 0.112388)
(-2.44044e-05 -1.33528e-06 0.112454)
(-4.45299e-05 -2.35221e-07 0.112509)
(-2.55071e-05 -1.42241e-07 0.112565)
(-3.04193e-05 5.30199e-07 0.112618)
(-1.61241e-05 6.52744e-07 0.112672)
(-1.46208e-05 8.92204e-07 0.112721)
(-1.66104e-06 7.76782e-07 0.112754)
(-0.00467778 -0.000707752 0.0197373)
(-0.000256548 8.25922e-05 0.088834)
(0.00023167 -6.22145e-05 0.113272)
(-0.000154549 5.0699e-05 0.112552)
(7.6233e-05 -2.12262e-05 0.112103)
(-8.74633e-05 1.84165e-05 0.112238)
(3.19147e-06 -2.7601e-06 0.112339)
(-5.69958e-05 8.36469e-06 0.11239)
(-2.35488e-05 4.0298e-06 0.112444)
(-4.29848e-05 9.01164e-06 0.112496)
(-2.44719e-05 9.08658e-06 0.11255)
(-2.94764e-05 1.15362e-05 0.112603)
(-1.5805e-05 1.22415e-05 0.112654)
(-1.44115e-05 1.32336e-05 0.112696)
(-1.81863e-06 1.36367e-05 0.112722)
(-0.00127485 -0.00150151 0.0104439)
(-0.000170231 -0.000109337 0.0937034)
(0.000102989 -3.74327e-05 0.116114)
(-0.00011383 4.15052e-05 0.11349)
(2.89121e-05 -3.30413e-05 0.112311)
(-6.93171e-05 1.95289e-05 0.112316)
(-1.12175e-05 -7.63188e-06 0.112365)
(-5.19618e-05 1.11509e-05 0.112384)
(-2.37922e-05 4.24791e-06 0.112422)
(-3.94538e-05 1.22986e-05 0.112468)
(-2.29758e-05 1.09354e-05 0.112521)
(-2.72608e-05 1.40523e-05 0.112573)
(-1.44249e-05 1.40729e-05 0.112619)
(-1.32241e-05 1.50952e-05 0.112654)
(-1.50507e-06 1.51508e-05 0.112673)
(-0.000489774 0.000341004 0.0751787)
(0.000389117 -0.000148318 0.113402)
(-0.00014284 0.000127089 0.114766)
(4.74629e-05 -3.63493e-05 0.112612)
(-6.22521e-05 2.9644e-05 0.112287)
(-5.28018e-06 -3.92842e-06 0.11233)
(-4.49595e-05 1.8391e-05 0.112344)
(-2.24247e-05 1.14486e-05 0.112377)
(-3.62865e-05 2.0767e-05 0.112423)
(-2.27137e-05 2.0738e-05 0.112478)
(-2.63389e-05 2.52794e-05 0.112529)
(-1.47607e-05 2.66529e-05 0.112573)
(-1.33317e-05 2.8613e-05 0.112603)
(-1.76727e-06 2.92638e-05 0.112618)
(-0.00588867 0.00143319 0.0290452)
(-0.000277712 -0.000190988 0.0885578)
(4.82219e-05 0.000179506 0.114019)
(-6.62991e-05 -6.84956e-05 0.11314)
(-4.13113e-05 2.34381e-05 0.112195)
(-2.27715e-05 -9.39122e-06 0.112202)
(-3.63328e-05 1.65684e-05 0.112254)
(-2.13492e-05 8.50059e-06 0.112301)
(-3.01559e-05 1.92773e-05 0.112358)
(-1.84513e-05 1.87145e-05 0.112421)
(-2.13449e-05 2.247e-05 0.112476)
(-1.10886e-05 2.30624e-05 0.112521)
(-1.06132e-05 2.40188e-05 0.112549)
(-8.49793e-07 2.42962e-05 0.112565)
(-0.00324378 0.000470407 0.0180605)
(-0.00033584 0.000392561 0.0720144)
(0.000268508 -9.22933e-05 0.112112)
(-3.93894e-05 5.68673e-05 0.114268)
(-8.35611e-06 -1.97977e-05 0.11223)
(-1.43994e-05 1.49839e-06 0.112005)
(-2.68909e-05 1.48294e-05 0.112118)
(-1.95738e-05 1.75054e-05 0.112205)
(-2.60742e-05 2.60022e-05 0.112282)
(-1.95189e-05 3.03057e-05 0.112358)
(-2.20025e-05 3.58187e-05 0.112421)
(-1.32144e-05 3.93879e-05 0.112468)
(-1.21008e-05 4.22678e-05 0.112495)
(-1.55993e-06 4.368e-05 0.112509)
(-0.00881974 0.00185182 0.0309003)
(-0.000369541 -2.89837e-05 0.0875733)
(8.81423e-05 0.000100572 0.11354)
(-9.78878e-05 1.09554e-06 0.112685)
(6.25794e-06 8.84292e-07 0.111818)
(-2.07579e-05 1.41496e-05 0.111929)
(-9.98796e-06 1.04073e-05 0.11209)
(-1.7357e-05 1.98922e-05 0.112204)
(-8.6335e-06 2.26371e-05 0.1123)
(-1.2274e-05 2.26177e-05 0.112375)
(-4.64793e-06 2.44627e-05 0.112421)
(-6.33764e-06 2.28424e-05 0.112443)
(5.25801e-07 2.32885e-05 0.112453)
(-0.00451461 -0.000454863 0.019289)
(-0.000395529 0.000401389 0.0737021)
(0.000308225 -0.00013096 0.112349)
(-4.35014e-05 4.79871e-06 0.113788)
(-4.97478e-06 -4.96553e-05 0.111792)
(-1.93444e-05 2.0428e-05 0.111676)
(-1.38315e-05 2.11309e-05 0.111931)
(-1.40377e-05 2.76176e-05 0.112118)
(-1.69362e-05 3.74445e-05 0.112254)
(-2.02495e-05 4.47889e-05 0.112343)
(-1.29628e-05 5.13656e-05 0.112383)
(-1.32344e-05 5.59628e-05 0.112388)
(-1.21706e-06 5.8374e-05 0.112387)
(-0.00602595 0.000611504 0.0313706)
(-0.00034696 -0.00022896 0.0887119)
(5.36167e-05 0.000291862 0.113562)
(1.98199e-05 -1.91942e-05 0.112651)
(5.00458e-05 5.7821e-06 0.111794)
(-8.34193e-07 -5.74171e-06 0.111819)
(-6.22157e-07 1.50104e-05 0.112003)
(8.35742e-06 2.39811e-05 0.112199)
(1.3872e-06 6.78966e-06 0.112327)
(6.37373e-06 1.05652e-05 0.112361)
(5.60071e-07 -1.47588e-06 0.112336)
(3.03092e-06 -1.38398e-06 0.112306)
(-0.00422748 -0.00184792 0.014936)
(-0.000467162 0.00058777 0.0705391)
(0.000566591 -0.000567302 0.112484)
(-0.000291259 -5.29448e-05 0.113557)
(-3.74499e-06 4.46723e-05 0.113786)
(-9.50841e-07 9.92501e-05 0.112681)
(2.12789e-05 9.03854e-06 0.112226)
(-2.29186e-05 4.42264e-05 0.11219)
(-3.33813e-05 6.1335e-05 0.112285)
(-2.11372e-05 7.19815e-05 0.112311)
(-2.4897e-05 8.51068e-05 0.112237)
(-8.77363e-07 8.97945e-05 0.112156)
(0.00237946 -0.0116323 0.0165152)
(-0.000587305 0.000468229 0.0704851)
(0.000230039 0.000347261 0.0886655)
(0.000131966 -0.000307844 0.112335)
(-0.000100957 -8.82792e-05 0.113531)
(-5.43948e-05 4.05677e-05 0.114261)
(6.58949e-05 6.5785e-05 0.113135)
(3.35513e-05 -4.65942e-05 0.112606)
(3.03828e-05 -2.70827e-05 0.112308)
(1.69011e-05 -7.19102e-05 0.112098)
(7.1955e-06 -6.80031e-05 0.11195)
(0.00417671 -0.0086172 0.0188623)
(-0.00140798 -0.000617354 0.027123)
(-0.00040114 0.000396545 0.0736917)
(2.96778e-05 0.000370113 0.0875617)
(9.33866e-05 -0.000267009 0.112107)
(-0.000179178 -4.85817e-05 0.114015)
(-0.00012839 0.000145255 0.114763)
(-3.96194e-05 0.000118262 0.113486)
(-6.18307e-05 0.000157676 0.112551)
(4.13369e-06 0.000161821 0.112298)
(-0.00215718 0.00141632 0.0296283)
(-0.00447129 0.000427966 0.0268414)
(-0.000391491 0.000335749 0.0720126)
(0.000188852 0.00027766 0.0885555)
(0.000150434 -0.000385077 0.113397)
(3.54958e-05 -0.000101425 0.116116)
(5.51934e-05 -0.000221355 0.113266)
(9.03754e-06 -0.000185321 0.112805)
(-0.00252125 0.000425856 0.0166175)
(-0.00269699 0.00157939 0.0314673)
(-0.00433701 -0.000176253 0.0269582)
(-0.000341844 0.000494338 0.0751794)
(0.000116153 0.000172535 0.0937035)
(-9.38164e-05 0.000267912 0.0888432)
(3.58683e-05 0.000260164 0.0881818)
(-0.00230313 -0.00657574 0.0221067)
(0.00298142 -0.00668514 0.0250902)
(-0.00108355 0.00152441 0.0320781)
(0.000151157 0.00147859 0.0293464)
(-0.00497609 2.34268e-06 0.0217248)
(-0.000258137 -5.67011e-05 0.0881913)
(0.000183191 -1.96781e-06 0.112812)
(-0.000155574 -1.43957e-05 0.112307)
(6.95513e-05 -1.62485e-06 0.111954)
(-8.51801e-05 -4.56374e-06 0.11216)
(9.05772e-06 -2.34219e-06 0.112307)
(-5.10729e-05 -1.49009e-06 0.112385)
(-1.62367e-05 -1.69115e-06 0.112449)
(-3.70502e-05 -7.9164e-07 0.112503)
(-1.86714e-05 -9.65191e-07 0.112557)
(-2.50967e-05 -3.43533e-07 0.11261)
(-1.20307e-05 -1.88192e-07 0.112662)
(-1.22563e-05 2.06244e-08 0.112711)
(-1.04825e-06 1.1112e-07 0.112744)
(-0.00467406 -0.000709851 0.0197394)
(-0.000249756 7.99896e-05 0.0888436)
(0.000236946 -6.40252e-05 0.113279)
(-0.000150386 4.92095e-05 0.11256)
(8.11515e-05 -2.3061e-05 0.112104)
(-8.38462e-05 1.83239e-05 0.112241)
(1.33533e-05 -4.08713e-06 0.112338)
(-4.96166e-05 7.24637e-06 0.112387)
(-1.52787e-05 2.2891e-06 0.11244)
(-3.60023e-05 6.76341e-06 0.11249)
(-1.80431e-05 6.63288e-06 0.112543)
(-2.41849e-05 9.0314e-06 0.112595)
(-1.17415e-05 9.6431e-06 0.112644)
(-1.20161e-05 1.06212e-05 0.112686)
(-1.00398e-06 1.10346e-05 0.112711)
(-0.00127444 -0.0014997 0.0104444)
(-0.000167359 -0.000106271 0.0937112)
(0.000104302 -3.97633e-05 0.116124)
(-0.000108713 4.16693e-05 0.113498)
(3.47745e-05 -3.52528e-05 0.112315)
(-6.4662e-05 1.84486e-05 0.112318)
(-2.31034e-06 -9.89596e-06 0.112364)
(-4.45784e-05 8.82886e-06 0.112384)
(-1.67541e-05 1.2708e-06 0.112419)
(-3.26869e-05 8.89641e-06 0.112463)
(-1.6397e-05 7.37024e-06 0.112515)
(-2.20827e-05 1.02302e-05 0.112565)
(-1.04389e-05 1.00459e-05 0.112611)
(-1.08633e-05 1.09651e-05 0.112645)
(-6.47885e-07 1.09779e-05 0.112663)
(-0.000487549 0.000341264 0.075185)
(0.000391024 -0.000148746 0.113408)
(-0.00013843 0.000127526 0.114772)
(5.11371e-05 -3.99239e-05 0.112615)
(-5.86421e-05 2.88525e-05 0.112291)
(3.62192e-06 -7.09599e-06 0.112331)
(-3.82977e-05 1.44717e-05 0.112343)
(-1.52382e-05 7.47013e-06 0.112374)
(-2.98917e-05 1.66015e-05 0.112419)
(-1.67049e-05 1.60315e-05 0.112472)
(-2.15092e-05 2.02423e-05 0.112523)
(-1.10052e-05 2.13435e-05 0.112565)
(-1.10823e-05 2.31641e-05 0.112595)
(-1.00132e-06 2.37711e-05 0.11261)
(-0.00588827 0.00143297 0.0290458)
(-0.000276665 -0.000191915 0.0885626)
(5.04013e-05 0.000179879 0.114025)
(-6.16213e-05 -7.15121e-05 0.113144)
(-3.62589e-05 2.28337e-05 0.112198)
(-1.70006e-05 -1.23259e-05 0.112203)
(-2.9777e-05 1.2842e-05 0.112255)
(-1.45661e-05 3.94781e-06 0.112299)
(-2.41196e-05 1.42405e-05 0.112355)
(-1.27444e-05 1.30161e-05 0.112416)
(-1.67696e-05 1.64148e-05 0.11247)
(-7.51424e-06 1.65654e-05 0.112514)
(-8.43591e-06 1.73165e-05 0.112542)
(-4.5998e-08 1.73754e-05 0.112557)
(-0.00324392 0.000470643 0.0180609)
(-0.000335635 0.00039255 0.072018)
(0.000270912 -9.19356e-05 0.112118)
(-3.65438e-05 5.66591e-05 0.114272)
(-4.66505e-06 -2.25004e-05 0.112233)
(-8.62761e-06 -9.97251e-07 0.112006)
(-2.18592e-05 1.09603e-05 0.112119)
(-1.37097e-05 1.28133e-05 0.112204)
(-2.08289e-05 2.0702e-05 0.11228)
(-1.45283e-05 2.41531e-05 0.112355)
(-1.7971e-05 2.93311e-05 0.112417)
(-1.01052e-05 3.2372e-05 0.112463)
(-1.02748e-05 3.50912e-05 0.11249)
(-9.63138e-07 3.62516e-05 0.112503)
(-0.00881963 0.00185159 0.0309012)
(-0.000368547 -2.8873e-05 0.0875774)
(8.97733e-05 9.88182e-05 0.113545)
(-9.50899e-05 -2.90916e-07 0.112689)
(1.08689e-05 -2.69914e-06 0.111822)
(-1.64101e-05 1.05746e-05 0.11193)
(-4.63957e-06 4.85637e-06 0.11209)
(-1.27815e-05 1.41177e-05 0.112203)
(-4.11038e-06 1.60285e-05 0.112298)
(-8.55951e-06 1.56186e-05 0.112372)
(-1.76198e-06 1.68154e-05 0.112417)
(-4.57331e-06 1.47506e-05 0.112439)
(1.13045e-06 1.49147e-05 0.112448)
(-0.00451461 -0.000454746 0.0192894)
(-0.000395309 0.000402126 0.073706)
(0.000309664 -0.00013234 0.112354)
(-4.16061e-05 3.96974e-06 0.113792)
(-1.38078e-06 -5.27515e-05 0.111795)
(-1.62842e-05 1.74177e-05 0.111678)
(-1.01667e-05 1.65814e-05 0.111932)
(-9.8475e-06 2.29054e-05 0.112119)
(-1.31578e-05 3.08718e-05 0.112254)
(-1.72478e-05 3.80625e-05 0.112342)
(-1.09438e-05 4.37769e-05 0.112381)
(-1.2135e-05 4.84151e-05 0.112386)
(-8.65767e-07 5.06435e-05 0.112384)
(-0.00602624 0.000611896 0.0313717)
(-0.000346839 -0.00023018 0.0887157)
(5.4722e-05 0.000290144 0.113566)
(2.2257e-05 -2.17653e-05 0.112654)
(5.29428e-05 2.19907e-06 0.111797)
(2.81513e-06 -1.05073e-05 0.111822)
(1.93792e-06 9.47664e-06 0.112004)
(1.08785e-05 1.74298e-05 0.1122)
(4.10183e-06 -1.62365e-06 0.112327)
(8.44257e-06 1.30354e-06 0.112361)
(2.17994e-06 -1.13651e-05 0.112335)
(3.42091e-06 -1.15823e-05 0.112306)
(-0.00422757 -0.00184818 0.0149362)
(-0.00046775 0.000587356 0.0705422)
(0.000567242 -0.000567672 0.11249)
(-0.000289525 -5.40069e-05 0.113562)
(-2.85981e-06 4.2814e-05 0.11379)
(7.6028e-07 9.65851e-05 0.112685)
(2.36759e-05 5.14054e-06 0.112229)
(-2.20196e-05 3.9443e-05 0.112193)
(-3.30816e-05 5.7237e-05 0.112288)
(-2.0579e-05 6.813e-05 0.112313)
(-2.47164e-05 8.1266e-05 0.112239)
(-7.94562e-07 8.61101e-05 0.112158)
(0.00238244 -0.011634 0.0165122)
(-0.000588115 0.00046838 0.0704886)
(0.000230809 0.000346945 0.0886692)
(0.000133291 -0.000309259 0.11234)
(-9.93322e-05 -8.98681e-05 0.113535)
(-5.3974e-05 3.74724e-05 0.114265)
(6.82092e-05 6.15557e-05 0.113139)
(3.72014e-05 -5.0594e-05 0.112609)
(3.26707e-05 -3.22234e-05 0.11231)
(1.86443e-05 -7.64068e-05 0.112099)
(7.6885e-06 -7.29298e-05 0.111952)
(0.00417705 -0.00861793 0.0188634)
(-0.00140808 -0.000617578 0.0271248)
(-0.000401582 0.000396484 0.0736955)
(2.97166e-05 0.000369391 0.0875656)
(9.31586e-05 -0.000269175 0.112112)
(-0.000179263 -5.04206e-05 0.11402)
(-0.000129023 0.00014119 0.114767)
(-3.95325e-05 0.000114423 0.113491)
(-6.14301e-05 0.000152252 0.112555)
(3.78983e-06 0.000157015 0.112303)
(-0.00215681 0.00141673 0.0296292)
(-0.00447131 0.00042812 0.026842)
(-0.000391375 0.000335814 0.0720159)
(0.000189384 0.0002771 0.088559)
(0.000152054 -0.000386502 0.113402)
(3.6372e-05 -0.00010255 0.11612)
(5.59e-05 -0.000223045 0.113271)
(1.01867e-05 -0.00018677 0.112809)
(-0.00252147 0.000425821 0.016618)
(-0.00269708 0.00157932 0.0314684)
(-0.00433744 -0.000176801 0.0269589)
(-0.000342804 0.000493676 0.0751834)
(0.000116024 0.000170998 0.0937087)
(-9.37567e-05 0.000267468 0.0888479)
(3.56172e-05 0.000259171 0.0881868)
(-0.00230259 -0.00657586 0.0221071)
(0.00298148 -0.006685 0.025091)
(-0.00108337 0.00152483 0.032079)
(0.000150988 0.00147909 0.0293473)
(-0.00497865 6.09689e-06 0.0217198)
(-0.000257934 -5.61557e-05 0.0881926)
(0.000183112 -1.23228e-06 0.112818)
(-0.000151881 -1.41437e-05 0.112311)
(7.30112e-05 -1.70855e-06 0.111956)
(-8.20217e-05 -4.56073e-06 0.112162)
(1.66775e-05 -2.24355e-06 0.112307)
(-4.5635e-05 -1.87889e-06 0.112383)
(-9.3654e-06 -1.96179e-06 0.112445)
(-3.12164e-05 -1.14679e-06 0.112499)
(-1.31886e-05 -1.36093e-06 0.112551)
(-2.08083e-05 -9.95223e-07 0.112603)
(-8.91029e-06 -8.26198e-07 0.112655)
(-1.04162e-05 -6.27144e-07 0.112703)
(-7.04167e-07 -2.26975e-07 0.112735)
(-0.00467252 -0.000710708 0.0197425)
(-0.000248225 7.96692e-05 0.0888562)
(0.000238022 -6.46414e-05 0.113285)
(-0.000147361 4.88036e-05 0.112568)
(8.46241e-05 -2.45905e-05 0.112106)
(-8.04443e-05 1.8456e-05 0.112244)
(2.06897e-05 -5.61495e-06 0.112339)
(-4.45804e-05 6.93026e-06 0.112385)
(-8.26261e-06 1.15905e-06 0.112436)
(-3.0222e-05 5.25171e-06 0.112486)
(-1.30104e-05 4.64518e-06 0.112537)
(-2.0149e-05 6.87591e-06 0.112588)
(-8.56336e-06 7.52245e-06 0.112637)
(-1.00887e-05 8.49201e-06 0.112678)
(-3.81604e-07 8.94661e-06 0.112703)
(-0.00127423 -0.00149917 0.0104452)
(-0.000166147 -0.000106184 0.0937196)
(0.00010431 -4.09435e-05 0.116135)
(-0.00010597 4.1646e-05 0.113505)
(3.87271e-05 -3.66527e-05 0.112319)
(-6.14705e-05 1.75893e-05 0.112321)
(4.84808e-06 -1.18943e-05 0.112365)
(-3.87365e-05 7.28225e-06 0.112382)
(-1.10784e-05 -9.71021e-07 0.112416)
(-2.77112e-05 6.27595e-06 0.11246)
(-1.15586e-05 4.44116e-06 0.112509)
(-1.79272e-05 7.32173e-06 0.112559)
(-7.29193e-06 6.97854e-06 0.112604)
(-8.9906e-06 7.82967e-06 0.112637)
(-1.77522e-08 7.77815e-06 0.112655)
(-0.000486369 0.000341606 0.0751912)
(0.000392156 -0.000150055 0.113414)
(-0.000135527 0.000127749 0.114779)
(5.37286e-05 -4.28476e-05 0.112618)
(-5.58185e-05 2.84995e-05 0.112294)
(1.02562e-05 -9.46933e-06 0.112331)
(-3.35027e-05 1.17114e-05 0.112342)
(-9.29766e-06 4.16275e-06 0.112371)
(-2.47997e-05 1.30695e-05 0.112416)
(-1.19603e-05 1.23925e-05 0.112467)
(-1.76112e-05 1.63043e-05 0.112518)
(-8.05405e-06 1.7179e-05 0.112559)
(-9.28747e-06 1.88785e-05 0.112589)
(-4.24416e-07 1.94311e-05 0.112604)
(-0.00588819 0.00143319 0.0290465)
(-0.000275898 -0.000192845 0.0885669)
(5.1795e-05 0.000180009 0.114031)
(-5.82385e-05 -7.39819e-05 0.113148)
(-3.25418e-05 2.24267e-05 0.112201)
(-1.22618e-05 -1.50358e-05 0.112205)
(-2.48782e-05 1.02041e-05 0.112256)
(-9.66358e-06 4.62051e-07 0.112298)
(-1.94774e-05 1.02779e-05 0.112353)
(-8.31281e-06 8.66697e-06 0.112412)
(-1.31399e-05 1.16862e-05 0.112466)
(-4.71495e-06 1.15088e-05 0.112509)
(-6.73881e-06 1.20745e-05 0.112537)
(5.29047e-07 1.19682e-05 0.112551)
(-0.00324404 0.000470786 0.0180616)
(-0.000335498 0.000392513 0.072021)
(0.000272507 -9.18541e-05 0.112123)
(-3.4383e-05 5.64104e-05 0.114276)
(-2.09802e-06 -2.48075e-05 0.112237)
(-4.24041e-06 -2.85782e-06 0.112007)
(-1.78514e-05 7.34353e-06 0.112119)
(-9.10005e-06 9.17031e-06 0.112203)
(-1.66013e-05 1.64647e-05 0.112279)
(-1.05493e-05 1.93257e-05 0.112352)
(-1.47799e-05 2.42508e-05 0.112414)
(-7.66642e-06 2.68232e-05 0.112459)
(-8.8299e-06 2.94123e-05 0.112486)
(-5.53108e-07 3.04251e-05 0.112499)
(-0.00881952 0.00185156 0.0309019)
(-0.000368017 -2.88459e-05 0.0875809)
(9.0794e-05 9.7338e-05 0.113548)
(-9.29666e-05 -1.5305e-06 0.112693)
(1.42921e-05 -5.42839e-06 0.111824)
(-1.33055e-05 7.5332e-06 0.111931)
(-3.59112e-07 2.65737e-07 0.11209)
(-9.32384e-06 9.59201e-06 0.112202)
(-5.20387e-07 1.08554e-05 0.112296)
(-5.64886e-06 9.74524e-06 0.112369)
(4.40002e-07 1.03683e-05 0.112414)
(-3.15311e-06 7.76164e-06 0.112435)
(1.58082e-06 7.75187e-06 0.112445)
(-0.00451461 -0.000454736 0.0192901)
(-0.000395279 0.000402602 0.0737091)
(0.00031068 -0.000133687 0.112357)
(-4.02565e-05 3.26968e-06 0.113796)
(1.20474e-06 -5.54639e-05 0.111797)
(-1.41471e-05 1.52932e-05 0.11168)
(-7.04057e-06 1.32215e-05 0.111933)
(-6.2e-06 1.91702e-05 0.112119)
(-1.05196e-05 2.5618e-05 0.112253)
(-1.53279e-05 3.31519e-05 0.11234)
(-9.61996e-06 3.82723e-05 0.112379)
(-1.14053e-05 4.32376e-05 0.112384)
(-5.98403e-07 4.54029e-05 0.112381)
(-0.00602639 0.000611926 0.0313727)
(-0.000346726 -0.000231077 0.0887184)
(5.55415e-05 0.000288784 0.11357)
(2.42636e-05 -2.37989e-05 0.112657)
(5.53975e-05 -4.65864e-07 0.1118)
(5.48922e-06 -1.41791e-05 0.111824)
(3.51247e-06 4.97374e-06 0.112005)
(1.33052e-05 1.19838e-05 0.1122)
(6.77321e-06 -8.18844e-06 0.112328)
(1.0376e-05 -5.82343e-06 0.112362)
(3.85763e-06 -1.86975e-05 0.112336)
(3.81453e-06 -1.92875e-05 0.112306)
(-0.00422765 -0.0018482 0.0149367)
(-0.000467848 0.000587331 0.0705448)
(0.000567628 -0.000568145 0.112494)
(-0.000288224 -5.48052e-05 0.113565)
(-2.35856e-06 4.12718e-05 0.113793)
(2.03805e-06 9.44008e-05 0.112687)
(2.55506e-05 2.27233e-06 0.112231)
(-2.14344e-05 3.60619e-05 0.112194)
(-3.283e-05 5.39954e-05 0.11229)
(-2.0009e-05 6.50471e-05 0.112315)
(-2.45516e-05 7.76092e-05 0.112241)
(-8.51259e-07 8.30773e-05 0.112159)
(0.00238136 -0.011634 0.0165138)
(-0.000587711 0.00046943 0.0704911)
(0.000231716 0.000347259 0.088672)
(0.000134428 -0.000310312 0.112343)
(-9.7996e-05 -9.09662e-05 0.113538)
(-5.36257e-05 3.50535e-05 0.114268)
(7.02605e-05 5.84591e-05 0.113141)
(4.01806e-05 -5.3595e-05 0.112611)
(3.41655e-05 -3.61607e-05 0.112312)
(2.03373e-05 -8.01586e-05 0.1121)
(8.64509e-06 -7.67136e-05 0.111953)
(0.0041772 -0.00861797 0.0188641)
(-0.00140801 -0.00061768 0.0271255)
(-0.00040213 0.000396549 0.0736982)
(2.96954e-05 0.000368703 0.0875685)
(9.30217e-05 -0.000270864 0.112116)
(-0.00017934 -5.18691e-05 0.114024)
(-0.00012963 0.000137902 0.114771)
(-3.96784e-05 0.000111513 0.113495)
(-6.10822e-05 0.000148517 0.112559)
(3.64891e-06 0.000152915 0.112306)
(-0.00215693 0.00141707 0.0296301)
(-0.00447147 0.000428274 0.0268426)
(-0.000391126 0.000335923 0.0720183)
(0.000189926 0.000276551 0.0885617)
(0.00015356 -0.000387638 0.113406)
(3.73809e-05 -0.000103323 0.116124)
(5.63725e-05 -0.000224134 0.113274)
(1.07932e-05 -0.000187957 0.112812)
(-0.00252149 0.000425818 0.0166186)
(-0.00269736 0.00157937 0.0314694)
(-0.00433769 -0.000177243 0.0269594)
(-0.000343415 0.000492835 0.0751866)
(0.000115998 0.000169554 0.0937127)
(-9.38278e-05 0.000266461 0.0888515)
(3.53028e-05 0.000258197 0.0881904)
(-0.00230269 -0.00657599 0.0221078)
(0.00298204 -0.0066848 0.0250917)
(-0.00108338 0.00152496 0.0320798)
(0.000151131 0.00147944 0.0293478)
(-0.0049781 3.39851e-06 0.0217194)
(-0.000256524 -5.36667e-05 0.0881942)
(0.000184793 -2.09547e-06 0.112823)
(-0.000149006 -1.31294e-05 0.112315)
(7.5888e-05 -2.03512e-06 0.111958)
(-7.95673e-05 -4.11881e-06 0.112163)
(2.24222e-05 -2.21101e-06 0.112308)
(-4.21247e-05 -2.08375e-06 0.112381)
(-3.39568e-06 -2.21173e-06 0.112442)
(-2.66744e-05 -1.4602e-06 0.112496)
(-8.92397e-06 -1.63351e-06 0.112546)
(-1.71963e-05 -1.25365e-06 0.112598)
(-6.34156e-06 -1.23923e-06 0.112649)
(-8.83291e-06 -1.09629e-06 0.112697)
(-2.61455e-07 -6.26891e-07 0.112729)
(-0.00467438 -0.000708968 0.0197454)
(-0.000252009 8.1549e-05 0.0888679)
(0.000235593 -6.45601e-05 0.11329)
(-0.000144336 4.93592e-05 0.112574)
(8.70693e-05 -2.58801e-05 0.112107)
(-7.74332e-05 1.88258e-05 0.112247)
(2.57863e-05 -6.93369e-06 0.112339)
(-4.13627e-05 6.81278e-06 0.112383)
(-2.33469e-06 2.90211e-07 0.112433)
(-2.56196e-05 4.37092e-06 0.112483)
(-8.7195e-06 3.34163e-06 0.112532)
(-1.6728e-05 5.20886e-06 0.112584)
(-6.18406e-06 5.75727e-06 0.112631)
(-8.48381e-06 6.71573e-06 0.112673)
(1.18837e-07 7.1732e-06 0.112698)
(-0.00127435 -0.00150018 0.010446)
(-0.000167239 -0.000107914 0.0937272)
(0.000103606 -4.17575e-05 0.116144)
(-0.000104664 4.14502e-05 0.113511)
(4.13925e-05 -3.80286e-05 0.112322)
(-5.9011e-05 1.71146e-05 0.112323)
(1.00954e-05 -1.36858e-05 0.112366)
(-3.47699e-05 6.20506e-06 0.112381)
(-5.87313e-06 -2.74729e-06 0.112414)
(-2.36046e-05 4.41266e-06 0.112458)
(-8.08068e-06 2.32898e-06 0.112506)
(-1.4777e-05 4.99187e-06 0.112555)
(-4.8324e-06 4.62855e-06 0.112599)
(-7.41549e-06 5.42984e-06 0.112632)
(4.27192e-07 5.3406e-06 0.112649)
(-0.000487402 0.000342287 0.0751965)
(0.00039174 -0.000151806 0.113419)
(-0.000133083 0.000127985 0.114784)
(5.582e-05 -4.52254e-05 0.112619)
(-5.32106e-05 2.83576e-05 0.112298)
(1.47416e-05 -1.17089e-05 0.112332)
(-3.02647e-05 1.03482e-05 0.112342)
(-4.15733e-06 1.82645e-06 0.112369)
(-2.05353e-05 1.00158e-05 0.112414)
(-8.13662e-06 9.36171e-06 0.112464)
(-1.44277e-05 1.31567e-05 0.112514)
(-5.7447e-06 1.38583e-05 0.112555)
(-7.7706e-06 1.53661e-05 0.112584)
(2.81667e-08 1.59301e-05 0.112599)
(-0.00588837 0.0014332 0.0290473)
(-0.000275976 -0.000192827 0.0885703)
(5.25825e-05 0.000180009 0.114036)
(-5.60002e-05 -7.57078e-05 0.113152)
(-2.99681e-05 2.18878e-05 0.112204)
(-8.24365e-06 -1.78518e-05 0.112206)
(-2.10125e-05 8.56124e-06 0.112257)
(-6.14772e-06 -2.30369e-06 0.112297)
(-1.60679e-05 7.20409e-06 0.112352)
(-4.92978e-06 5.3017e-06 0.112409)
(-1.02801e-05 7.96586e-06 0.112463)
(-2.62033e-06 7.49006e-06 0.112505)
(-5.34409e-06 7.92231e-06 0.112532)
(9.95208e-07 7.74827e-06 0.112546)
(-0.00324417 0.000470757 0.0180621)
(-0.000335833 0.000392578 0.0720235)
(0.000273351 -9.21762e-05 0.112127)
(-3.28074e-05 5.59473e-05 0.114278)
(-6.00932e-07 -2.6777e-05 0.11224)
(-8.67698e-07 -4.41539e-06 0.112007)
(-1.45704e-05 4.22246e-06 0.11212)
(-5.39518e-06 6.40133e-06 0.112202)
(-1.29374e-05 1.30849e-05 0.112278)
(-7.37173e-06 1.54342e-05 0.11235)
(-1.22491e-05 2.01204e-05 0.112412)
(-5.78832e-06 2.23107e-05 0.112456)
(-7.5138e-06 2.48494e-05 0.112483)
(-1.65404e-07 2.5765e-05 0.112496)
(-0.00881944 0.00185169 0.0309026)
(-0.000368039 -2.90496e-05 0.0875836)
(9.14045e-05 9.60445e-05 0.113551)
(-9.1486e-05 -2.68012e-06 0.112695)
(1.7153e-05 -7.18815e-06 0.111825)
(-1.06556e-05 4.82937e-06 0.111933)
(2.8982e-06 -3.04372e-06 0.112091)
(-7.0364e-06 5.91254e-06 0.112202)
(2.11329e-06 6.37571e-06 0.112295)
(-3.40673e-06 4.56535e-06 0.112368)
(2.10436e-06 4.68635e-06 0.112412)
(-1.90454e-06 1.69506e-06 0.112433)
(2.01724e-06 1.48285e-06 0.112442)
(-0.00451459 -0.000454734 0.0192905)
(-0.000395366 0.000402738 0.0737113)
(0.000311488 -0.000135013 0.11236)
(-3.92126e-05 2.59564e-06 0.113798)
(3.01649e-06 -5.77216e-05 0.111799)
(-1.2424e-05 1.34928e-05 0.111681)
(-4.31004e-06 1.03043e-05 0.111934)
(-3.70471e-06 1.59816e-05 0.112119)
(-8.83856e-06 2.17589e-05 0.112252)
(-1.39976e-05 2.98481e-05 0.112339)
(-8.62771e-06 3.46559e-05 0.112377)
(-1.06751e-05 3.99699e-05 0.112382)
(-4.16242e-07 4.20799e-05 0.11238)
(-0.00602659 0.000611904 0.0313732)
(-0.000346411 -0.000231917 0.0887205)
(5.61566e-05 0.000287518 0.113572)
(2.59933e-05 -2.55303e-05 0.112659)
(5.7384e-05 -2.4904e-06 0.111802)
(7.36381e-06 -1.71792e-05 0.111825)
(4.86686e-06 1.39565e-06 0.112006)
(1.58318e-05 7.89342e-06 0.112201)
(9.26426e-06 -1.29199e-05 0.112328)
(1.20717e-05 -1.10147e-05 0.112362)
(5.39233e-06 -2.39744e-05 0.112336)
(4.14287e-06 -2.51177e-05 0.112307)
(-0.00422776 -0.00184822 0.014937)
(-0.000467723 0.000586915 0.0705465)
(0.000567966 -0.000568549 0.112497)
(-0.000287171 -5.55075e-05 0.113568)
(-1.92167e-06 3.98935e-05 0.113796)
(3.2037e-06 9.27918e-05 0.11269)
(2.69621e-05 2.49433e-07 0.112233)
(-2.08964e-05 3.34525e-05 0.112196)
(-3.25899e-05 5.11041e-05 0.112291)
(-1.95525e-05 6.24725e-05 0.112316)
(-2.445e-05 7.45442e-05 0.112242)
(-1.17684e-06 8.02684e-05 0.112161)
(0.00238193 -0.0116344 0.0165133)
(-0.000587665 0.000469638 0.0704931)
(0.000232414 0.00034702 0.0886741)
(0.000135475 -0.000311374 0.112346)
(-9.68187e-05 -9.18536e-05 0.11354)
(-5.32946e-05 3.31297e-05 0.11427)
(7.19233e-05 5.62846e-05 0.113144)
(4.27164e-05 -5.60454e-05 0.112612)
(3.56663e-05 -3.91474e-05 0.112313)
(2.16055e-05 -8.31188e-05 0.112101)
(9.19771e-06 -7.97391e-05 0.111954)
(0.00417727 -0.00861832 0.0188642)
(-0.00140774 -0.000617624 0.0271253)
(-0.000402357 0.000396165 0.0737002)
(2.98655e-05 0.000368026 0.0875707)
(9.30869e-05 -0.000272165 0.112119)
(-0.000179396 -5.29473e-05 0.114027)
(-0.000130217 0.000135389 0.114774)
(-3.97045e-05 0.000109099 0.113498)
(-6.1e-05 0.000144838 0.112562)
(3.22397e-06 0.000149391 0.112309)
(-0.00215697 0.00141728 0.0296305)
(-0.00447138 0.000428181 0.0268429)
(-0.000390867 0.000336001 0.0720202)
(0.000190405 0.000276172 0.0885639)
(0.000154744 -0.000388501 0.113409)
(3.76953e-05 -0.000103871 0.116127)
(5.65254e-05 -0.000225238 0.113276)
(1.14901e-05 -0.000188985 0.112814)
(-0.00252159 0.00042589 0.0166189)
(-0.00269736 0.00157923 0.03147)
(-0.00433799 -0.000177581 0.02696)
(-0.000344023 0.00049216 0.0751892)
(0.000115862 0.000168401 0.0937161)
(-9.40606e-05 0.000265891 0.0888544)
(3.49502e-05 0.000257115 0.0881931)
(-0.00230259 -0.00657606 0.0221083)
(0.00298234 -0.00668459 0.0250922)
(-0.00108339 0.00152514 0.0320805)
(0.000151225 0.00147962 0.0293483)
(-0.00497746 1.25247e-06 0.021723)
(-0.000255981 -5.00716e-05 0.088197)
(0.000186671 -4.35698e-06 0.112827)
(-0.000147372 -1.16033e-05 0.112317)
(7.84287e-05 -3.09225e-06 0.111959)
(-7.75488e-05 -3.64032e-06 0.112165)
(2.67256e-05 -2.36487e-06 0.112308)
(-4.00917e-05 -2.17852e-06 0.11238)
(1.83507e-06 -2.40309e-06 0.11244)
(-2.29294e-05 -1.68851e-06 0.112493)
(-5.6696e-06 -1.85292e-06 0.112542)
(-1.4173e-05 -1.41435e-06 0.112594)
(-4.16113e-06 -1.45128e-06 0.112644)
(-7.30015e-06 -1.34523e-06 0.112693)
(5.09217e-07 -1.20333e-06 0.112725)
(-0.0046768 -0.000707492 0.0197466)
(-0.000257112 8.38738e-05 0.0888758)
(0.000232287 -6.3894e-05 0.113294)
(-0.000141403 5.05568e-05 0.112579)
(8.86204e-05 -2.68161e-05 0.112108)
(-7.4251e-05 1.91457e-05 0.112248)
(2.9474e-05 -8.00761e-06 0.112338)
(-3.93446e-05 6.73244e-06 0.112383)
(2.79415e-06 -3.39387e-07 0.112431)
(-2.18982e-05 3.8926e-06 0.11248)
(-5.32093e-06 2.71902e-06 0.112528)
(-1.3692e-05 4.26929e-06 0.11258)
(-4.09938e-06 4.53392e-06 0.112627)
(-7.09974e-06 5.19443e-06 0.112668)
(4.97652e-07 5.54441e-06 0.112693)
(-0.00127455 -0.00150138 0.0104464)
(-0.000167601 -0.000110704 0.0937327)
(0.000103452 -4.09675e-05 0.11615)
(-0.000104739 4.13488e-05 0.113516)
(4.30554e-05 -3.86628e-05 0.112324)
(-5.71017e-05 1.69823e-05 0.112325)
(1.39914e-05 -1.52194e-05 0.112367)
(-3.22865e-05 5.42706e-06 0.11238)
(-1.0417e-06 -4.11729e-06 0.112412)
(-1.98538e-05 2.89333e-06 0.112456)
(-5.28752e-06 6.91559e-07 0.112503)
(-1.23544e-05 3.22977e-06 0.112553)
(-3.23349e-06 2.73239e-06 0.112595)
(-6.28829e-06 3.3908e-06 0.112628)
(8.14186e-07 3.43946e-06 0.112645)
(-0.000488404 0.000343247 0.0752004)
(0.000391547 -0.000154275 0.113422)
(-0.000131656 0.000128178 0.114788)
(5.72583e-05 -4.72049e-05 0.112621)
(-5.09191e-05 2.84526e-05 0.1123)
(1.77777e-05 -1.34381e-05 0.112332)
(-2.80784e-05 9.68351e-06 0.112341)
(2.28813e-07 1.73213e-07 0.112368)
(-1.7084e-05 7.70812e-06 0.112411)
(-4.98164e-06 6.68261e-06 0.112461)
(-1.16505e-05 1.01871e-05 0.112511)
(-3.93695e-06 1.08134e-05 0.112551)
(-6.39211e-06 1.22834e-05 0.11258)
(4.9905e-07 1.29386e-05 0.112594)
(-0.00588857 0.00143389 0.0290475)
(-0.00027626 -0.000193139 0.0885728)
(5.28801e-05 0.000179616 0.114039)
(-5.45017e-05 -7.69799e-05 0.113154)
(-2.7821e-05 2.13291e-05 0.112206)
(-5.11123e-06 -2.04138e-05 0.112208)
(-1.84543e-05 7.19625e-06 0.112257)
(-2.95859e-06 -4.60563e-06 0.112296)
(-1.33456e-05 4.66355e-06 0.112351)
(-2.79819e-06 2.49478e-06 0.112408)
(-8.223e-06 4.76423e-06 0.112461)
(-1.13453e-06 4.08972e-06 0.112502)
(-4.16356e-06 4.41406e-06 0.112529)
(1.45222e-06 4.15215e-06 0.112543)
(-0.00324414 0.000470771 0.0180624)
(-0.000336244 0.00039199 0.0720252)
(0.000273854 -9.28892e-05 0.11213)
(-3.15554e-05 5.52174e-05 0.11428)
(3.86778e-07 -2.83123e-05 0.112241)
(1.35853e-06 -5.87423e-06 0.112008)
(-1.21295e-05 2.06749e-06 0.11212)
(-2.18827e-06 4.44249e-06 0.112201)
(-9.99314e-06 9.91147e-06 0.112277)
(-4.87802e-06 1.22435e-05 0.112347)
(-1.00646e-05 1.68697e-05 0.11241)
(-4.28688e-06 1.87656e-05 0.112453)
(-6.33102e-06 2.14314e-05 0.112479)
(2.58274e-07 2.21675e-05 0.112493)
(-0.0088194 0.00185183 0.0309029)
(-0.00036767 -2.95353e-05 0.0875857)
(9.21184e-05 9.49706e-05 0.113553)
(-9.00798e-05 -3.75882e-06 0.112698)
(1.966e-05 -8.27455e-06 0.111827)
(-8.59727e-06 2.80498e-06 0.111935)
(5.07055e-06 -5.28946e-06 0.112091)
(-5.54571e-06 2.7343e-06 0.112203)
(4.1697e-06 2.59943e-06 0.112294)
(-1.70044e-06 3.43053e-07 0.112367)
(3.42483e-06 -1.18544e-07 0.112411)
(-7.75387e-07 -3.31377e-06 0.112432)
(2.25834e-06 -3.8702e-06 0.112441)
(-0.00451467 -0.000454786 0.0192906)
(-0.000394861 0.000402158 0.0737128)
(0.000312392 -0.000136148 0.112362)
(-3.82438e-05 1.81364e-06 0.1138)
(4.28454e-06 -5.98007e-05 0.111801)
(-1.11491e-05 1.17688e-05 0.111682)