/*--------------------------------*- C++ -*----------------------------------*\
| =========                 |                                                 |
| \\      /  F ield         | OpenFOAM: The Open Source CFD Toolbox           |
|  \\    /   O peration     | Version:  2.1.1                                 |
|   \\  /    A nd           | Web:      www.OpenFOAM.org                      |
|    \\/     M anipulation  |                                                 |
\*---------------------------------------------------------------------------*/
FoamFile
{
    version     2.0;
    format      ascii;
    class       volScalarField;
    location    "0.0035";
    object      p;
}
// * * * * * * * * * * * * * * * * * * * * * * * * * * * * * * * * * * * * * //

dimensions      [0 2 -2 0 0 0 0];

internalField   nonuniform List<scalar> 
10300
(
0.0555861
0.0558505
0.0546697
0.0553009
0.0549236
0.0520586
0.0518669
0.0519832
0.051954
0.0557799
0.0541309
0.0519833
0.05185
0.0517401
0.0517874
0.051743
0.0517491
0.0559335
0.0519888
0.051888
0.0518127
0.0518228
0.0518915
0.0518651
0.051899
0.0518927
0.0520779
0.0518502
0.0518061
0.0517956
0.0518513
0.0518268
0.0518146
0.0518126
0.0518046
0.0518026
0.0520748
0.0516924
0.0518591
0.0518451
0.051854
0.0518443
0.0518432
0.0518576
0.051854
0.0518637
0.0518632
0.0559363
0.0518492
0.0518583
0.0518461
0.0518359
0.0518311
0.0518388
0.0518326
0.0518331
0.0518302
0.0518295
0.0518286
0.0557793
0.0519876
0.0518054
0.0518445
0.051836
0.0518446
0.0518432
0.0518467
0.0518456
0.0518514
0.0518509
0.0518547
0.0518549
0.0541294
0.0518862
0.0517944
0.0518524
0.0518306
0.0518422
0.0518355
0.0518424
0.051839
0.0518426
0.051841
0.0518425
0.0518423
0.0552982
0.051981
0.0518103
0.05185
0.0518436
0.0518384
0.0518465
0.0518428
0.0518492
0.0518478
0.0518527
0.0518526
0.0518554
0.0518557
0.05492
0.0518467
0.0518199
0.0518245
0.05184
0.0518317
0.0518439
0.0518386
0.051847
0.0518447
0.0518497
0.051849
0.0518513
0.0518514
0.0520543
0.0517366
0.0518902
0.051812
0.0518577
0.0518323
0.0518511
0.0518424
0.0518527
0.0518501
0.051856
0.0518556
0.0518586
0.0518588
0.0518616
0.0517848
0.0518585
0.0518119
0.05185
0.0518297
0.0518492
0.0518408
0.0518519
0.051849
0.0518553
0.0518547
0.0518576
0.0518578
0.0558397
0.0519794
0.0517395
0.0518985
0.0518013
0.0518646
0.051829
0.0518547
0.0518428
0.0518557
0.0518518
0.0518587
0.051858
0.0518612
0.0518614
0.0546633
0.0519537
0.0517531
0.0518913
0.0518039
0.0518622
0.0518293
0.051855
0.0518428
0.0518557
0.0518517
0.0518588
0.0518579
0.0518612
0.0518612
0.0547849
0.0536039
0.0542349
0.0538579
0.0509931
0.0508019
0.0509192
0.0508895
0.054714
0.053065
0.0509171
0.0507838
0.0506739
0.0507214
0.0506824
0.050683
0.0548678
0.0509231
0.0508222
0.0507469
0.0507571
0.050826
0.0507995
0.0508296
0.050827
0.051009
0.0507836
0.0507399
0.0507292
0.0507848
0.0507607
0.0507475
0.050745
0.0507343
0.0507346
0.0510118
0.0506268
0.0507931
0.0507792
0.0507883
0.0507784
0.0507769
0.0507918
0.050788
0.0507976
0.0507973
0.0548705
0.0507833
0.0507925
0.0507799
0.0507696
0.0507645
0.0507719
0.050766
0.050766
0.050763
0.0507621
0.0507612
0.0547133
0.0509217
0.0507393
0.0507786
0.0507698
0.0507782
0.0507769
0.0507801
0.0507787
0.0507843
0.0507836
0.0507873
0.0507875
0.0530632
0.0508203
0.0507278
0.0507865
0.0507639
0.0507758
0.0507684
0.0507752
0.0507715
0.0507748
0.050773
0.0507743
0.050774
0.0542318
0.0509144
0.0507443
0.0507834
0.0507775
0.0507716
0.0507798
0.0507757
0.0507818
0.05078
0.0507846
0.0507843
0.0507869
0.0507871
0.0538537
0.0507799
0.0507538
0.0507582
0.0507735
0.0507649
0.0507769
0.0507711
0.0507791
0.0507763
0.050781
0.0507799
0.0507821
0.0507821
0.0509877
0.0506694
0.0508243
0.0507445
0.0507919
0.0507651
0.0507841
0.0507748
0.0507846
0.0507815
0.050787
0.0507863
0.050789
0.0507891
0.0507946
0.050717
0.050792
0.0507445
0.0507836
0.0507626
0.0507819
0.0507729
0.0507836
0.05078
0.0507859
0.0507849
0.0507876
0.0507876
0.0547669
0.0509111
0.050672
0.0508311
0.0507325
0.0507992
0.0507615
0.0507877
0.0507746
0.0507876
0.0507826
0.0507892
0.050788
0.050791
0.050791
0.0535941
0.0508879
0.050686
0.0508275
0.0507374
0.0507963
0.050762
0.0507872
0.0507745
0.0507866
0.0507824
0.0507891
0.0507878
0.0507908
0.0507908
0.0537189
0.052538
0.0531688
0.052792
0.0499271
0.0497357
0.0498513
0.0498229
0.053648
0.0519988
0.0498507
0.0497174
0.0496074
0.0496534
0.0496071
0.049615
0.053802
0.0498571
0.0497562
0.049681
0.0496913
0.0497602
0.0497346
0.0497686
0.0497622
0.0499448
0.0497175
0.0496736
0.0496627
0.0497183
0.0496944
0.0496806
0.0496788
0.0496725
0.049668
0.0499433
0.0495609
0.0497271
0.0497131
0.0497224
0.0497123
0.0497107
0.0497258
0.0497222
0.0497325
0.0497318
0.0538047
0.0497167
0.0497262
0.0497135
0.0497033
0.0496978
0.049705
0.0496993
0.0496987
0.0496959
0.0496945
0.0496936
0.0536472
0.0498557
0.0496729
0.0497124
0.0497034
0.0497117
0.0497104
0.0497132
0.0497117
0.0497172
0.0497164
0.0497202
0.0497203
0.0519969
0.0497542
0.0496612
0.0497205
0.0496971
0.0497094
0.0497012
0.049708
0.049704
0.049707
0.0497052
0.0497063
0.0497059
0.0531655
0.049848
0.0496783
0.0497167
0.0497113
0.0497048
0.0497129
0.0497085
0.0497143
0.0497123
0.0497167
0.0497161
0.0497185
0.0497187
0.0527876
0.0497134
0.0496877
0.0496918
0.0497072
0.0496982
0.0497097
0.0497037
0.0497113
0.0497082
0.0497125
0.0497112
0.0497132
0.0497131
0.0499217
0.0496028
0.0497585
0.0496773
0.0497259
0.0496977
0.0497171
0.0497071
0.0497167
0.049713
0.0497182
0.0497173
0.0497197
0.0497197
0.0497293
0.0496499
0.0497266
0.0496776
0.0497174
0.0496955
0.0497144
0.0497051
0.0497153
0.0497113
0.0497168
0.0497155
0.049718
0.0497179
0.0536983
0.0498451
0.0496039
0.0497661
0.0496654
0.049733
0.0496937
0.0497207
0.0497064
0.0497189
0.0497137
0.0497199
0.0497184
0.0497211
0.049721
0.0525281
0.0498218
0.0496183
0.0497611
0.0496699
0.0497308
0.0496945
0.04972
0.0497066
0.0497185
0.0497136
0.0497197
0.0497182
0.0497209
0.0497208
0.0526526
0.0514718
0.0521027
0.051726
0.0488613
0.0486705
0.0487878
0.0487581
0.0525818
0.0509326
0.0487843
0.0486509
0.0485409
0.048588
0.0485512
0.0485492
0.0527358
0.0487909
0.04869
0.0486148
0.0486252
0.0486942
0.0486684
0.048699
0.0486958
0.048877
0.0486509
0.0486072
0.0485961
0.0486516
0.0486278
0.0486135
0.0486105
0.0485971
0.0485994
0.0488786
0.0484948
0.0486607
0.0486467
0.0486563
0.0486457
0.0486443
0.0486595
0.0486556
0.0486645
0.0486652
0.0527385
0.0486504
0.0486601
0.0486471
0.0486368
0.0486311
0.0486384
0.0486327
0.0486314
0.0486286
0.0486267
0.0486258
0.0525811
0.0487896
0.0486065
0.0486462
0.0486369
0.0486452
0.0486438
0.0486463
0.0486447
0.0486503
0.0486493
0.048653
0.0486532
0.0509307
0.048688
0.0485946
0.0486545
0.0486305
0.0486429
0.0486342
0.0486405
0.0486369
0.0486397
0.0486376
0.0486384
0.0486379
0.0520996
0.0487816
0.0486124
0.0486501
0.048645
0.048638
0.0486461
0.0486414
0.0486468
0.0486447
0.0486488
0.048648
0.0486502
0.0486503
0.0517219
0.0486471
0.0486217
0.0486255
0.048641
0.0486316
0.0486427
0.0486365
0.0486436
0.0486402
0.0486442
0.0486428
0.0486446
0.0486445
0.0488561
0.0485363
0.0486926
0.0486105
0.0486597
0.0486304
0.0486503
0.0486395
0.0486487
0.0486446
0.0486496
0.0486484
0.0486507
0.0486507
0.0486628
0.0485838
0.0486623
0.0486112
0.0486515
0.0486283
0.0486473
0.0486375
0.0486471
0.0486427
0.0486479
0.0486465
0.0486487
0.0486486
0.0526355
0.0487782
0.0485408
0.0487032
0.0486005
0.0486667
0.048626
0.0486536
0.0486386
0.0486506
0.0486455
0.0486507
0.0486494
0.0486516
0.0486514
0.0514628
0.0487554
0.0485509
0.0486934
0.0486012
0.0486651
0.0486271
0.0486529
0.0486388
0.0486503
0.0486451
0.0486509
0.0486486
0.0486513
0.0486511
0.0515861
0.0504051
0.0510364
0.0506598
0.0477948
0.0476036
0.0477187
0.0476903
0.0515153
0.049866
0.0477177
0.0475843
0.0474743
0.0475193
0.047472
0.0474807
0.0516693
0.0477245
0.0476236
0.0475485
0.0475589
0.047628
0.0476028
0.0476356
0.0476305
0.0478117
0.0475845
0.0475406
0.0475294
0.0475849
0.0475613
0.0475467
0.0475448
0.0475403
0.0475335
0.047811
0.0474284
0.0475944
0.0475803
0.04759
0.0475791
0.0475778
0.0475931
0.0475898
0.0476004
0.0475995
0.051672
0.0475838
0.0475937
0.0475807
0.0475702
0.0475644
0.0475717
0.0475659
0.0475641
0.0475614
0.0475594
0.0475584
0.0515146
0.0477233
0.04754
0.0475799
0.0475703
0.0475787
0.0475771
0.0475794
0.0475778
0.0475831
0.0475823
0.0475858
0.0475861
0.0498643
0.0476218
0.0475281
0.0475883
0.0475639
0.0475762
0.0475674
0.0475739
0.0475696
0.047572
0.0475699
0.0475706
0.0475702
0.0510336
0.0477152
0.0475465
0.0475835
0.0475785
0.0475712
0.0475793
0.0475743
0.0475795
0.0475772
0.0475808
0.04758
0.0475819
0.0475821
0.0506562
0.0475809
0.0475558
0.0475592
0.047575
0.047565
0.0475759
0.0475694
0.0475761
0.0475726
0.0475761
0.0475746
0.0475762
0.047576
0.0477907
0.0474702
0.0476265
0.0475439
0.0475932
0.0475633
0.0475833
0.0475721
0.0475808
0.0475769
0.0475811
0.0475798
0.0475817
0.0475818
0.047598
0.0475172
0.0475972
0.0475441
0.0475859
0.0475612
0.0475804
0.04757
0.0475791
0.0475747
0.0475793
0.0475776
0.0475796
0.0475795
0.0515743
0.0477155
0.0474719
0.0476352
0.0475332
0.0476005
0.0475587
0.0475865
0.0475708
0.0475823
0.0475766
0.0475821
0.04758
0.0475822
0.047582
0.0503986
0.0476891
0.0474835
0.0476293
0.0475349
0.0475989
0.0475594
0.0475859
0.047571
0.0475821
0.0475766
0.0475816
0.0475798
0.0475819
0.0475816
0.0505195
0.0493383
0.0499697
0.0495933
0.0467287
0.0465381
0.0466553
0.0466254
0.0504485
0.0487993
0.0466509
0.0465176
0.0464075
0.0464542
0.046418
0.0464151
0.0506027
0.046658
0.0465572
0.0464821
0.0464924
0.0465616
0.0465361
0.0465659
0.0465634
0.0467444
0.0465179
0.046474
0.0464627
0.0465182
0.0464947
0.0464795
0.0464762
0.0464626
0.046465
0.0467454
0.0463621
0.0465279
0.0465139
0.0465235
0.0465125
0.0465112
0.0465265
0.0465229
0.0465315
0.0465324
0.0506056
0.0465174
0.0465273
0.0465143
0.0465036
0.0464976
0.046505
0.0464991
0.0464967
0.0464939
0.0464915
0.0464906
0.0504481
0.046657
0.0464734
0.0465135
0.0465037
0.0465122
0.0465104
0.0465126
0.0465109
0.046516
0.0465153
0.0465186
0.0465189
0.0487979
0.0465556
0.0464616
0.0465221
0.0464973
0.0465096
0.0465006
0.0465069
0.0465025
0.0465044
0.0465023
0.0465027
0.0465023
0.0499673
0.0466488
0.0464804
0.0465169
0.046512
0.0465045
0.0465126
0.0465072
0.0465121
0.0465096
0.0465128
0.046512
0.0465138
0.046514
0.0495903
0.0465148
0.0464898
0.0464929
0.0465091
0.0464982
0.0465092
0.0465023
0.0465086
0.0465049
0.0465081
0.0465064
0.0465078
0.0465077
0.0467251
0.0464041
0.0465603
0.0464774
0.0465266
0.0464963
0.0465163
0.0465046
0.046513
0.0465088
0.0465126
0.0465112
0.0465129
0.0465129
0.0465331
0.0464513
0.0465325
0.0464766
0.0465202
0.0464941
0.0465136
0.0465025
0.0465113
0.0465066
0.0465107
0.0465089
0.0465107
0.0465105
0.0505117
0.0466508
0.0464104
0.0465677
0.0464623
0.0465332
0.0464914
0.0465194
0.046503
0.0465143
0.0465084
0.0465131
0.0465111
0.0465129
0.0465128
0.0493342
0.046624
0.0464171
0.0465631
0.0464669
0.0465323
0.0464917
0.046519
0.0465032
0.0465141
0.0465082
0.0465129
0.0465108
0.0465126
0.0465122
0.0494529
0.0482715
0.0489029
0.0485267
0.0456619
0.0454709
0.0455861
0.045558
0.0493819
0.0477326
0.0455842
0.0454509
0.0453408
0.0453856
0.0453391
0.0453473
0.0495363
0.0455915
0.0454906
0.0454155
0.0454259
0.0454952
0.0454703
0.0455033
0.0454979
0.0456784
0.0454515
0.0454074
0.045396
0.0454514
0.045428
0.0454127
0.0454104
0.0454049
0.0453987
0.0456783
0.0452957
0.0454613
0.0454474
0.045457
0.045446
0.0454445
0.0454599
0.0454568
0.0454668
0.0454661
0.0495393
0.0454509
0.0454608
0.0454479
0.045437
0.0454308
0.0454381
0.0454321
0.0454294
0.0454265
0.0454239
0.0454229
0.0493817
0.0455907
0.0454069
0.0454471
0.045437
0.0454458
0.0454435
0.0454458
0.0454439
0.0454489
0.0454481
0.0454513
0.0454517
0.0477314
0.0454893
0.0453951
0.0454558
0.0454306
0.0454429
0.0454338
0.0454398
0.0454351
0.0454368
0.0454345
0.0454346
0.0454343
0.048901
0.0455824
0.0454142
0.0454504
0.0454455
0.0454377
0.0454458
0.04544
0.0454448
0.0454421
0.0454451
0.0454443
0.0454458
0.0454461
0.0485243
0.0454486
0.0454239
0.0454266
0.0454431
0.0454314
0.0454427
0.0454351
0.0454413
0.0454371
0.0454402
0.0454383
0.0454395
0.0454392
0.0456591
0.0453378
0.0454941
0.0454112
0.0454601
0.0454293
0.0454493
0.0454369
0.0454453
0.0454407
0.0454442
0.0454427
0.0454441
0.0454442
0.0454669
0.0453829
0.0454677
0.0454114
0.0454553
0.0454271
0.045447
0.0454347
0.0454437
0.0454384
0.0454424
0.0454403
0.0454418
0.0454416
0.0494478
0.0455826
0.0453339
0.0455024
0.0454058
0.0454689
0.0454244
0.0454523
0.045435
0.0454464
0.0454399
0.0454445
0.0454422
0.0454438
0.0454436
0.0482687
0.0455561
0.045348
0.0454983
0.0454009
0.045467
0.0454244
0.0454521
0.0454351
0.0454463
0.0454397
0.0454443
0.0454418
0.0454435
0.0454432
0.0483864
0.0472051
0.0478363
0.0474601
0.0445957
0.0444052
0.0445222
0.0444929
0.0483154
0.0466659
0.0445174
0.0443842
0.0442739
0.0443203
0.0442832
0.0442815
0.0484699
0.044525
0.0444241
0.044349
0.0443593
0.0444286
0.0444035
0.0444335
0.0444306
0.0446116
0.0443849
0.0443408
0.0443293
0.0443846
0.0443613
0.0443455
0.0443421
0.0443292
0.0443306
0.0446121
0.0442293
0.0443948
0.0443809
0.0443904
0.0443794
0.0443778
0.0443932
0.0443897
0.0443982
0.044399
0.048473
0.0443845
0.0443944
0.0443815
0.0443703
0.0443639
0.0443712
0.0443649
0.0443621
0.0443589
0.0443561
0.0443552
0.0483154
0.0445243
0.0443404
0.0443806
0.0443703
0.0443793
0.0443766
0.0443791
0.0443768
0.044382
0.044381
0.0443843
0.0443846
0.0466651
0.044423
0.0443286
0.0443896
0.0443638
0.0443761
0.0443667
0.0443727
0.0443675
0.0443692
0.0443666
0.0443666
0.0443662
0.0478348
0.0445161
0.044348
0.0443839
0.0443791
0.0443708
0.0443791
0.0443727
0.0443778
0.0443745
0.0443778
0.0443765
0.0443781
0.0443784
0.0474583
0.0443824
0.0443578
0.0443603
0.0443769
0.0443645
0.0443761
0.0443676
0.0443742
0.044369
0.0443724
0.0443698
0.0443711
0.0443706
0.0445932
0.0442718
0.0444278
0.0443448
0.0443935
0.0443621
0.0443822
0.0443692
0.0443778
0.0443726
0.0443763
0.0443743
0.0443757
0.0443757
0.0444014
0.0443164
0.0444023
0.0443443
0.0443894
0.0443597
0.0443803
0.0443668
0.0443763
0.04437
0.0443743
0.0443715
0.0443731
0.0443728
0.0483833
0.0445167
0.0442679
0.0444365
0.0443392
0.044402
0.044357
0.044385
0.0443669
0.0443786
0.0443713
0.0443761
0.0443733
0.0443749
0.0443747
0.0472033
0.0444904
0.0442806
0.0444321
0.0443335
0.0444005
0.0443567
0.0443851
0.0443668
0.0443787
0.044371
0.044376
0.0443729
0.0443747
0.0443743
0.04732
0.0461387
0.0467696
0.0463935
0.0435289
0.0433382
0.0434536
0.0434252
0.0472489
0.0455993
0.0434507
0.0433175
0.0432073
0.0432522
0.0432068
0.0432137
0.0474033
0.0434584
0.0433575
0.0432825
0.0432927
0.0433621
0.0433374
0.0433698
0.0433649
0.0435452
0.0433183
0.0432741
0.0432625
0.0433177
0.0432946
0.0432785
0.0432761
0.0432699
0.0432645
0.0435454
0.0431627
0.0433282
0.0433143
0.0433238
0.0433129
0.043311
0.0433265
0.0433232
0.043333
0.0433327
0.0474065
0.043318
0.0433279
0.0433151
0.0433036
0.0432968
0.0433043
0.0432976
0.0432948
0.0432914
0.0432886
0.0432877
0.047249
0.043458
0.0432738
0.0433142
0.0433035
0.0433129
0.0433096
0.0433126
0.0433097
0.0433151
0.0433138
0.0433172
0.0433176
0.0455987
0.0433567
0.043262
0.0433232
0.0432968
0.0433094
0.0432994
0.0433056
0.0432997
0.0433016
0.0432985
0.0432986
0.043298
0.0467686
0.0434497
0.0432817
0.0433173
0.0433126
0.0433039
0.0433125
0.0433054
0.043311
0.043307
0.0433106
0.043309
0.0433107
0.0433108
0.0463922
0.0433163
0.0432916
0.0432938
0.0433104
0.0432975
0.0433094
0.0432999
0.043307
0.0433008
0.0433045
0.0433013
0.0433026
0.043302
0.0435277
0.0432058
0.0433613
0.043278
0.0433265
0.0432947
0.0433152
0.0433015
0.0433107
0.0433045
0.0433087
0.0433062
0.0433077
0.0433076
0.0433371
0.0432525
0.0433358
0.0432752
0.0433225
0.0432919
0.0433136
0.0432988
0.043309
0.0433014
0.0433062
0.0433028
0.0433045
0.0433039
0.0473183
0.0434547
0.0432161
0.0433658
0.0432615
0.0433321
0.043289
0.0433178
0.0432988
0.0433111
0.0433027
0.0433079
0.0433045
0.0433063
0.0433059
0.046138
0.0434262
0.0432152
0.0433643
0.0432647
0.043333
0.0432886
0.0433181
0.0432986
0.0433113
0.0433023
0.0433079
0.0433041
0.0433061
0.0433055
0.0462536
0.0450722
0.045703
0.0453268
0.0424627
0.0422725
0.0423895
0.0423599
0.0461823
0.0445327
0.042384
0.0422509
0.0421407
0.0421869
0.0421493
0.0421479
0.0463366
0.0423919
0.0422909
0.042216
0.042226
0.0422954
0.0422705
0.0423015
0.0422974
0.0424786
0.0422517
0.0422075
0.0421958
0.0422509
0.0422279
0.0422113
0.0422078
0.0421946
0.0421966
0.042479
0.0420961
0.0422616
0.0422478
0.0422572
0.0422463
0.0422441
0.0422596
0.0422558
0.042264
0.0422655
0.0463399
0.0422514
0.0422614
0.0422485
0.0422369
0.0422296
0.0422373
0.0422302
0.0422275
0.0422237
0.0422208
0.0422199
0.0461826
0.0423916
0.0422073
0.0422477
0.0422368
0.0422465
0.0422427
0.042246
0.0422427
0.0422483
0.0422467
0.0422502
0.0422505
0.0445323
0.0422904
0.0421954
0.0422568
0.0422297
0.0422426
0.042232
0.0422384
0.0422319
0.042234
0.0422304
0.0422307
0.0422299
0.0457023
0.0423834
0.0422155
0.0422507
0.0422461
0.042237
0.042246
0.0422383
0.0422442
0.0422396
0.0422435
0.0422415
0.0422433
0.0422433
0.045326
0.04225
0.0422255
0.0422271
0.0422439
0.0422303
0.0422427
0.042232
0.0422396
0.0422326
0.0422366
0.0422329
0.0422343
0.0422335
0.0424614
0.0421397
0.042295
0.0422114
0.0422598
0.0422275
0.0422484
0.0422339
0.0422435
0.0422366
0.0422411
0.0422381
0.0422398
0.0422395
0.0422706
0.0421847
0.0422702
0.0422092
0.0422564
0.0422243
0.0422469
0.0422307
0.0422416
0.042233
0.0422382
0.0422341
0.042236
0.0422352
0.0462526
0.0423862
0.0421388
0.0423033
0.0422029
0.0422666
0.0422216
0.0422505
0.0422308
0.0422435
0.0422344
0.0422399
0.042236
0.0422379
0.0422373
0.0450719
0.0423589
0.0421475
0.0422986
0.0421983
0.0422665
0.0422209
0.0422511
0.0422304
0.0422438
0.0422338
0.0422399
0.0422354
0.0422375
0.0422366
0.045187
0.0440057
0.0446364
0.0442602
0.041396
0.0412059
0.0413229
0.0412935
0.0451156
0.0434661
0.0413174
0.0411842
0.041074
0.0411202
0.0410826
0.0410814
0.04527
0.0413254
0.0412243
0.0411494
0.0411593
0.0412288
0.0412038
0.0412348
0.0412307
0.0414121
0.0411851
0.0411408
0.041129
0.0411841
0.0411611
0.0411443
0.0411408
0.0411275
0.0411294
0.0414123
0.0410297
0.041195
0.0411812
0.0411906
0.0411796
0.0411773
0.0411928
0.0411889
0.0411971
0.0411985
0.0452735
0.0411849
0.0411948
0.0411818
0.0411702
0.0411625
0.0411705
0.0411628
0.0411603
0.0411561
0.0411533
0.0411523
0.0451161
0.0413253
0.0411407
0.041181
0.0411701
0.04118
0.0411758
0.0411793
0.0411757
0.0411815
0.0411797
0.0411833
0.0411834
0.043466
0.0412241
0.0411288
0.0411905
0.0411625
0.0411758
0.0411645
0.0411712
0.041164
0.0411663
0.0411624
0.0411627
0.0411618
0.044636
0.041317
0.0411491
0.041184
0.0411796
0.0411703
0.0411793
0.0411712
0.0411772
0.0411722
0.0411763
0.041174
0.0411759
0.0411758
0.0442597
0.0411837
0.041159
0.0411607
0.0411772
0.041163
0.0411758
0.0411642
0.0411723
0.0411646
0.0411687
0.0411645
0.041166
0.0411651
0.0413954
0.0410734
0.0412285
0.0411445
0.0411929
0.0411604
0.0411816
0.0411663
0.0411763
0.0411687
0.0411734
0.04117
0.0411719
0.0411714
0.0412051
0.0411196
0.0412035
0.0411412
0.0411893
0.0411566
0.04118
0.0411626
0.0411742
0.0411647
0.0411702
0.0411655
0.0411676
0.0411665
0.0451864
0.0413222
0.0410825
0.0412336
0.0411282
0.041198
0.0411539
0.0411834
0.0411628
0.041176
0.0411661
0.0411719
0.0411675
0.0411696
0.0411688
0.0440056
0.0412936
0.0410818
0.0412312
0.0411302
0.0411992
0.0411531
0.0411841
0.0411623
0.0411763
0.0411654
0.0411718
0.0411667
0.041169
0.0411679
0.0441204
0.0429392
0.0435699
0.0431936
0.0403291
0.0401385
0.0402539
0.0402257
0.0440493
0.0423997
0.0402508
0.0401176
0.0400073
0.0400521
0.0400068
0.0400137
0.0442038
0.040259
0.0401578
0.0400828
0.0400926
0.0401621
0.0401373
0.0401697
0.0401647
0.0403455
0.0401184
0.0400742
0.0400622
0.0401174
0.0400944
0.0400775
0.0400751
0.0400687
0.0400633
0.0403458
0.0399633
0.0401285
0.0401145
0.0401241
0.0401128
0.0401106
0.0401261
0.0401225
0.0401321
0.0401319
0.0442073
0.0401183
0.0401285
0.0401151
0.0401034
0.0400953
0.0401037
0.0400954
0.0400932
0.0400888
0.0400862
0.0400849
0.04405
0.040259
0.0400743
0.0401149
0.0401035
0.0401134
0.040109
0.0401124
0.0401087
0.0401147
0.0401127
0.0401163
0.0401164
0.0423999
0.0401577
0.040062
0.0401236
0.0400953
0.040109
0.040097
0.0401037
0.0400962
0.0400987
0.0400943
0.0400947
0.0400936
0.0435698
0.0402507
0.0400827
0.0401174
0.0401128
0.0401036
0.0401126
0.0401043
0.0401102
0.0401048
0.0401091
0.0401064
0.0401085
0.0401082
0.0431934
0.0401174
0.0400925
0.0400942
0.0401105
0.0400955
0.0401088
0.0400964
0.0401049
0.0400966
0.0401008
0.0400963
0.0400978
0.0400967
0.0403288
0.0400071
0.040162
0.0400776
0.0401261
0.0400933
0.0401148
0.0400987
0.0401091
0.0401008
0.0401058
0.040102
0.0401039
0.0401033
0.0401382
0.040052
0.0401373
0.0400753
0.0401228
0.0400892
0.040113
0.0400946
0.0401067
0.0400964
0.0401021
0.040097
0.0400992
0.040098
0.0441202
0.0402537
0.0400066
0.0401697
0.0400689
0.0401324
0.0400865
0.0401164
0.0400948
0.0401085
0.0400979
0.040104
0.0400991
0.0401014
0.0401004
0.0429393
0.040226
0.0400141
0.040165
0.0400639
0.0401325
0.0400855
0.040117
0.040094
0.0401087
0.040097
0.0401036
0.0400982
0.0401006
0.0400993
0.0430539
0.0418729
0.0425036
0.042127
0.0392625
0.0390725
0.0391896
0.0391604
0.0429831
0.0413334
0.0391843
0.039051
0.0389407
0.038987
0.0389495
0.0389483
0.0431375
0.0391926
0.0390912
0.0390161
0.0390258
0.0390952
0.0390702
0.0391012
0.0390969
0.0392791
0.0390517
0.0390076
0.0389952
0.0390507
0.0390275
0.0390104
0.0390069
0.0389933
0.0389953
0.0392791
0.0388969
0.039062
0.0390482
0.0390572
0.0390458
0.0390437
0.039059
0.0390549
0.0390629
0.0390642
0.0431412
0.0390517
0.0390619
0.0390482
0.0390367
0.039028
0.0390368
0.039028
0.039026
0.0390212
0.0390185
0.0390172
0.042984
0.0391928
0.0390077
0.0390478
0.0390367
0.0390467
0.0390422
0.0390457
0.0390417
0.0390477
0.0390455
0.0390492
0.0390492
0.0413338
0.0390913
0.0389954
0.0390577
0.0390281
0.0390421
0.0390293
0.0390377
0.0390288
0.0390311
0.0390265
0.0390269
0.0390257
0.0425038
0.0391844
0.0390162
0.0390509
0.039046
0.0390369
0.0390454
0.039036
0.0390431
0.0390375
0.0390417
0.0390389
0.039041
0.0390406
0.0421271
0.039051
0.0390259
0.0390276
0.0390438
0.0390281
0.0390417
0.0390284
0.0390374
0.0390286
0.039033
0.0390281
0.0390298
0.0390286
0.0392625
0.0389408
0.0390952
0.0390106
0.0390591
0.0390261
0.0390477
0.0390311
0.0390418
0.039033
0.0390382
0.039034
0.0390361
0.0390353
0.0390726
0.0389871
0.0390703
0.0390071
0.0390552
0.0390216
0.0390457
0.0390267
0.0390391
0.0390282
0.0390342
0.0390287
0.0390309
0.0390296
0.043054
0.0391897
0.0389497
0.0391013
0.0389935
0.0390631
0.0390187
0.0390493
0.039027
0.0390411
0.0390299
0.0390362
0.0390309
0.0390333
0.0390321
0.0418732
0.0391608
0.0389487
0.0390973
0.0389958
0.0390647
0.0390177
0.0390497
0.039026
0.0390411
0.0390288
0.0390356
0.0390298
0.0390323
0.0390309
0.0419873
0.0408064
0.0414371
0.0410604
0.0381955
0.0380055
0.0381225
0.0380935
0.0419166
0.0402669
0.0381178
0.0379844
0.0378741
0.0379204
0.037883
0.0378818
0.042071
0.0381261
0.0380246
0.0379494
0.0379589
0.0380282
0.0380031
0.038034
0.0380298
0.0382108
0.0379848
0.0379408
0.0379284
0.0379841
0.0379607
0.0379435
0.0379401
0.0379263
0.0379285
0.0382145
0.0378303
0.0379954
0.037981
0.0379911
0.0379787
0.0379769
0.0379919
0.0379878
0.0379957
0.0379969
0.0420748
0.0379851
0.0379956
0.0379812
0.0379698
0.0379606
0.03797
0.0379605
0.0379589
0.0379539
0.0379513
0.0379499
0.0419177
0.0381265
0.0379412
0.0379818
0.03797
0.0379799
0.0379751
0.0379784
0.0379745
0.0379805
0.0379782
0.037982
0.0379818
0.0402675
0.0380249
0.0379285
0.0379906
0.0379606
0.0379752
0.0379615
0.0379693
0.0379608
0.0379636
0.0379587
0.0379593
0.0379579
0.0414375
0.0381181
0.0379497
0.0379843
0.0379788
0.0379701
0.0379787
0.0379702
0.0379759
0.0379699
0.0379743
0.0379713
0.0379735
0.0379731
0.0410607
0.0379847
0.0379592
0.0379609
0.0379771
0.0379606
0.0379747
0.0379611
0.03797
0.0379607
0.0379653
0.0379601
0.0379618
0.0379605
0.0381957
0.0378744
0.0380284
0.0379438
0.0379921
0.0379591
0.0379806
0.0379637
0.0379744
0.0379652
0.0379706
0.0379661
0.0379683
0.0379674
0.0380058
0.0379207
0.0380034
0.0379403
0.0379881
0.0379542
0.0379784
0.0379589
0.0379715
0.0379602
0.0379663
0.0379605
0.0379628
0.0379613
0.0419876
0.0381228
0.0378833
0.0380342
0.0379266
0.0379959
0.0379516
0.0379821
0.0379594
0.0379737
0.0379619
0.0379684
0.0379628
0.0379652
0.0379639
0.0408068
0.0380938
0.0378822
0.0380302
0.0379289
0.0379974
0.0379503
0.0379823
0.0379582
0.0379734
0.0379607
0.0379677
0.0379615
0.0379641
0.0379624
0.0409204
0.0397395
0.0403706
0.0399936
0.0371279
0.0369375
0.0370526
0.0370247
0.0408501
0.0392005
0.0370515
0.0369178
0.0368075
0.0368523
0.0368068
0.0368141
0.0410045
0.03706
0.0369581
0.0368826
0.036892
0.0369609
0.0369359
0.0369677
0.0369631
0.037152
0.0369185
0.0368741
0.0368612
0.0369174
0.0368938
0.0368768
0.0368746
0.0368687
0.0368628
0.0371392
0.0367636
0.0369293
0.036915
0.0369239
0.0369113
0.03691
0.0369248
0.0369211
0.0369306
0.0369301
0.0410084
0.0369176
0.0369288
0.0369139
0.036903
0.036893
0.0369031
0.0368929
0.0368918
0.0368868
0.0368847
0.036883
0.0408515
0.0370606
0.0368745
0.0369144
0.036903
0.0369131
0.0369081
0.0369113
0.0369072
0.0369132
0.0369107
0.0369146
0.0369144
0.0392013
0.0369587
0.0368617
0.0369249
0.0368933
0.0369082
0.036894
0.0369024
0.0368931
0.0368961
0.0368911
0.0368917
0.0368902
0.0403713
0.0370521
0.0368831
0.0369178
0.0369117
0.0369034
0.0369115
0.0369026
0.0369086
0.0369024
0.0369069
0.0369037
0.036906
0.0369053
0.0399942
0.0369183
0.0368924
0.0368941
0.0369103
0.0368932
0.0369074
0.0368933
0.0369025
0.0368929
0.0368975
0.0368922
0.0368939
0.0368925
0.0371284
0.0368079
0.0369613
0.0368772
0.036925
0.0368921
0.0369133
0.0368963
0.036907
0.0368976
0.0369029
0.0368983
0.0369005
0.0368993
0.0369379
0.0368527
0.0369363
0.0368749
0.0369214
0.0368871
0.036911
0.0368912
0.0369039
0.0368923
0.0368984
0.0368923
0.0368947
0.036893
0.0409207
0.0370529
0.0368071
0.036968
0.036869
0.0369308
0.0368849
0.0369147
0.0368918
0.0369061
0.036894
0.0369005
0.0368947
0.0368972
0.0368957
0.0397399
0.0370251
0.0368145
0.0369634
0.0368632
0.0369305
0.0368833
0.0369147
0.0368905
0.0369057
0.0368927
0.0368996
0.0368931
0.0368958
0.036894
0.0398535
0.0386727
0.0393045
0.038927
0.0360604
0.0358707
0.035987
0.0359582
0.0397843
0.0381347
0.0359857
0.0358513
0.035741
0.0357875
0.0357502
0.0357489
0.039938
0.0359945
0.0358919
0.0358158
0.0358249
0.0358932
0.035868
0.0358982
0.0358945
0.0360611
0.0358489
0.0358068
0.035794
0.0358506
0.0358268
0.0358098
0.0358068
0.0357932
0.0357952
0.0360994
0.0356977
0.035862
0.0358472
0.0358583
0.035844
0.0358428
0.0358572
0.035853
0.0358611
0.0358619
0.0399432
0.0358534
0.0358637
0.0358462
0.0358358
0.0358253
0.0358361
0.0358254
0.0358246
0.0358195
0.0358173
0.0358157
0.0397862
0.0359957
0.0358082
0.035849
0.0358363
0.0358461
0.0358409
0.035844
0.0358398
0.0358457
0.0358432
0.0358471
0.0358467
0.038136
0.0358928
0.0357945
0.0358576
0.0358253
0.035841
0.0358263
0.035835
0.0358255
0.0358287
0.0358234
0.0358241
0.0358226
0.0393055
0.0359866
0.0358165
0.0358512
0.0358442
0.0358364
0.0358441
0.0358352
0.0358412
0.0358349
0.0358394
0.035836
0.0358383
0.0358375
0.0389279
0.0358521
0.0358254
0.0358272
0.0358431
0.0358256
0.03584
0.0358256
0.0358349
0.0358251
0.0358298
0.0358243
0.035826
0.0358244
0.036061
0.0357416
0.0358937
0.0358102
0.0358575
0.0358249
0.0358459
0.0358288
0.0358394
0.0358298
0.0358352
0.0358303
0.0358326
0.0358313
0.0358712
0.0357879
0.0358684
0.0358071
0.0358533
0.0358197
0.0358434
0.0358236
0.0358361
0.0358244
0.0358304
0.0358242
0.0358265
0.0358247
0.0398539
0.0359874
0.0357505
0.0358985
0.0357936
0.0358613
0.0358176
0.0358472
0.0358242
0.0358384
0.0358261
0.0358326
0.0358266
0.0358291
0.0358275
0.0386731
0.0359585
0.0357493
0.0358948
0.0357955
0.0358622
0.035816
0.035847
0.0358227
0.0358378
0.0358246
0.0358315
0.0358248
0.0358276
0.0358258
0.0387874
0.0376069
0.0382399
0.0378612
0.0349921
0.0348025
0.034917
0.0348894
0.0387203
0.0370707
0.0349209
0.0347851
0.0346747
0.0347208
0.0346773
0.0346823
0.0388748
0.0349306
0.0348262
0.034749
0.0347576
0.0348249
0.0347998
0.0348301
0.0348263
0.0350479
0.0347875
0.0347402
0.0347263
0.0347837
0.0347597
0.0347429
0.0347411
0.0347331
0.0347296
0.0349718
0.0346306
0.0347982
0.0347819
0.0347904
0.034776
0.0347753
0.0347895
0.0347854
0.0347946
0.0347941
0.0388779
0.0347798
0.0347954
0.0347775
0.0347687
0.0347569
0.0347688
0.0347577
0.0347575
0.0347524
0.0347505
0.0347488
0.0387228
0.0349321
0.0347406
0.0347809
0.0347688
0.0347789
0.0347737
0.0347764
0.0347723
0.0347781
0.0347755
0.0347794
0.0347789
0.0370726
0.0348275
0.0347272
0.0347921
0.0347571
0.0347736
0.0347585
0.0347676
0.0347579
0.034761
0.0347557
0.0347565
0.0347549
0.0382414
0.0349224
0.0347498
0.0347845
0.0347768
0.0347693
0.0347766
0.0347677
0.0347737
0.0347673
0.0347717
0.0347682
0.0347706
0.0347696
0.0378625
0.0347862
0.0347583
0.0347602
0.0347757
0.034758
0.0347725
0.0347579
0.0347673
0.0347574
0.034762
0.0347564
0.0347581
0.0347564
0.0349928
0.0346754
0.0348255
0.0347434
0.0347898
0.0347578
0.0347783
0.0347613
0.0347718
0.0347621
0.0347674
0.0347624
0.0347646
0.0347632
0.034803
0.0347213
0.0348003
0.0347415
0.0347858
0.0347527
0.0347757
0.0347559
0.0347683
0.0347564
0.0347625
0.034756
0.0347584
0.0347565
0.0387879
0.0349174
0.0346777
0.0348305
0.0347335
0.0347949
0.0347508
0.0347795
0.0347566
0.0347707
0.0347582
0.0347647
0.0347584
0.0347611
0.0347593
0.0376073
0.0348898
0.0346827
0.0348266
0.0347299
0.0347945
0.034749
0.0347791
0.034755
0.0347698
0.0347566
0.0347634
0.0347566
0.0347594
0.0347577
0.0377248
0.0365454
0.0371798
0.0367996
0.0339224
0.0337341
0.0338475
0.0338209
0.0376611
0.0360115
0.033857
0.0337192
0.0336084
0.0336561
0.0336137
0.0336173
0.0378129
0.033868
0.0337612
0.0336827
0.0336904
0.0337553
0.0337305
0.0337596
0.0337567
0.0338812
0.0337083
0.0336705
0.0336578
0.0337165
0.0336919
0.0336759
0.0336745
0.0336652
0.0336636
0.0340125
0.0335669
0.033728
0.0337127
0.0337238
0.0337082
0.0337075
0.0337213
0.0337171
0.0337261
0.0337257
0.0378225
0.0337248
0.0337344
0.0337073
0.0337004
0.0336884
0.0337013
0.0336899
0.0336903