/*--------------------------------*- C++ -*----------------------------------*\
| =========                 |                                                 |
| \\      /  F ield         | OpenFOAM: The Open Source CFD Toolbox           |
|  \\    /   O peration     | Version:  2.1.1                                 |
|   \\  /    A nd           | Web:      www.OpenFOAM.org                      |
|    \\/     M anipulation  |                                                 |
\*---------------------------------------------------------------------------*/
FoamFile
{
    version     2.0;
    format      ascii;
    class       volVectorField;
    location    "0.003";
    object      U;
}
// * * * * * * * * * * * * * * * * * * * * * * * * * * * * * * * * * * * * * //

dimensions      [0 1 -1 0 0 0 0];

internalField   nonuniform List<vector> 
10300
(
(0.00465333 -0.00157011 0.016994)
(0.000528275 -0.00387029 0.014611)
(0.000178544 -0.00490959 0.0213262)
(0.000617247 -0.00166018 0.0143346)
(-0.00363468 -0.00433615 0.0215689)
(-0.000342348 -0.000494312 0.0752269)
(0.000115852 -0.000172849 0.0937871)
(-9.42933e-05 -0.00026845 0.0889159)
(3.54519e-05 -0.000260888 0.0882617)
(0.000944625 -0.0028519 0.0145791)
(-0.00432896 -0.00493798 0.0264462)
(-0.000391838 -0.000335563 0.0720675)
(0.000188739 -0.000277522 0.0886161)
(0.000149859 0.000385282 0.113421)
(3.50245e-05 0.000100896 0.116097)
(5.45528e-05 0.000221039 0.113251)
(8.40604e-06 0.000184877 0.112805)
(-0.00235851 -0.0050651 0.0177329)
(-0.000401753 -0.000396335 0.0737574)
(2.91915e-05 -0.000369996 0.0876299)
(9.30282e-05 0.000267368 0.112154)
(-0.000179336 4.87191e-05 0.114015)
(-0.000128755 -0.000145043 0.114722)
(-3.99953e-05 -0.000118039 0.113441)
(-6.23903e-05 -0.000157715 0.112526)
(3.65852e-06 -0.000161526 0.112282)
(-0.000588567 -0.000467717 0.0705711)
(0.000229022 -0.000347829 0.0887627)
(0.000131283 0.000307167 0.112392)
(-0.0001017 8.76129e-05 0.113538)
(-5.49619e-05 -4.06599e-05 0.114234)
(6.51001e-05 -6.63999e-05 0.113107)
(3.28999e-05 4.66168e-05 0.112587)
(2.9528e-05 2.65324e-05 0.112303)
(1.6338e-05 7.15883e-05 0.112099)
(6.63137e-06 6.76172e-05 0.11195)
(-0.000469032 -0.000589178 0.0705282)
(0.000566529 0.000566531 0.112524)
(-0.000292667 5.30936e-05 0.11356)
(-4.64341e-06 -4.37702e-05 0.113758)
(-2.0278e-06 -9.8633e-05 0.112657)
(2.00761e-05 -8.37235e-06 0.11221)
(-2.39133e-05 -4.39255e-05 0.112186)
(-3.40108e-05 -6.08892e-05 0.112286)
(-2.18771e-05 -7.1878e-05 0.112312)
(-2.5226e-05 -8.48519e-05 0.112235)
(-1.32313e-06 -8.9809e-05 0.112154)
(-0.00506853 -0.00235674 0.0177282)
(-0.000348022 0.000230087 0.0887368)
(5.22228e-05 -0.000291844 0.113551)
(1.81156e-05 1.87498e-05 0.112622)
(4.8791e-05 -5.99661e-06 0.111775)
(-2.69758e-06 4.85369e-06 0.111816)
(-1.68901e-06 -1.55782e-05 0.112005)
(7.3245e-06 -2.48937e-05 0.112201)
(6.84852e-07 -7.66172e-06 0.112325)
(5.43224e-06 -1.15408e-05 0.112358)
(-1.00724e-07 5.43298e-07 0.112331)
(2.27733e-06 4.05402e-07 0.112302)
(-0.00285257 0.000944877 0.014579)
(-0.000397133 -0.000400862 0.0737504)
(0.00030615 0.00013266 0.112378)
(-4.52606e-05 -2.9544e-06 0.11375)
(-6.94132e-06 4.94404e-05 0.111775)
(-2.07661e-05 -1.94494e-05 0.111677)
(-1.52293e-05 -2.1499e-05 0.111931)
(-1.50218e-05 -2.7229e-05 0.112115)
(-1.807e-05 -3.7971e-05 0.112249)
(-2.0869e-05 -4.50039e-05 0.112337)
(-1.37648e-05 -5.20309e-05 0.112376)
(-1.35898e-05 -5.63817e-05 0.112382)
(-1.61137e-06 -5.90854e-05 0.11238)
(-0.00493889 -0.00432857 0.026446)
(-0.000370765 3.05938e-05 0.0876233)
(8.76179e-05 -0.000100731 0.11353)
(-0.000100072 -2.17866e-06 0.112651)
(3.92562e-06 -2.12849e-06 0.111816)
(-2.21455e-05 -1.49778e-05 0.111933)
(-1.2358e-05 -1.16325e-05 0.112087)
(-1.85108e-05 -2.0837e-05 0.112199)
(-1.02673e-05 -2.36069e-05 0.112295)
(-1.31368e-05 -2.3525e-05 0.112369)
(-5.81136e-06 -2.51946e-05 0.112416)
(-7.05157e-06 -2.3599e-05 0.112437)
(-2.38728e-07 -2.38902e-05 0.112447)
(-0.00166003 0.000616703 0.0143344)
(-0.000335833 -0.000390733 0.0720688)
(0.000265412 9.44474e-05 0.112154)
(-4.36184e-05 -5.28753e-05 0.114231)
(-1.01586e-05 2.28629e-05 0.112207)
(-1.61131e-05 -7.01394e-07 0.112004)
(-2.84124e-05 -1.40563e-05 0.112115)
(-2.10913e-05 -1.80087e-05 0.112199)
(-2.68218e-05 -2.64531e-05 0.112276)
(-2.06349e-05 -3.11079e-05 0.112351)
(-2.23958e-05 -3.65823e-05 0.112415)
(-1.38669e-05 -4.01882e-05 0.112461)
(-1.23252e-05 -4.30203e-05 0.112488)
(-1.9051e-06 -4.43083e-05 0.112501)
(-0.00433608 -0.00363396 0.0215687)
(-0.000278389 0.000188873 0.0886183)
(4.79899e-05 -0.000182054 0.114018)
(-6.50232e-05 6.5523e-05 0.113108)
(-4.64388e-05 -2.614e-05 0.112187)
(-2.76617e-05 7.22588e-06 0.112201)
(-3.91161e-05 -1.84884e-05 0.11225)
(-2.49389e-05 -9.86943e-06 0.112295)
(-3.16134e-05 -2.06915e-05 0.112352)
(-2.04008e-05 -1.97837e-05 0.112414)
(-2.22045e-05 -2.35264e-05 0.112469)
(-1.22383e-05 -2.39823e-05 0.112513)
(-1.11551e-05 -2.48998e-05 0.112542)
(-1.4913e-06 -2.50296e-05 0.112557)
(-0.000497003 -0.000341388 0.0752344)
(0.000380068 0.000149082 0.11343)
(-0.000146905 -0.000123384 0.114728)
(4.42771e-05 2.92663e-05 0.112592)
(-6.31633e-05 -3.35241e-05 0.112287)
(-6.40219e-06 -1.8486e-07 0.112325)
(-4.57038e-05 -2.11406e-05 0.112337)
(-2.34201e-05 -1.32921e-05 0.112369)
(-3.67367e-05 -2.26205e-05 0.112415)
(-2.34716e-05 -2.20999e-05 0.11247)
(-2.65826e-05 -2.67458e-05 0.112521)
(-1.52367e-05 -2.77373e-05 0.112564)
(-1.33702e-05 -2.97709e-05 0.112593)
(-2.02034e-06 -3.01815e-05 0.11261)
(-0.000178658 0.000118822 0.0938036)
(0.000102088 3.8839e-05 0.116115)
(-0.000121775 -4.3352e-05 0.113455)
(2.31456e-05 2.88523e-05 0.112308)
(-7.1637e-05 -2.31436e-05 0.112317)
(-1.50936e-05 5.19733e-06 0.112359)
(-5.24674e-05 -1.39204e-05 0.112378)
(-2.64874e-05 -5.36993e-06 0.112416)
(-4.04343e-05 -1.38957e-05 0.112461)
(-2.45394e-05 -1.18448e-05 0.112515)
(-2.78433e-05 -1.52745e-05 0.112566)
(-1.52664e-05 -1.4965e-05 0.112611)
(-1.35986e-05 -1.61265e-05 0.112645)
(-1.98145e-06 -1.60618e-05 0.112663)
(-0.0038697 0.000529427 0.0146173)
(-0.000274336 -9.78024e-05 0.0889375)
(0.000207988 4.40411e-05 0.113275)
(-0.000164201 -7.03583e-05 0.112535)
(7.14604e-05 1.28871e-05 0.112104)
(-8.66551e-05 -3.00728e-05 0.112236)
(2.92794e-06 -1.80442e-06 0.112332)
(-5.63987e-05 -1.50525e-05 0.112382)
(-2.3365e-05 -7.35431e-06 0.112437)
(-4.32209e-05 -1.28451e-05 0.112487)
(-2.48503e-05 -1.1075e-05 0.112542)
(-2.97011e-05 -1.36314e-05 0.112595)
(-1.609e-05 -1.34895e-05 0.112646)
(-1.44676e-05 -1.46171e-05 0.112687)
(-1.98701e-06 -1.44055e-05 0.112712)
(-0.00490866 0.000176377 0.0213294)
(-0.000268591 3.41978e-05 0.0882692)
(0.000182773 -1.26231e-06 0.112812)
(-0.000157749 1.12108e-05 0.112288)
(6.74434e-05 4.61024e-06 0.111951)
(-8.77899e-05 3.93881e-06 0.112155)
(2.43312e-07 2.56319e-06 0.112301)
(-5.812e-05 -6.86824e-08 0.112381)
(-2.42401e-05 1.7573e-07 0.112446)
(-4.41705e-05 -1.19663e-06 0.112502)
(-2.53267e-05 -1.10347e-06 0.112557)
(-3.02564e-05 -1.93635e-06 0.11261)
(-1.62499e-05 -1.80422e-06 0.112664)
(-1.4515e-05 -2.0541e-06 0.112713)
(-2.02727e-06 -1.93426e-06 0.112746)
(0.000528218 -0.00387041 0.0146114)
(0.000178565 -0.00490956 0.0213267)
(0.000617355 -0.00166019 0.0143353)
(-0.00363525 -0.00433613 0.02157)
(-0.000343566 -0.000493747 0.0752311)
(0.000115561 -0.000171277 0.0937923)
(-9.45116e-05 -0.00026734 0.0889205)
(3.5038e-05 -0.000259392 0.0882663)
(0.000944728 -0.002852 0.0145796)
(-0.00432908 -0.00493812 0.0264473)
(-0.000391638 -0.000335899 0.0720708)
(0.000189342 -0.000277276 0.0886197)
(0.000151382 0.000386544 0.113426)
(3.57171e-05 0.000102023 0.116102)
(5.50486e-05 0.000222884 0.113256)
(9.44377e-06 0.000186645 0.112809)
(-0.00235861 -0.00506541 0.0177335)
(-0.000401626 -0.000395756 0.073761)
(2.9568e-05 -0.000369052 0.0876335)
(9.30705e-05 0.000269467 0.112159)
(-0.00017935 5.04533e-05 0.11402)
(-0.000129472 -0.00014098 0.114727)
(-3.99871e-05 -0.000114178 0.113446)
(-6.21407e-05 -0.000152162 0.112531)
(3.20018e-06 -0.000156527 0.112286)
(-0.000588082 -0.000467798 0.0705744)
(0.00023007 -0.000346754 0.088766)
(0.00013277 0.00030885 0.112396)
(-9.98421e-05 8.92748e-05 0.113542)
(-5.44599e-05 -3.78076e-05 0.114238)
(6.75588e-05 -6.22811e-05 0.11311)
(3.65354e-05 5.03977e-05 0.11259)
(3.17208e-05 3.16079e-05 0.112305)
(1.79956e-05 7.60295e-05 0.1121)
(7.16525e-06 7.26275e-05 0.111951)
(-0.000469208 -0.000588153 0.0705314)
(0.000567332 0.000567278 0.11253)
(-0.000290682 5.44758e-05 0.113564)
(-3.59739e-06 -4.15097e-05 0.113762)
(-2.37166e-07 -9.59235e-05 0.112661)
(2.26202e-05 -4.28359e-06 0.112214)
(-2.29259e-05 -3.89787e-05 0.112189)
(-3.37565e-05 -5.67108e-05 0.112288)
(-2.12386e-05 -6.78154e-05 0.112314)
(-2.50582e-05 -8.09613e-05 0.112237)
(-1.20288e-06 -8.60837e-05 0.112155)
(-0.00506885 -0.00235683 0.0177288)
(-0.000346959 0.000231322 0.08874)
(5.35635e-05 -0.000289792 0.113555)
(2.089e-05 2.14386e-05 0.112625)
(5.16703e-05 -2.4119e-06 0.111778)
(1.02118e-06 9.55138e-06 0.111818)
(1.0691e-06 -1.00834e-05 0.112006)
(9.86572e-06 -1.87275e-05 0.112201)
(3.42679e-06 5.81018e-07 0.112325)
(7.37325e-06 -2.64887e-06 0.112357)
(1.26081e-06 1.04043e-05 0.11233)
(2.62712e-06 1.05975e-05 0.112301)
(-0.00285268 0.000944957 0.0145796)
(-0.000396618 -0.000400647 0.0737537)
(0.000307725 0.000134267 0.112382)
(-4.32214e-05 -1.74688e-06 0.113754)
(-3.4168e-06 5.25301e-05 0.111778)
(-1.77104e-05 -1.63484e-05 0.111679)
(-1.15313e-05 -1.68299e-05 0.111931)
(-1.10178e-05 -2.24807e-05 0.112115)
(-1.43461e-05 -3.14815e-05 0.112249)
(-1.78986e-05 -3.83094e-05 0.112336)
(-1.15223e-05 -4.4613e-05 0.112375)
(-1.21366e-05 -4.87909e-05 0.11238)
(-1.17152e-06 -5.12949e-05 0.112378)
(-0.00493908 -0.00432873 0.0264473)
(-0.000369911 3.11936e-05 0.0876265)
(8.93201e-05 -9.87764e-05 0.113534)
(-9.72941e-05 -2.87895e-07 0.112654)
(8.5944e-06 1.49777e-06 0.111819)
(-1.76882e-05 -1.12701e-05 0.111933)
(-7.00178e-06 -6.27798e-06 0.112087)
(-1.39446e-05 -1.50778e-05 0.112198)
(-5.78947e-06 -1.69872e-05 0.112292)
(-9.47707e-06 -1.64634e-05 0.112366)
(-2.97372e-06 -1.74811e-05 0.112412)
(-5.31211e-06 -1.56491e-05 0.112433)
(3.09523e-07 -1.57316e-05 0.112442)
(-0.00166001 0.000616697 0.0143352)
(-0.000336205 -0.000390377 0.0720716)
(0.000267356 9.45193e-05 0.112158)
(-4.10132e-05 -5.21888e-05 0.114234)
(-6.46807e-06 2.55242e-05 0.11221)
(-1.07687e-05 1.98699e-06 0.112004)
(-2.36197e-05 -9.90607e-06 0.112116)
(-1.53424e-05 -1.34375e-05 0.112198)
(-2.15529e-05 -2.11493e-05 0.112274)
(-1.56167e-05 -2.50498e-05 0.112348)
(-1.83382e-05 -3.01441e-05 0.11241)
(-1.07384e-05 -3.3258e-05 0.112456)
(-1.04273e-05 -3.59166e-05 0.112482)
(-1.25214e-06 -3.7046e-05 0.112496)
(-0.00433606 -0.00363466 0.02157)
(-0.000278369 0.000189703 0.0886208)
(4.96221e-05 -0.000182814 0.114022)
(-6.07483e-05 6.8141e-05 0.11311)
(-4.16718e-05 -2.55892e-05 0.112189)
(-2.14999e-05 9.88702e-06 0.112201)
(-3.27661e-05 -1.48692e-05 0.112249)
(-1.84288e-05 -5.26867e-06 0.112292)
(-2.55601e-05 -1.57078e-05 0.112348)
(-1.47913e-05 -1.40937e-05 0.112409)
(-1.76756e-05 -1.74785e-05 0.112463)
(-8.73655e-06 -1.74956e-05 0.112506)
(-9.08389e-06 -1.82161e-05 0.112534)
(-7.86188e-07 -1.82143e-05 0.112549)
(-0.000497807 -0.000342659 0.0752367)
(0.000380394 0.000150619 0.113433)
(-0.000142895 -0.000122948 0.114731)
(4.81574e-05 3.21644e-05 0.112593)
(-5.94253e-05 -3.30022e-05 0.112289)
(2.01783e-06 2.36604e-06 0.112325)
(-3.89618e-05 -1.82594e-05 0.112336)
(-1.62985e-05 -9.65897e-06 0.112366)
(-3.0376e-05 -1.86167e-05 0.112411)
(-1.7389e-05 -1.75977e-05 0.112464)
(-2.1729e-05 -2.19247e-05 0.112514)
(-1.14737e-05 -2.26219e-05 0.112556)
(-1.11445e-05 -2.44801e-05 0.112585)
(-1.23769e-06 -2.4893e-05 0.112601)
(-0.000180084 0.000120417 0.0938056)
(0.000103765 4.04174e-05 0.116116)
(-0.000118655 -4.45199e-05 0.113456)
(2.75407e-05 3.08509e-05 0.112308)
(-6.7213e-05 -2.29636e-05 0.112317)
(-6.56666e-06 7.30866e-06 0.112358)
(-4.50249e-05 -1.19797e-05 0.112376)
(-1.88489e-05 -2.51622e-06 0.112412)
(-3.35092e-05 -1.0801e-05 0.112456)
(-1.81122e-05 -8.2463e-06 0.112507)
(-2.27008e-05 -1.15047e-05 0.112558)
(-1.1295e-05 -1.09299e-05 0.112602)
(-1.13545e-05 -1.19898e-05 0.112635)
(-1.16398e-06 -1.19404e-05 0.112653)
(-0.00386932 0.000530226 0.014617)
(-0.000277326 -9.87842e-05 0.0889391)
(0.000205666 4.30738e-05 0.113274)
(-0.000159667 -7.10634e-05 0.112538)
(7.67594e-05 1.42496e-05 0.112105)
(-8.28391e-05 -3.03405e-05 0.112238)
(1.31222e-05 -6.43556e-07 0.112331)
(-4.89141e-05 -1.37368e-05 0.112379)
(-1.50864e-05 -5.78447e-06 0.112432)
(-3.61139e-05 -1.09621e-05 0.112482)
(-1.80917e-05 -8.97798e-06 0.112535)
(-2.44107e-05 -1.14201e-05 0.112587)
(-1.19599e-05 -1.12206e-05 0.112637)
(-1.21555e-05 -1.23074e-05 0.112678)
(-1.14808e-06 -1.2156e-05 0.112702)
(-0.00490834 0.000173404 0.0213281)
(-0.000267209 3.44122e-05 0.0882714)
(0.000185554 -2.15851e-06 0.112815)
(-0.000152168 1.31103e-05 0.112291)
(7.23069e-05 4.49529e-06 0.111952)
(-8.36106e-05 5.1181e-06 0.112156)
(1.03675e-05 2.75178e-06 0.1123)
(-5.0274e-05 8.71662e-07 0.112378)
(-1.60344e-05 6.77327e-07 0.112441)
(-3.67175e-05 -3.55231e-07 0.112496)
(-1.85709e-05 -2.24949e-07 0.112549)
(-2.49425e-05 -1.00965e-06 0.112602)
(-1.21806e-05 -8.88174e-07 0.112654)
(-1.229e-05 -1.15526e-06 0.112702)
(-1.11548e-06 -9.61841e-07 0.112734)
(0.000528191 -0.00387042 0.0146119)
(0.000178378 -0.00490947 0.0213275)
(0.000617441 -0.00166018 0.0143356)
(-0.00363562 -0.0043362 0.0215704)
(-0.00034439 -0.0004933 0.0752343)
(0.000115541 -0.000170098 0.0937964)
(-9.46819e-05 -0.000266175 0.0889241)
(3.46299e-05 -0.00025774 0.08827)
(0.000944721 -0.00285208 0.01458)
(-0.00432896 -0.00493824 0.026448)
(-0.000391534 -0.000336126 0.0720732)
(0.000189873 -0.000276985 0.0886223)
(0.000152843 0.0003875 0.113429)
(3.67181e-05 0.000102696 0.116105)
(5.54991e-05 0.000223927 0.113259)
(1.00079e-05 0.000188029 0.112812)
(-0.00235847 -0.00506584 0.017734)
(-0.000401665 -0.000395247 0.0737637)
(2.98761e-05 -0.000368398 0.0876364)
(9.30453e-05 0.000271131 0.112163)
(-0.000179435 5.19309e-05 0.114024)
(-0.000130046 -0.000137697 0.11473)
(-4.01055e-05 -0.000111337 0.11345)
(-6.18132e-05 -0.000148464 0.112535)
(3.03452e-06 -0.000152585 0.11229)
(-0.000587248 -0.000467508 0.0705767)
(0.000231033 -0.000345778 0.0887684)
(0.000134068 0.000310293 0.1124)
(-9.83177e-05 9.04042e-05 0.113545)
(-5.40242e-05 -3.55002e-05 0.11424)
(6.95992e-05 -5.91814e-05 0.113113)
(3.93834e-05 5.33602e-05 0.112592)
(3.31957e-05 3.55274e-05 0.112306)
(1.95777e-05 7.97187e-05 0.112101)
(8.02832e-06 7.63506e-05 0.111953)
(-0.000468875 -0.000587662 0.0705338)
(0.000567829 0.00056789 0.112534)
(-0.000289056 5.55401e-05 0.113567)
(-2.92505e-06 -3.99538e-05 0.113766)
(1.16565e-06 -9.38045e-05 0.112663)
(2.45687e-05 -1.32654e-06 0.112216)
(-2.23064e-05 -3.54657e-05 0.112191)
(-3.34925e-05 -5.35208e-05 0.11229)
(-2.06543e-05 -6.48411e-05 0.112316)
(-2.49474e-05 -7.74115e-05 0.11224)
(-1.32806e-06 -8.30616e-05 0.112157)
(-0.00506928 -0.0023567 0.0177294)
(-0.000346001 0.000232227 0.0887424)
(5.4595e-05 -0.000288198 0.113558)
(2.3014e-05 2.3621e-05 0.112628)
(5.41009e-05 3.30333e-07 0.11178)
(3.95846e-06 1.31781e-05 0.111819)
(2.8961e-06 -5.79559e-06 0.112006)
(1.21268e-05 -1.36455e-05 0.112201)
(5.72679e-06 7.0846e-06 0.112325)
(9.23548e-06 4.46931e-06 0.112357)
(2.92838e-06 1.77496e-05 0.11233)
(2.94654e-06 1.82973e-05 0.112301)
(-0.00285277 0.000944944 0.0145801)
(-0.000396115 -0.000400667 0.0737561)
(0.000309107 0.000135583 0.112385)
(-4.16473e-05 -9.83427e-07 0.113757)
(-6.38834e-07 5.51312e-05 0.111781)
(-1.55982e-05 -1.41348e-05 0.111681)
(-8.59335e-06 -1.33502e-05 0.111932)
(-7.62539e-06 -1.87352e-05 0.112116)
(-1.152e-05 -2.63478e-05 0.112249)
(-1.56069e-05 -3.33244e-05 0.112335)
(-1.01073e-05 -3.89021e-05 0.112373)
(-1.14557e-05 -4.34762e-05 0.112377)
(-9.17578e-07 -4.58423e-05 0.112375)
(-0.00493922 -0.00432865 0.026448)
(-0.000369266 3.15007e-05 0.0876291)
(9.053e-05 -9.72291e-05 0.113536)
(-9.50415e-05 1.16453e-06 0.112657)
(1.21716e-05 4.22321e-06 0.11182)
(-1.43793e-05 -8.30916e-06 0.111934)
(-2.54245e-06 -1.90705e-06 0.112087)
(-1.04728e-05 -1.05376e-05 0.112197)
(-2.29596e-06 -1.187e-05 0.11229)
(-6.60755e-06 -1.08415e-05 0.112364)
(-7.79723e-07 -1.1449e-05 0.112408)
(-3.89686e-06 -8.98397e-06 0.112429)
(6.97683e-07 -8.82186e-06 0.112438)
(-0.00166001 0.000616744 0.0143356)
(-0.000336455 -0.000390213 0.0720734)
(0.000269028 9.45408e-05 0.112161)
(-3.86945e-05 -5.18159e-05 0.114236)
(-3.71939e-06 2.74392e-05 0.112212)
(-6.4725e-06 3.71956e-06 0.112005)
(-1.98531e-05 -6.31567e-06 0.112116)
(-1.08255e-05 -9.96573e-06 0.112197)
(-1.74131e-05 -1.69368e-05 0.112272)
(-1.17151e-05 -2.033e-05 0.112345)
(-1.51357e-05 -2.5076e-05 0.112407)
(-8.28224e-06 -2.78432e-05 0.112452)
(-8.86983e-06 -3.03107e-05 0.112478)
(-7.32229e-07 -3.13688e-05 0.112491)
(-0.00433618 -0.00363521 0.0215706)
(-0.000277902 0.000190378 0.0886222)
(5.10625e-05 -0.000183228 0.114025)
(-5.76228e-05 7.03442e-05 0.113112)
(-3.80581e-05 -2.51928e-05 0.112189)
(-1.62392e-05 1.2357e-05 0.1122)
(-2.77097e-05 -1.23455e-05 0.112249)
(-1.33471e-05 -1.67081e-06 0.11229)
(-2.08404e-05 -1.18356e-05 0.112346)
(-1.04443e-05 -9.68557e-06 0.112405)
(-1.41137e-05 -1.27431e-05 0.112459)
(-6.00629e-06 -1.24191e-05 0.1125)
(-7.40666e-06 -1.29574e-05 0.112529)
(-2.58822e-07 -1.29182e-05 0.112543)
(-0.000497484 -0.000343734 0.0752375)
(0.00038152 0.000151819 0.113434)
(-0.000139362 -0.000123591 0.114734)
(5.12379e-05 3.46337e-05 0.112594)
(-5.64096e-05 -3.26674e-05 0.112291)
(8.44873e-06 4.40051e-06 0.112325)
(-3.40585e-05 -1.59884e-05 0.112334)
(-1.04268e-05 -6.87258e-06 0.112363)
(-2.5424e-05 -1.54742e-05 0.112408)
(-1.26238e-05 -1.40885e-05 0.112459)
(-1.7859e-05 -1.80955e-05 0.112509)
(-8.49523e-06 -1.85506e-05 0.11255)
(-9.36797e-06 -2.02715e-05 0.112579)
(-6.68241e-07 -2.07088e-05 0.112594)
(-0.000179214 0.000120211 0.0938053)
(0.000105525 4.14259e-05 0.116114)
(-0.000115772 -4.50871e-05 0.113455)
(3.16306e-05 3.23859e-05 0.112308)
(-6.40359e-05 -2.26563e-05 0.112317)
(6.37713e-07 9.19455e-06 0.112357)
(-3.92082e-05 -1.06633e-05 0.112373)
(-1.28923e-05 -3.60393e-07 0.112408)
(-2.80638e-05 -8.35987e-06 0.112452)
(-1.30779e-05 -5.39274e-06 0.112502)
(-1.85764e-05 -8.51315e-06 0.112552)
(-8.18519e-06 -7.75663e-06 0.112595)
(-9.5645e-06 -8.75886e-06 0.112628)
(-6.19932e-07 -8.71361e-06 0.112646)
(-0.00386936 0.000530436 0.0146136)
(-0.000276476 -9.92167e-05 0.0889352)
(0.000207026 4.31743e-05 0.113272)
(-0.000155559 -7.08027e-05 0.11254)
(8.07274e-05 1.57686e-05 0.112104)
(-7.95118e-05 -3.04439e-05 0.11224)
(2.05716e-05 9.34614e-07 0.112331)
(-4.37434e-05 -1.33218e-05 0.112377)
(-8.08708e-06 -4.61015e-06 0.112429)
(-3.04627e-05 -9.51326e-06 0.112478)
(-1.27754e-05 -7.34146e-06 0.112529)
(-2.02209e-05 -9.67011e-06 0.112581)
(-8.74189e-06 -9.42546e-06 0.11263)
(-1.03254e-05 -1.04825e-05 0.11267)
(-5.74695e-07 -1.05086e-05 0.112694)
(-0.00490882 0.000169641 0.0213286)
(-0.000264374 3.53375e-05 0.0882741)
(0.000188263 -1.80175e-06 0.112817)
(-0.00014794 1.4156e-05 0.112293)
(7.60438e-05 4.79346e-06 0.111953)
(-8.04112e-05 5.65758e-06 0.112157)
(1.81019e-05 2.88162e-06 0.1123)
(-4.48671e-05 1.58246e-06 0.112375)
(-9.04313e-06 1.07694e-06 0.112437)
(-3.08091e-05 2.38364e-07 0.112491)
(-1.32354e-05 3.60195e-07 0.112543)
(-2.06598e-05 -2.42213e-07 0.112595)
(-8.99623e-06 -1.99397e-07 0.112647)
(-1.06476e-05 -4.75813e-07 0.112694)
(-4.97129e-07 -2.5833e-07 0.112725)
(0.000528112 -0.00387035 0.0146124)
(0.00017812 -0.0049094 0.0213282)
(0.000617297 -0.00166028 0.0143358)
(-0.00363568 -0.00433642 0.0215709)
(-0.000344684 -0.000492786 0.0752368)
(0.00011561 -0.000169277 0.0937997)
(-9.46246e-05 -0.000266092 0.0889272)
(3.45123e-05 -0.000256875 0.0882734)
(0.000944696 -0.00285218 0.0145804)
(-0.00432895 -0.00493808 0.0264486)
(-0.000391121 -0.000335819 0.072075)
(0.000190406 -0.000276294 0.0886243)
(0.000154159 0.000388394 0.113432)
(3.72847e-05 0.000103187 0.116108)
(5.60146e-05 0.000224847 0.113262)
(1.0927e-05 0.000188884 0.112814)
(-0.00235857 -0.00506599 0.0177346)
(-0.00040192 -0.00039489 0.073766)
(2.99809e-05 -0.000367737 0.0876389)
(9.30085e-05 0.00027252 0.112166)
(-0.000179468 5.31552e-05 0.114027)
(-0.000130439 -0.000135147 0.114733)
(-3.99725e-05 -0.000109025 0.113453)
(-6.14575e-05 -0.000144962 0.112538)
(2.84951e-06 -0.000149498 0.112293)
(-0.000587089 -0.000467604 0.0705785)
(0.000231733 -0.000345477 0.0887704)
(0.000135039 0.000311321 0.112402)
(-9.71772e-05 9.11791e-05 0.113547)
(-5.3657e-05 -3.34952e-05 0.114242)
(7.12612e-05 -5.68687e-05 0.113115)
(4.18302e-05 5.58329e-05 0.112593)
(3.47694e-05 3.85051e-05 0.112307)
(2.09205e-05 8.25316e-05 0.112102)
(8.59949e-06 7.90747e-05 0.111953)
(-0.00046902 -0.000587256 0.0705357)
(0.000568149 0.000568104 0.112538)
(-0.000287896 5.61129e-05 0.11357)
(-2.50618e-06 -3.8866e-05 0.113768)
(2.34934e-06 -9.22943e-05 0.112666)
(2.60293e-05 7.1419e-07 0.112219)
(-2.18269e-05 -3.3039e-05 0.112192)
(-3.32094e-05 -5.07369e-05 0.112292)
(-2.02063e-05 -6.24297e-05 0.112317)
(-2.48539e-05 -7.45714e-05 0.112241)
(-1.63086e-06 -8.0501e-05 0.112159)
(-0.00506946 -0.00235681 0.01773)
(-0.000345707 0.000232982 0.0887443)
(5.51918e-05 -0.000287201 0.113561)
(2.46744e-05 2.53234e-05 0.11263)
(5.60057e-05 2.2939e-06 0.111782)
(6.03866e-06 1.62011e-05 0.11182)
(4.17172e-06 -2.47043e-06 0.112006)
(1.4526e-05 -9.49687e-06 0.112201)
(8.15076e-06 1.18266e-05 0.112326)
(1.08858e-05 9.68057e-06 0.112357)
(4.45216e-06 2.29881e-05 0.11233)
(3.25993e-06 2.39833e-05 0.112301)
(-0.00285289 0.000944932 0.0145805)
(-0.000395707 -0.000400958 0.0737581)
(0.000310098 0.000136513 0.112388)
(-4.0434e-05 -5.3611e-07 0.11376)
(1.48939e-06 5.70551e-05 0.111782)
(-1.38699e-05 -1.2406e-05 0.111682)
(-6.0558e-06 -1.06287e-05 0.111934)
(-5.04474e-06 -1.56012e-05 0.112116)
(-9.62603e-06 -2.22526e-05 0.112248)
(-1.42689e-05 -2.98417e-05 0.112334)
(-9.17235e-06 -3.4981e-05 0.112371)
(-1.08985e-05 -3.99465e-05 0.112376)
(-7.48091e-07 -4.22551e-05 0.112373)
(-0.00493906 -0.00432867 0.0264487)
(-0.000368537 3.13969e-05 0.0876311)
(9.14094e-05 -9.60865e-05 0.113538)
(-9.34436e-05 2.32786e-06 0.112658)
(1.51217e-05 6.27285e-06 0.11182)
(-1.16758e-05 -5.6902e-06 0.111935)
(9.36705e-07 1.45439e-06 0.112086)
(-7.82783e-06 -6.9783e-06 0.112196)
(4.45746e-07 -7.90728e-06 0.112288)
(-4.36458e-06 -6.08963e-06 0.112361)
(9.20998e-07 -6.21466e-06 0.112405)
(-2.70071e-06 -3.1939e-06 0.112426)
(9.53132e-07 -2.87526e-06 0.112435)
(-0.00166015 0.000616656 0.014336)
(-0.00033618 -0.000389865 0.0720747)
(0.000270596 9.44715e-05 0.112162)
(-3.64993e-05 -5.16112e-05 0.114238)
(-1.58632e-06 2.8623e-05 0.112214)
(-2.88279e-06 4.979e-06 0.112005)
(-1.68066e-05 -3.45224e-06 0.112117)
(-7.34725e-06 -7.34544e-06 0.112196)
(-1.42304e-05 -1.35813e-05 0.112271)
(-8.63327e-06 -1.66274e-05 0.112343)
(-1.25284e-05 -2.10349e-05 0.112405)
(-6.31065e-06 -2.34701e-05 0.112449)
(-7.60186e-06 -2.58485e-05 0.112475)
(-3.78409e-07 -2.69119e-05 0.112488)
(-0.00433648 -0.00363544 0.0215712)
(-0.000276845 0.000190938 0.0886231)
(5.24079e-05 -0.00018307 0.114026)
(-5.54407e-05 7.22424e-05 0.113113)
(-3.54036e-05 -2.46642e-05 0.112189)
(-1.16056e-05 1.47095e-05 0.1122)
(-2.36394e-05 -1.08065e-05 0.112248)
(-9.37544e-06 9.61854e-07 0.112288)
(-1.7113e-05 -8.76903e-06 0.112343)
(-7.01886e-06 -6.23821e-06 0.112402)
(-1.1203e-05 -8.96459e-06 0.112455)
(-3.88601e-06 -8.40593e-06 0.112496)
(-6.12729e-06 -8.85607e-06 0.112524)
(5.80476e-08 -8.78283e-06 0.112538)
(-0.000495772 -0.000344061 0.0752379)
(0.000383414 0.000152859 0.113435)
(-0.000136296 -0.000124829 0.114736)
(5.3718e-05 3.68951e-05 0.112594)
(-5.38288e-05 -3.23817e-05 0.112292)
(1.30532e-05 6.57144e-06 0.112325)
(-3.07233e-05 -1.47058e-05 0.112333)
(-5.41582e-06 -4.77224e-06 0.112361)
(-2.14252e-05 -1.29305e-05 0.112405)
(-8.82987e-06 -1.12592e-05 0.112456)
(-1.46865e-05 -1.49832e-05 0.112505)
(-6.20135e-06 -1.5313e-05 0.112545)
(-7.97816e-06 -1.69166e-05 0.112574)
(-2.70023e-07 -1.72947e-05 0.112589)
(-0.000175821 0.000118175 0.0938038)
(0.000106785 4.19589e-05 0.116112)
(-0.000113149 -4.5166e-05 0.113454)
(3.52808e-05 3.34891e-05 0.112308)
(-6.14741e-05 -2.2212e-05 0.112317)
(6.2791e-06 1.0797e-05 0.112357)
(-3.52004e-05 -9.73762e-06 0.112371)
(-7.65747e-06 1.28551e-06 0.112405)
(-2.36044e-05 -6.42301e-06 0.112449)
(-9.0833e-06 -3.17958e-06 0.112497)
(-1.52572e-05 -6.20772e-06 0.112547)
(-5.82225e-06 -5.34531e-06 0.11259)
(-8.1087e-06 -6.25709e-06 0.112622)
(-2.42872e-07 -6.10931e-06 0.11264)
(-0.00386997 0.00053036 0.0146113)
(-0.000272365 -9.86738e-05 0.0889311)
(0.000211503 4.44558e-05 0.113269)
(-0.000151959 -6.99216e-05 0.112543)
(8.37125e-05 1.72146e-05 0.112104)
(-7.6465e-05 -3.0271e-05 0.112242)
(2.56658e-05 2.46985e-06 0.11233)
(-4.03684e-05 -1.30477e-05 0.112375)
(-2.06287e-06 -3.5738e-06 0.112425)
(-2.58951e-05 -8.42944e-06 0.112475)
(-8.61234e-06 -6.13546e-06 0.112524)
(-1.68503e-05 -8.33975e-06 0.112576)
(-6.2515e-06 -7.9752e-06 0.112624)
(-8.74234e-06 -8.91863e-06 0.112664)
(-1.46714e-07 -8.91101e-06 0.112688)
(-0.00490938 0.000172554 0.0213286)
(-0.000263299 3.63893e-05 0.0882766)
(0.000188991 -3.33132e-07 0.112819)
(-0.000145412 1.41645e-05 0.112294)
(7.89952e-05 5.60728e-06 0.111953)
(-7.77899e-05 5.46201e-06 0.112158)
(2.38548e-05 3.10511e-06 0.1123)
(-4.13643e-05 2.03704e-06 0.112373)
(-2.99734e-06 1.44108e-06 0.112434)
(-2.61794e-05 6.47939e-07 0.112487)
(-8.99396e-06 7.00736e-07 0.112538)
(-1.70963e-05 2.75165e-07 0.11259)
(-6.4e-06 3.85501e-07 0.112641)
(-9.04456e-06 1.26438e-07 0.112688)
(-3.41927e-08 3.29427e-07 0.112719)
(0.000528055 -0.00387031 0.0146126)
(0.000178065 -0.00490939 0.0213287)
(0.000617164 -0.00166033 0.0143362)
(-0.00363579 -0.00433653 0.0215716)
(-0.000344861 -0.000492058 0.0752389)
(0.00011577 -0.000168216 0.0938023)
(-9.44084e-05 -0.000265397 0.0889296)
(3.44905e-05 -0.000256493 0.0882761)
(0.000944701 -0.00285216 0.0145807)
(-0.00432909 -0.0049381 0.0264494)
(-0.000390745 -0.000335696 0.0720766)
(0.00019079 -0.00027581 0.0886258)
(0.000155336 0.000389103 0.113434)
(3.83019e-05 0.000103543 0.116109)
(5.64065e-05 0.000225295 0.113264)
(1.12402e-05 0.000189167 0.112816)
(-0.00235871 -0.00506605 0.017735)
(-0.000402279 -0.000395014 0.0737679)
(2.99549e-05 -0.00036728 0.0876407)
(9.30115e-05 0.00027349 0.112169)
(-0.000179469 5.39488e-05 0.11403)
(-0.000130811 -0.0001332 0.114736)
(-3.99975e-05 -0.000107372 0.113455)
(-6.11752e-05 -0.000143234 0.11254)
(2.80426e-06 -0.000147391 0.112296)
(-0.000587121 -0.00046802 0.07058)
(0.000232362 -0.000345544 0.0887719)
(0.000135807 0.000311863 0.112404)
(-9.62578e-05 9.18052e-05 0.113549)
(-5.33687e-05 -3.18295e-05 0.114244)
(7.26108e-05 -5.52106e-05 0.113116)
(4.38567e-05 5.77613e-05 0.112594)
(3.55964e-05 4.06688e-05 0.112308)
(2.18081e-05 8.47514e-05 0.112102)
(9.29841e-06 8.13033e-05 0.111953)
(-0.00046938 -0.000587511 0.0705372)
(0.000568282 0.000568205 0.11254)
(-0.000287057 5.64355e-05 0.113572)
(-2.07472e-06 -3.80387e-05 0.11377)
(3.44214e-06 -9.11464e-05 0.112668)
(2.70509e-05 1.96664e-06 0.11222)
(-2.15217e-05 -3.11673e-05 0.112193)
(-3.30754e-05 -4.84011e-05 0.112293)
(-1.99727e-05 -6.03544e-05 0.112319)
(-2.45339e-05 -7.16738e-05 0.112242)
(-1.69444e-06 -7.80865e-05 0.11216)
(-0.00506953 -0.00235696 0.0177304)
(-0.000345749 0.000233526 0.0887457)
(5.55631e-05 -0.00028652 0.113563)
(2.60717e-05 2.67232e-05 0.112631)
(5.75905e-05 3.71344e-06 0.111783)
(7.37527e-06 1.85721e-05 0.111821)
(5.18781e-06 5.06821e-08 0.112007)
(1.69589e-05 -6.58032e-06 0.112202)
(1.03745e-05 1.53953e-05 0.112326)
(1.22873e-05 1.35372e-05 0.112357)
(5.70217e-06 2.70309e-05 0.11233)
(3.57791e-06 2.80923e-05 0.1123)
(-0.00285291 0.00094497 0.0145809)
(-0.000395727 -0.000401408 0.0737599)
(0.000310734 0.000137163 0.11239)
(-3.94443e-05 -2.55854e-07 0.113761)
(3.06513e-06 5.84167e-05 0.111783)
(-1.24708e-05 -1.11191e-05 0.111683)
(-3.86134e-06 -8.67662e-06 0.111934)
(-3.47693e-06 -1.30279e-05 0.112116)
(-8.27427e-06 -1.93042e-05 0.112247)
(-1.3201e-05 -2.74162e-05 0.112333)
(-8.4729e-06 -3.24193e-05 0.11237)
(-1.03325e-05 -3.77345e-05 0.112375)
(-6.92462e-07 -4.01302e-05 0.112372)
(-0.00493907 -0.00432881 0.0264495)
(-0.000367965 3.09693e-05 0.0876327)
(9.20673e-05 -9.51965e-05 0.113539)
(-9.23566e-05 3.41125e-06 0.11266)
(1.75257e-05 7.91919e-06 0.111821)
(-9.49953e-06 -3.63634e-06 0.111935)
(3.55652e-06 3.94366e-06 0.112085)
(-5.81744e-06 -4.09573e-06 0.112195)
(2.72532e-06 -4.39951e-06 0.112287)
(-2.53285e-06 -1.98275e-06 0.11236)
(2.11285e-06 -1.55822e-06 0.112403)
(-1.88107e-06 1.82489e-06 0.112424)
(1.12737e-06 2.26834e-06 0.112433)
(-0.00166026 0.000616651 0.0143364)
(-0.000336147 -0.000389649 0.0720757)
(0.000271864 9.44439e-05 0.112164)
(-3.42885e-05 -5.15317e-05 0.114239)
(1.62566e-07 2.91943e-05 0.112215)
(-3.39523e-07 6.21315e-06 0.112006)
(-1.45598e-05 -1.60703e-06 0.112116)
(-4.32279e-06 -5.42535e-06 0.112195)
(-1.16437e-05 -1.07442e-05 0.11227)
(-6.0598e-06 -1.35768e-05 0.112341)
(-1.03136e-05 -1.77482e-05 0.112403)
(-4.6998e-06 -1.98963e-05 0.112446)
(-6.54985e-06 -2.21794e-05 0.112473)
(-1.55783e-07 -2.32015e-05 0.112485)
(-0.00433665 -0.00363568 0.0215719)
(-0.000275957 0.000191282 0.0886238)
(5.34171e-05 -0.000182343 0.114028)
(-5.41722e-05 7.3667e-05 0.113113)
(-3.31699e-05 -2.38406e-05 0.11219)
(-7.92568e-06 1.66806e-05 0.1122)
(-2.07729e-05 -9.55894e-06 0.112246)
(-5.76433e-06 2.87009e-06 0.112286)
(-1.39713e-05 -6.15608e-06 0.112341)
(-4.29197e-06 -3.52606e-06 0.112399)
(-8.85119e-06 -6.006e-06 0.112452)
(-2.31348e-06 -5.32657e-06 0.112493)
(-5.17246e-06 -5.77533e-06 0.112521)
(2.52561e-07 -5.60568e-06 0.112534)
(-0.000493833 -0.00034439 0.0752387)
(0.000385332 0.00015373 0.113435)
(-0.000133961 -0.000126553 0.114737)
(5.59288e-05 3.90464e-05 0.112594)
(-5.15412e-05 -3.21678e-05 0.112294)
(1.60262e-05 8.5566e-06 0.112325)
(-2.85316e-05 -1.37577e-05 0.112332)
(-1.02295e-06 -3.13146e-06 0.112359)
(-1.80325e-05 -1.0766e-05 0.112403)
(-5.91064e-06 -9.00736e-06 0.112453)
(-1.2105e-05 -1.24986e-05 0.112503)
(-4.46864e-06 -1.27152e-05 0.112542)
(-6.82872e-06 -1.41726e-05 0.11257)
(4.76447e-08 -1.43829e-05 0.112585)