/*--------------------------------*- C++ -*----------------------------------*\
| =========                 |                                                 |
| \\      /  F ield         | OpenFOAM: The Open Source CFD Toolbox           |
|  \\    /   O peration     | Version:  2.1.1                                 |
|   \\  /    A nd           | Web:      www.OpenFOAM.org                      |
|    \\/     M anipulation  |                                                 |
\*---------------------------------------------------------------------------*/
FoamFile
{
    version     2.0;
    format      ascii;
    class       volVectorField;
    location    "0.001";
    object      U;
}
// * * * * * * * * * * * * * * * * * * * * * * * * * * * * * * * * * * * * * //

dimensions      [0 1 -1 0 0 0 0];

internalField   nonuniform List<vector> 
10339
(
(-9.54351e-06 -9.98229e-07 0.112201)
(-9.81171e-07 -9.55613e-06 0.112203)
(-8.82014e-06 -8.78818e-06 0.112317)
(-1.0872e-05 -8.43451e-06 0.112291)
(-2.77004e-05 -8.32916e-06 0.112254)
(-2.30276e-05 -7.42426e-06 0.112212)
(-4.3829e-05 -7.64631e-06 0.112172)
(-2.52629e-05 -6.06618e-06 0.112129)
(-5.79519e-05 -7.54458e-06 0.112086)
(-1.12907e-05 -4.83771e-06 0.112035)
(-7.52744e-05 -8.7209e-06 0.111971)
(2.62216e-05 -4.00275e-06 0.111867)
(-0.000115308 -1.14735e-05 0.111697)
(0.000104574 -6.58008e-06 0.111831)
(-0.000199397 -1.45575e-05 0.112439)
(0.000236374 -3.55813e-05 0.0910918)
(0.00151153 -1.82741e-05 0.0293041)
(-8.40099e-06 -1.08173e-05 0.112291)
(-1.05394e-05 -1.05043e-05 0.112272)
(-2.65607e-05 -1.07853e-05 0.112239)
(-2.2436e-05 -9.26111e-06 0.1122)
(-4.23251e-05 -1.10022e-05 0.11216)
(-2.50201e-05 -6.72535e-06 0.112119)
(-5.6661e-05 -1.21488e-05 0.112079)
(-1.27705e-05 -9.53934e-07 0.112036)
(-7.45417e-05 -1.71085e-05 0.111994)
(2.26249e-05 1.3996e-05 0.111933)
(-0.000117061 -3.03915e-05 0.111839)
(9.8807e-05 5.29536e-05 0.112035)
(-0.00023307 -5.8798e-05 0.11268)
(0.000250338 9.12025e-05 0.0915066)
(0.00151933 -0.000113553 0.0296557)
(-8.32203e-06 -2.76312e-05 0.112254)
(-1.08397e-05 -2.6548e-05 0.112241)
(-2.64658e-05 -2.64164e-05 0.112214)
(-2.32305e-05 -2.31537e-05 0.112177)
(-4.12904e-05 -2.49368e-05 0.112138)
(-2.64215e-05 -1.76405e-05 0.112098)
(-5.21124e-05 -2.55097e-05 0.112062)
(-1.64684e-05 -8.9842e-06 0.112031)
(-5.99411e-05 -3.08289e-05 0.112015)
(1.10337e-05 6.7382e-06 0.112006)
(-7.33313e-05 -4.49143e-05 0.111996)
(6.79268e-05 2.88016e-05 0.112585)
(-0.000108407 -4.89007e-05 0.114923)
(0.000143981 -0.000117212 0.0964529)
(0.000136471 -0.00209805 0.0280758)
(-7.45897e-06 -2.29959e-05 0.112213)
(-9.32158e-06 -2.24375e-05 0.112202)
(-2.31741e-05 -2.31973e-05 0.112179)
(-2.09386e-05 -2.09088e-05 0.112145)
(-3.67859e-05 -2.35481e-05 0.112104)
(-2.55433e-05 -1.7417e-05 0.112062)
(-4.78823e-05 -2.50278e-05 0.112026)
(-1.8168e-05 -9.08089e-06 0.111999)
(-5.84927e-05 -3.23259e-05 0.111994)
(7.50933e-06 1.327e-05 0.111993)
(-8.94873e-05 -6.2339e-05 0.112121)
(9.14893e-05 0.000110842 0.113564)
(-0.000386377 -0.000174652 0.113489)
(0.000470976 0.000359625 0.0782152)
(-0.00804552 -0.00324127 0.024777)
(-7.68248e-06 -4.37901e-05 0.112172)
(-1.10504e-05 -4.22688e-05 0.112161)
(-2.49516e-05 -4.12234e-05 0.112139)
(-2.35932e-05 -3.67415e-05 0.112105)
(-3.77926e-05 -3.77326e-05 0.112061)
(-2.78149e-05 -2.76463e-05 0.112012)
(-4.36676e-05 -3.77734e-05 0.111966)
(-2.36762e-05 -1.40146e-05 0.111929)
(-3.74325e-05 -4.58267e-05 0.111908)
(-1.67959e-05 1.45353e-05 0.111891)
(2.64764e-05 -9.45004e-05 0.112393)
(-8.31577e-05 0.000158207 0.11341)
(0.000263585 -0.000210314 0.0911387)
(-0.001365 -0.00212383 0.0388194)
(0.00208719 0.0034189 0.011858)
(-6.08292e-06 -2.52062e-05 0.112129)
(-6.7662e-06 -2.49504e-05 0.112119)
(-1.76668e-05 -2.63196e-05 0.112098)
(-1.74634e-05 -2.546e-05 0.112063)
(-2.76939e-05 -2.76912e-05 0.112013)
(-2.55055e-05 -2.53805e-05 0.111953)
(-3.41519e-05 -2.63121e-05 0.111889)
(-2.60164e-05 -2.37763e-05 0.111829)
(-2.89654e-05 -2.23038e-05 0.111766)
(-3.64471e-05 -4.90188e-05 0.111814)
(8.22575e-06 5.05094e-05 0.113184)
(-0.000291241 -0.000123895 0.112582)
(0.000326776 0.000392507 0.0754555)
(0.000782867 0.00287756 0.0322385)
(-7.54768e-06 -5.78967e-05 0.112086)
(-1.21504e-05 -5.65978e-05 0.11208)
(-2.55023e-05 -5.20049e-05 0.112063)
(-2.50475e-05 -4.77736e-05 0.112027)
(-3.77982e-05 -4.35555e-05 0.111967)
(-2.6447e-05 -3.40182e-05 0.11189)
(-4.21149e-05 -4.20322e-05 0.111801)
(-1.94677e-05 -2.19783e-05 0.111699)
(-5.98378e-05 -3.01086e-05 0.111606)
(5.9341e-05 -1.48798e-05 0.112048)
(-0.000107747 6.57029e-05 0.113007)
(0.000341522 -6.53186e-05 0.090125)
(-0.00154727 -0.00227741 0.0359144)
(0.00318758 0.00277469 0.0185938)
(-4.83869e-06 -1.12582e-05 0.112035)
(-9.43658e-07 -1.27046e-05 0.112037)
(-8.96406e-06 -1.63661e-05 0.112032)
(-9.11515e-06 -1.8092e-05 0.112)
(-1.40283e-05 -2.34826e-05 0.111931)
(-2.39408e-05 -2.59881e-05 0.111832)
(-2.21239e-05 -1.9148e-05 0.111703)
(-1.29669e-05 -1.30139e-05 0.111527)
(-1.90515e-05 -8.98176e-05 0.111461)
(1.62338e-05 -1.37533e-05 0.112791)
(-0.000328715 -0.0001827 0.112755)
(0.000389202 0.000406538 0.0771118)
(0.000664667 0.00196405 0.031896)
(-8.68879e-06 -7.52243e-05 0.111971)
(-1.70388e-05 -7.44803e-05 0.111995)
(-3.08124e-05 -5.98945e-05 0.112016)
(-3.22522e-05 -5.84291e-05 0.111996)
(-4.58932e-05 -3.73987e-05 0.111911)
(-2.23067e-05 -2.89127e-05 0.11177)
(-3.02652e-05 -6.00332e-05 0.111612)
(-9.01777e-05 -2.05543e-05 0.111467)
(-5.77982e-05 -5.77519e-05 0.111957)
(-7.75359e-05 0.000256581 0.112979)
(0.000340224 -0.000255517 0.0911512)
(-0.00110819 -0.00352994 0.0385981)
(0.00114081 0.000852888 0.0142849)
(-3.98135e-06 2.62743e-05 0.111867)
(1.40045e-05 2.2661e-05 0.111934)
(6.75843e-06 1.10934e-05 0.112007)
(1.32206e-05 7.57198e-06 0.111995)
(1.45258e-05 -1.66945e-05 0.111894)
(-4.93803e-05 -3.64424e-05 0.111818)
(-1.65663e-05 5.97782e-05 0.112055)
(-1.38162e-05 1.5883e-05 0.112798)
(0.000257713 -7.23377e-05 0.112993)
(-0.000546262 -0.000545189 0.113075)
(0.000449979 0.000579294 0.0732609)
(-0.000716363 -0.00565011 0.02632)
(-1.14444e-05 -0.000115269 0.111697)
(-3.03045e-05 -0.000117001 0.11184)
(-4.48704e-05 -7.32552e-05 0.111997)
(-6.22212e-05 -8.93959e-05 0.112122)
(-9.46024e-05 2.66926e-05 0.112396)
(5.08645e-05 8.4415e-06 0.113186)
(6.49261e-05 -0.000106827 0.113011)
(-0.00017975 -0.000323988 0.11276)
(-0.000254723 0.000351734 0.0911535)
(0.00057748 0.000455241 0.0733045)
(-0.011278 -0.0112663 0.0324754)
(-6.52824e-06 0.000104579 0.111831)
(5.29993e-05 9.88448e-05 0.112036)
(2.88492e-05 6.79421e-05 0.112586)
(0.000110944 9.15674e-05 0.113565)
(0.000158334 -8.31173e-05 0.113411)
(-0.000123681 -0.000290905 0.112584)
(-6.36815e-05 0.000341656 0.0901283)
(0.000410635 0.00039094 0.077117)
(-0.00353064 -0.00110718 0.0386064)
(-0.00562928 -0.00071559 0.0263483)
(-1.45022e-05 -0.000199356 0.112438)
(-5.87173e-05 -0.000232984 0.11268)
(-4.8818e-05 -0.000108294 0.114923)
(-0.000174495 -0.000386362 0.113489)
(-0.000210193 0.000263525 0.091139)
(0.000392599 0.00032683 0.0754554)
(-0.00227713 -0.00154727 0.0359145)
(0.00196448 0.000664504 0.0318961)
(0.000853146 0.00114104 0.0142871)
(-3.54928e-05 0.000236408 0.0910912)
(9.12994e-05 0.000250337 0.0915059)
(-0.000117231 0.00014402 0.0964523)
(0.000359624 0.000471018 0.078215)
(-0.00212382 -0.00136506 0.0388195)
(0.00287756 0.000782865 0.0322385)
(0.0027747 0.0031877 0.0185938)
(-1.89974e-05 0.00151118 0.0293018)
(-0.000113408 0.00151921 0.0296553)
(-0.00209794 0.000136448 0.0280753)
(-0.0032412 -0.00804562 0.024777)
(0.00341896 0.00208718 0.011858)
(-9.398e-06 -9.34949e-06 0.11232)
(-1.32178e-05 -9.36349e-06 0.112294)
(-3.11133e-05 -9.18005e-06 0.112257)
(-2.71136e-05 -8.17768e-06 0.112215)
(-4.86645e-05 -8.28733e-06 0.112175)
(-3.02279e-05 -6.61613e-06 0.112131)
(-6.35997e-05 -8.05731e-06 0.112089)
(-1.68392e-05 -5.36557e-06 0.112036)
(-8.07754e-05 -9.24338e-06 0.111973)
(2.16546e-05 -4.65059e-06 0.111866)
(-0.000119454 -1.14237e-05 0.111697)
(0.000101261 -8.38222e-06 0.111829)
(-0.000202729 -1.3804e-05 0.112437)
(0.000234458 -3.53961e-05 0.0910861)
(0.00151328 -1.78496e-05 0.02931)
(-9.35203e-06 -1.31462e-05 0.112294)
(-1.24445e-05 -1.24001e-05 0.112274)
(-2.9761e-05 -1.26503e-05 0.112242)
(-2.62149e-05 -1.08222e-05 0.112202)
(-4.7051e-05 -1.25102e-05 0.112163)
(-2.99365e-05 -8.08146e-06 0.112121)
(-6.21999e-05 -1.35402e-05 0.112082)
(-1.81124e-05 -2.07249e-06 0.112037)
(-8.01649e-05 -1.8311e-05 0.111996)
(1.83626e-05 1.29464e-05 0.111932)
(-0.000122596 -3.17703e-05 0.111839)
(9.62058e-05 5.30856e-05 0.112031)
(-0.000234336 -5.94063e-05 0.112678)
(0.000247995 9.04012e-05 0.0915018)
(0.00152087 -0.000113727 0.029662)
(-9.18312e-06 -3.1067e-05 0.112257)
(-1.2721e-05 -2.97671e-05 0.112243)
(-2.9544e-05 -2.94796e-05 0.112217)
(-2.69536e-05 -2.59097e-05 0.11218)
(-4.59183e-05 -2.75002e-05 0.112141)
(-3.12663e-05 -1.98083e-05 0.1121)
(-5.75167e-05 -2.74908e-05 0.112065)
(-2.18378e-05 -1.05598e-05 0.112032)
(-6.53956e-05 -3.22613e-05 0.112016)
(6.2091e-06 5.56975e-06 0.112005)
(-7.63745e-05 -4.55334e-05 0.111995)
(6.52236e-05 2.83059e-05 0.112584)
(-0.000113129 -4.87933e-05 0.114919)
(0.00014204 -0.000117056 0.0964487)
(0.00013673 -0.00209842 0.028081)
(-8.21073e-06 -2.70907e-05 0.112215)
(-1.08555e-05 -2.62195e-05 0.112204)
(-2.59134e-05 -2.69145e-05 0.112181)
(-2.42137e-05 -2.4183e-05 0.112146)
(-4.09167e-05 -2.66999e-05 0.112107)
(-2.98627e-05 -2.01388e-05 0.112063)
(-5.28083e-05 -2.76444e-05 0.112028)
(-2.29507e-05 -1.14116e-05 0.111999)
(-6.37065e-05 -3.42401e-05 0.111995)
(4.02745e-06 1.07428e-05 0.111991)
(-9.44024e-05 -6.44808e-05 0.11212)
(8.93109e-05 0.000108523 0.113559)
(-0.000386953 -0.00017848 0.113487)
(0.000468232 0.000359707 0.0782104)
(-0.00804603 -0.00324152 0.0247815)
(-8.3341e-06 -4.8618e-05 0.112175)
(-1.25595e-05 -4.69844e-05 0.112164)
(-2.75252e-05 -4.58637e-05 0.112142)
(-2.67537e-05 -4.08864e-05 0.112108)
(-4.1861e-05 -4.17962e-05 0.112064)
(-3.21022e-05 -3.09699e-05 0.112014)
(-4.86473e-05 -4.10073e-05 0.111968)
(-2.83035e-05 -1.62503e-05 0.111929)
(-4.30331e-05 -4.79642e-05 0.111908)
(-2.17965e-05 1.35292e-05 0.111889)
(2.36741e-05 -9.64021e-05 0.112391)
(-8.73949e-05 0.000159466 0.113406)
(0.000262647 -0.00021576 0.0911345)
(-0.00136358 -0.00212378 0.0388264)
(0.00208779 0.00341879 0.0118608)
(-6.62909e-06 -3.01878e-05 0.112131)
(-8.1177e-06 -2.98765e-05 0.112121)
(-1.98408e-05 -3.11754e-05 0.1121)
(-2.01708e-05 -2.97927e-05 0.112064)
(-3.10044e-05 -3.19852e-05 0.112015)
(-2.89835e-05 -2.88901e-05 0.111954)
(-3.79621e-05 -2.98517e-05 0.11189)
(-2.9642e-05 -2.67089e-05 0.111828)
(-3.2872e-05 -2.47971e-05 0.111766)
(-3.96146e-05 -5.07897e-05 0.111811)
(5.53496e-06 5.13859e-05 0.113181)
(-0.000297095 -0.000126185 0.112576)
(0.000325097 0.000393513 0.0754505)
(0.000784317 0.00287775 0.032243)
(-8.06596e-06 -6.35376e-05 0.112089)
(-1.35367e-05 -6.21268e-05 0.112082)
(-2.74949e-05 -5.74076e-05 0.112066)
(-2.76676e-05 -5.27066e-05 0.112029)
(-4.10574e-05 -4.85238e-05 0.111969)
(-2.99829e-05 -3.78542e-05 0.111891)
(-4.65079e-05 -4.62934e-05 0.111802)
(-2.29941e-05 -2.41443e-05 0.111699)
(-6.41997e-05 -3.36991e-05 0.111603)
(5.777e-05 -1.3681e-05 0.112046)
(-0.000111008 6.34133e-05 0.113002)
(0.000338214 -7.24322e-05 0.0901233)
(-0.00154636 -0.00227624 0.0359208)
(0.00318849 0.00277453 0.0185967)
(-5.35527e-06 -1.6796e-05 0.112036)
(-2.06298e-06 -1.80434e-05 0.112038)
(-1.05623e-05 -2.17522e-05 0.112033)
(-1.1419e-05 -2.28873e-05 0.112001)
(-1.62666e-05 -2.81329e-05 0.111932)
(-2.67226e-05 -2.96458e-05 0.111832)
(-2.42713e-05 -2.26846e-05 0.111703)
(-1.5891e-05 -1.60181e-05 0.111527)
(-1.95433e-05 -9.26359e-05 0.11146)
(1.43794e-05 -1.99518e-05 0.112787)
(-0.000340207 -0.000188084 0.112752)
(0.000386732 0.000405313 0.077106)
(0.00066628 0.00196393 0.0319008)
(-9.22271e-06 -8.07179e-05 0.111973)
(-1.82635e-05 -8.01207e-05 0.111996)
(-3.22726e-05 -6.53409e-05 0.112018)
(-3.41755e-05 -6.36351e-05 0.111997)
(-4.80744e-05 -4.29278e-05 0.111911)
(-2.47912e-05 -3.2859e-05 0.11177)
(-3.40565e-05 -6.38463e-05 0.11161)
(-9.29497e-05 -2.074e-05 0.111467)
(-6.52151e-05 -6.33537e-05 0.111954)
(-8.17393e-05 0.000251691 0.112974)
(0.000340836 -0.000259014 0.0911464)
(-0.00110773 -0.00352829 0.0386048)
(0.0011412 0.000853 0.0142874)
(-4.6378e-06 2.1693e-05 0.111866)
(1.29556e-05 1.83964e-05 0.111933)
(5.59242e-06 6.2843e-06 0.112006)
(1.07841e-05 4.1026e-06 0.111993)
(1.34679e-05 -2.16078e-05 0.111893)
(-5.05321e-05 -3.96251e-05 0.111815)
(-1.49328e-05 5.82321e-05 0.112055)
(-1.82175e-05 1.40419e-05 0.1128)
(0.000252728 -7.71991e-05 0.112985)
(-0.000546525 -0.000543948 0.113067)
(0.000447486 0.000577631 0.0732568)
(-0.000716433 -0.00565054 0.0263248)
(-1.14017e-05 -0.000119424 0.111697)
(-3.16748e-05 -0.000122531 0.111839)
(-4.5502e-05 -7.63053e-05 0.111996)
(-6.43025e-05 -9.43065e-05 0.112121)
(-9.6586e-05 2.37899e-05 0.112393)
(5.17311e-05 5.7587e-06 0.113184)
(6.29137e-05 -0.000110743 0.113007)
(-0.000184713 -0.000336917 0.11276)
(-0.000258715 0.000346647 0.0911426)
(0.000577063 0.000450481 0.0732967)
(-0.0112851 -0.0112656 0.0324803)
(-8.32207e-06 0.000101259 0.111829)
(5.31347e-05 9.62424e-05 0.112032)
(2.8355e-05 6.52363e-05 0.112584)
(0.00010862 8.93765e-05 0.11356)
(0.000159558 -8.74203e-05 0.113407)
(-0.00012569 -0.000296687 0.112577)
(-7.09568e-05 0.000338199 0.0901251)
(0.000408262 0.000387908 0.0771091)
(-0.00353841 -0.00110929 0.038608)
(-0.00562259 -0.000719817 0.0263392)
(-1.37525e-05 -0.000202702 0.112437)
(-5.93136e-05 -0.000234254 0.112677)
(-4.87324e-05 -0.000113041 0.114919)
(-0.000178323 -0.000386945 0.113487)
(-0.000215613 0.000262626 0.0911347)
(0.000393623 0.000325193 0.0754503)
(-0.00227612 -0.00154639 0.035921)
(0.00196363 0.000666047 0.0319009)
(0.000852523 0.00114218 0.0142885)
(-3.5318e-05 0.000234497 0.0910855)
(9.04894e-05 0.000247988 0.0915011)
(-0.000117077 0.000142077 0.0964481)
(0.000359736 0.000468299 0.0782102)
(-0.00212375 -0.0013636 0.0388265)
(0.00287772 0.000784341 0.032243)
(0.00277455 0.0031886 0.0185967)
(-1.85662e-05 0.00151293 0.0293076)
(-0.000113582 0.00152075 0.0296616)
(-0.00209833 0.000136733 0.0280805)
(-0.00324145 -0.00804613 0.0247815)
(0.00341884 0.00208778 0.0118608)
(-1.05543e-05 -1.04849e-05 0.112318)
(-1.49954e-05 -1.03655e-05 0.112293)
(-3.47725e-05 -9.99218e-06 0.112256)
(-3.09189e-05 -8.88362e-06 0.112214)
(-5.34183e-05 -8.93151e-06 0.112175)
(-3.47039e-05 -7.24395e-06 0.112131)
(-6.90318e-05 -8.59489e-06 0.112091)
(-2.20666e-05 -5.7651e-06 0.112036)
(-8.62668e-05 -9.45126e-06 0.111975)
(1.68527e-05 -5.35421e-06 0.111865)
(-0.00012378 -1.14096e-05 0.111697)
(9.85486e-05 -1.02311e-05 0.111826)
(-0.000207181 -1.40921e-05 0.112437)
(0.000231766 -3.47056e-05 0.0910805)
(0.00151445 -1.78489e-05 0.0293174)
(-1.03717e-05 -1.49283e-05 0.112293)
(-1.42494e-05 -1.4206e-05 0.112273)
(-3.31507e-05 -1.42967e-05 0.112241)
(-2.97765e-05 -1.21537e-05 0.112202)
(-5.17634e-05 -1.38315e-05 0.112164)
(-3.44316e-05 -9.18406e-06 0.11212)
(-6.7444e-05 -1.48155e-05 0.112084)
(-2.31674e-05 -3.0524e-06 0.112037)
(-8.59903e-05 -1.97145e-05 0.111998)
(1.38626e-05 1.21057e-05 0.111931)
(-0.000128126 -3.30652e-05 0.111839)
(9.31122e-05 5.39931e-05 0.112029)
(-0.000236282 -6.14485e-05 0.112675)
(0.000245401 9.10782e-05 0.0914968)
(0.00152231 -0.000113761 0.0296688)
(-1.00051e-05 -3.47212e-05 0.112257)
(-1.43621e-05 -3.31475e-05 0.112243)
(-3.27271e-05 -3.26365e-05 0.112217)
(-3.04234e-05 -2.86263e-05 0.11218)
(-5.04373e-05 -3.01016e-05 0.112142)
(-3.56906e-05 -2.18277e-05 0.1121)
(-6.2817e-05 -2.95447e-05 0.112067)
(-2.72067e-05 -1.22623e-05 0.112032)
(-7.07736e-05 -3.39264e-05 0.112018)
(1.41618e-06 4.27712e-06 0.112004)
(-7.90464e-05 -4.63875e-05 0.111996)
(6.15403e-05 2.63226e-05 0.112581)
(-0.000118155 -4.70403e-05 0.114915)
(0.00014062 -0.000116852 0.0964444)
(0.000137392 -0.002099 0.0280867)
(-8.90813e-06 -3.08935e-05 0.112214)
(-1.21672e-05 -2.97704e-05 0.112203)
(-2.86415e-05 -3.03908e-05 0.112181)
(-2.72128e-05 -2.7174e-05 0.112146)
(-4.49214e-05 -2.97056e-05 0.112107)
(-3.37907e-05 -2.2563e-05 0.112064)
(-5.7708e-05 -3.02957e-05 0.11203)
(-2.76045e-05 -1.36369e-05 0.111999)
(-6.91162e-05 -3.64564e-05 0.111996)
(3.00711e-07 8.20464e-06 0.11199)
(-0.000100687 -6.71476e-05 0.11212)
(8.8445e-05 0.000105127 0.113554)
(-0.000386711 -0.000182895 0.113486)
(0.000463514 0.000358623 0.0782057)
(-0.00804655 -0.00324248 0.0247868)
(-8.96164e-06 -5.33712e-05 0.112175)
(-1.38834e-05 -5.17089e-05 0.112165)
(-3.01542e-05 -5.04069e-05 0.112143)
(-2.9756e-05 -4.48988e-05 0.112109)
(-4.58041e-05 -4.57374e-05 0.112066)
(-3.61437e-05 -3.40921e-05 0.112015)
(-5.37072e-05 -4.4395e-05 0.11197)
(-3.31892e-05 -1.85276e-05 0.11193)
(-4.86638e-05 -5.043e-05 0.111909)
(-2.6973e-05 1.1984e-05 0.111889)
(2.02042e-05 -9.8666e-05 0.11239)
(-9.27353e-05 0.000160858 0.113402)
(0.000260532 -0.0002239 0.0911326)
(-0.00136211 -0.00212459 0.0388337)
(0.00208863 0.00341888 0.0118644)
(-7.25082e-06 -3.46573e-05 0.112131)
(-9.22799e-06 -3.43841e-05 0.112121)
(-2.18656e-05 -3.55993e-05 0.112101)
(-2.25796e-05 -3.37176e-05 0.112065)
(-3.412e-05 -3.60305e-05 0.112016)
(-3.2343e-05 -3.22548e-05 0.111954)
(-4.1982e-05 -3.35596e-05 0.111891)
(-3.33001e-05 -2.95003e-05 0.111828)
(-3.74523e-05 -2.80922e-05 0.111766)
(-4.30304e-05 -5.25016e-05 0.111808)
(2.13817e-06 5.12768e-05 0.113179)
(-0.000304409 -0.000128339 0.11257)
(0.000322642 0.000393313 0.0754458)
(0.000785344 0.00287813 0.0322488)
(-8.59981e-06 -6.8966e-05 0.112091)
(-1.48198e-05 -6.73762e-05 0.112084)
(-2.9558e-05 -6.27108e-05 0.112068)
(-3.03186e-05 -5.76074e-05 0.112031)
(-4.44576e-05 -5.35859e-05 0.111971)
(-3.36912e-05 -4.18826e-05 0.111892)
(-5.09825e-05 -5.07284e-05 0.111803)
(-2.73947e-05 -2.63099e-05 0.111699)
(-6.86586e-05 -3.74874e-05 0.111602)
(5.58712e-05 -1.28743e-05 0.112044)
(-0.000114813 6.17957e-05 0.112998)
(0.000333995 -7.92005e-05 0.0901199)
(-0.00154579 -0.00227515 0.0359277)
(0.00318961 0.00277489 0.0185994)
(-5.74331e-06 -2.20339e-05 0.112036)
(-3.05753e-06 -2.31193e-05 0.112038)
(-1.22656e-05 -2.71305e-05 0.112033)
(-1.36254e-05 -2.75419e-05 0.112001)
(-1.85406e-05 -3.30559e-05 0.111932)
(-2.94669e-05 -3.33131e-05 0.111832)
(-2.64315e-05 -2.71293e-05 0.111703)
(-1.88685e-05 -1.89822e-05 0.111525)
(-2.10976e-05 -9.52812e-05 0.111459)
(1.32009e-05 -2.55679e-05 0.112782)
(-0.000351663 -0.000193254 0.112748)
(0.000383364 0.000403476 0.0771028)
(0.000668524 0.00196449 0.0319077)
(-9.44341e-06 -8.62231e-05 0.111975)
(-1.96738e-05 -8.59542e-05 0.111998)
(-3.39277e-05 -7.07017e-05 0.112019)
(-3.6419e-05 -6.90358e-05 0.111998)
(-5.05585e-05 -4.85425e-05 0.111912)
(-2.80926e-05 -3.74255e-05 0.11177)
(-3.78897e-05 -6.83158e-05 0.111609)
(-9.55861e-05 -2.12368e-05 0.111467)
(-7.22342e-05 -7.12136e-05 0.111953)
(-8.59852e-05 0.000248376 0.112972)
(0.000339987 -0.000263503 0.091143)
(-0.00110719 -0.00352616 0.0386122)
(0.00114179 0.000852864 0.0142905)
(-5.33403e-06 1.68731e-05 0.111865)
(1.2132e-05 1.39087e-05 0.111932)
(4.31584e-06 1.49032e-06 0.112005)
(8.26517e-06 3.71049e-07 0.111992)
(1.19372e-05 -2.67731e-05 0.111892)
(-5.2234e-05 -4.30302e-05 0.111813)
(-1.31425e-05 5.62535e-05 0.112052)
(-2.46683e-05 1.31768e-05 0.112796)
(0.000248589 -8.44056e-05 0.112982)
(-0.000544812 -0.000543514 0.113062)
(0.000444719 0.000575734 0.0732536)
(-0.000716316 -0.00565129 0.0263305)
(-1.13821e-05 -0.000123748 0.111697)
(-3.2958e-05 -0.000128061 0.11184)
(-4.63624e-05 -7.89949e-05 0.111996)
(-6.6983e-05 -0.000100614 0.112121)
(-9.88595e-05 2.02803e-05 0.112392)
(5.14639e-05 2.3048e-06 0.113182)
(6.15257e-05 -0.000114791 0.113002)
(-0.00019211 -0.000350882 0.112757)
(-0.000263322 0.000341341 0.091139)
(0.000574972 0.000444542 0.0732916)
(-0.0112875 -0.0112698 0.0324877)
(-1.01661e-05 9.85361e-05 0.111826)
(5.40398e-05 9.31376e-05 0.112029)
(2.63641e-05 6.15389e-05 0.112582)
(0.000105221 8.8492e-05 0.113554)
(0.000160909 -9.27723e-05 0.113403)
(-0.000128058 -0.00030405 0.112571)
(-7.86806e-05 0.000333931 0.0901208)
(0.000404283 0.000383759 0.0771047)
(-0.00353621 -0.00110713 0.0386153)
(-0.00562219 -0.000720988 0.0263463)
(-1.40517e-05 -0.00020717 0.112436)
(-6.13479e-05 -0.000236205 0.112675)
(-4.69922e-05 -0.000118087 0.114915)
(-0.00018275 -0.000386698 0.113486)
(-0.000223786 0.000260511 0.0911327)
(0.000393377 0.00032273 0.0754456)
(-0.00227511 -0.00154583 0.0359279)
(0.00196412 0.000668409 0.0319076)
(0.000852076 0.00114294 0.0142916)
(-3.4645e-05 0.000231802 0.0910798)
(9.11585e-05 0.000245389 0.0914961)
(-0.000116869 0.000140658 0.0964438)
(0.000358652 0.000463586 0.0782056)
(-0.00212457 -0.00136214 0.0388337)
(0.00287811 0.000785368 0.0322488)
(0.00277492 0.00318974 0.0185994)
(-1.85561e-05 0.0015141 0.029315)
(-0.000113621 0.00152219 0.0296684)
(-0.00209892 0.0001374 0.0280863)
(-0.00324243 -0.00804665 0.0247868)
(0.00341893 0.00208863 0.0118644)
(-1.2557e-05 -1.24459e-05 0.112312)
(-1.71303e-05 -1.1594e-05 0.112286)
(-3.84525e-05 -1.09661e-05 0.11225)
(-3.41272e-05 -9.73e-06 0.112208)
(-5.80033e-05 -9.67737e-06 0.112172)
(-3.83408e-05 -7.81955e-06 0.112127)
(-7.36719e-05 -8.99788e-06 0.112091)
(-2.64303e-05 -6.21237e-06 0.112034)
(-9.13751e-05 -9.63613e-06 0.111977)
(1.26925e-05 -5.80924e-06 0.111864)
(-0.000127995 -1.13196e-05 0.111699)
(9.58626e-05 -1.18062e-05 0.111823)
(-0.000211811 -1.42615e-05 0.112435)
(0.00022794 -3.38049e-05 0.0910767)
(0.00151685 -1.83705e-05 0.0293251)
(-1.16021e-05 -1.70644e-05 0.112286)
(-1.59621e-05 -1.59064e-05 0.112267)
(-3.65841e-05 -1.57587e-05 0.112236)
(-3.27711e-05 -1.3276e-05 0.112196)
(-5.60556e-05 -1.49835e-05 0.112161)
(-3.78372e-05 -9.75165e-06 0.112117)
(-7.19499e-05 -1.58323e-05 0.112084)
(-2.73544e-05 -3.72466e-06 0.112036)
(-9.12731e-05 -2.06684e-05 0.112)
(9.86433e-06 1.18277e-05 0.11193)
(-0.000133495 -3.45686e-05 0.111841)
(8.99037e-05 5.47581e-05 0.112026)
(-0.000238459 -6.40502e-05 0.112675)
(0.000242015 9.25811e-05 0.091492)
(0.00152425 -0.000113569 0.0296773)
(-1.09728e-05 -3.83795e-05 0.112251)
(-1.58222e-05 -3.65612e-05 0.112237)
(-3.58209e-05 -3.56949e-05 0.112212)
(-3.33013e-05 -3.11819e-05 0.112175)
(-5.44545e-05 -3.24353e-05 0.11214)
(-3.91815e-05 -2.35127e-05 0.112097)
(-6.75478e-05 -3.15142e-05 0.112067)
(-3.15228e-05 -1.36503e-05 0.112031)
(-7.55153e-05 -3.53284e-05 0.11202)
(-3.41922e-06 3.13537e-06 0.112004)
(-8.23329e-05 -4.71408e-05 0.111997)
(5.74807e-05 2.42176e-05 0.112577)
(-0.000122203 -4.46795e-05 0.114912)
(0.000138606 -0.000116686 0.0964401)
(0.000137811 -0.0020998 0.0280935)
(-9.72852e-06 -3.40956e-05 0.112209)
(-1.32904e-05 -3.27871e-05 0.112198)
(-3.12194e-05 -3.32832e-05 0.112177)
(-2.94699e-05 -2.94259e-05 0.112142)
(-4.83258e-05 -3.20118e-05 0.112105)
(-3.68044e-05 -2.43013e-05 0.112061)
(-6.18805e-05 -3.25905e-05 0.11203)
(-3.12079e-05 -1.52268e-05 0.111998)
(-7.41438e-05 -3.88177e-05 0.111998)
(-3.10916e-06 6.22484e-06 0.111989)
(-0.000107091 -6.98902e-05 0.112121)
(8.79277e-05 0.000102615 0.11355)
(-0.000386666 -0.000186061 0.113485)
(0.000458198 0.000357437 0.0782008)
(-0.00804694 -0.00324326 0.024794)
(-9.69743e-06 -5.7951e-05 0.112172)
(-1.50531e-05 -5.60278e-05 0.112161)
(-3.24945e-05 -5.44259e-05 0.112141)
(-3.20512e-05 -4.82979e-05 0.112106)
(-4.92949e-05 -4.92237e-05 0.112065)
(-3.95868e-05 -3.66206e-05 0.112014)
(-5.82381e-05 -4.76521e-05 0.111971)
(-3.75133e-05 -2.04939e-05 0.11193)
(-5.37241e-05 -5.34918e-05 0.111911)
(-3.21076e-05 1.0566e-05 0.111889)
(1.64813e-05 -0.000101911 0.11239)
(-9.71517e-05 0.000161571 0.113399)
(0.00025774 -0.000233873 0.0911322)
(-0.00136082 -0.00212512 0.0388434)
(0.0020895 0.00341892 0.0118685)
(-7.81975e-06 -3.82963e-05 0.112127)
(-9.80739e-06 -3.77968e-05 0.112117)
(-2.35391e-05 -3.90783e-05 0.112098)
(-2.43201e-05 -3.67294e-05 0.112062)
(-3.6655e-05 -3.94784e-05 0.112015)
(-3.51085e-05 -3.50046e-05 0.111953)
(-4.55493e-05 -3.69231e-05 0.111891)
(-3.66176e-05 -3.18174e-05 0.111828)
(-4.18127e-05 -3.1722e-05 0.111766)
(-4.64743e-05 -5.46208e-05 0.111807)
(-2.16618e-06 5.03542e-05 0.113177)
(-0.000312496 -0.000130318 0.112564)
(0.000320797 0.000391915 0.0754429)
(0.000786771 0.0028786 0.0322564)
(-8.99105e-06 -7.36142e-05 0.112091)
(-1.58392e-05 -7.18933e-05 0.112084)
(-3.15207e-05 -6.74504e-05 0.112068)
(-3.2618e-05 -6.17864e-05 0.112031)
(-4.77084e-05 -5.81233e-05 0.111972)
(-3.70553e-05 -4.54313e-05 0.111893)
(-5.50666e-05 -5.47946e-05 0.111805)
(-3.18975e-05 -2.83352e-05 0.1117)
(-7.34e-05 -4.08239e-05 0.111603)
(5.35696e-05 -1.27007e-05 0.112043)
(-0.000118372 5.99167e-05 0.112995)
(0.000329637 -8.38783e-05 0.0901178)
(-0.00154428 -0.00227373 0.0359373)
(0.00319051 0.00277564 0.0186034)
(-6.18097e-06 -2.64087e-05 0.112034)
(-3.74316e-06 -2.73197e-05 0.112036)
(-1.3637e-05 -3.14556e-05 0.112032)
(-1.52114e-05 -3.11522e-05 0.112)
(-2.04828e-05 -3.73874e-05 0.111932)
(-3.17767e-05 -3.65905e-05 0.111831)
(-2.84777e-05 -3.1605e-05 0.111704)
(-2.14021e-05 -2.13584e-05 0.111524)
(-2.31734e-05 -9.68746e-05 0.111459)
(1.12958e-05 -3.00347e-05 0.112778)
(-0.000361325 -0.000197703 0.112744)
(0.000380126 0.000401291 0.0771011)
(0.000670537 0.00196483 0.031915)
(-9.62226e-06 -9.13413e-05 0.111977)
(-2.06281e-05 -9.12291e-05 0.112)
(-3.53172e-05 -7.54386e-05 0.112021)
(-3.87831e-05 -7.40626e-05 0.112)
(-5.35649e-05 -5.36185e-05 0.111914)
(-3.16859e-05 -4.1767e-05 0.111771)
(-4.11295e-05 -7.31848e-05 0.111611)
(-9.72296e-05 -2.30217e-05 0.111468)
(-7.90062e-05 -7.8367e-05 0.111955)
(-9.09688e-05 0.000246159 0.112971)
(0.000337436 -0.000267803 0.0911416)
(-0.0011063 -0.00352507 0.0386216)
(0.00114214 0.000853106 0.0142943)
(-5.77074e-06 1.26982e-05 0.111864)
(1.18562e-05 9.92087e-06 0.111931)
(3.18292e-06 -3.36399e-06 0.112005)
(6.2689e-06 -3.04203e-06 0.111991)
(1.05697e-05 -3.1984e-05 0.111892)
(-5.44446e-05 -4.64417e-05 0.111812)
(-1.27374e-05 5.37565e-05 0.112051)
(-2.96813e-05 1.15063e-05 0.112792)
(0.000246092 -9.03045e-05 0.112982)
(-0.000544102 -0.000542915 0.113058)
(0.000440796 0.00057423 0.0732507)
(-0.000716561 -0.00565252 0.0263374)
(-1.12912e-05 -0.000127967 0.111699)
(-3.44643e-05 -0.000133441 0.111841)
(-4.71161e-05 -8.2296e-05 0.111997)
(-6.97838e-05 -0.000107038 0.112122)
(-0.000102006 1.65319e-05 0.112392)
(5.04404e-05 -2.06384e-06 0.11318)
(5.98085e-05 -0.000118361 0.113)
(-0.000197468 -0.000361167 0.112753)
(-0.000267355 0.000338013 0.0911393)
(0.000573275 0.000439772 0.0732884)
(-0.0112901 -0.0112732 0.0324971)
(-1.17424e-05 9.58366e-05 0.111823)
(5.47967e-05 8.99124e-05 0.112027)
(2.42597e-05 5.74751e-05 0.112578)
(0.000102683 8.79804e-05 0.11355)
(0.000161619 -9.71555e-05 0.1134)
(-0.000130181 -0.000312287 0.112565)
(-8.38271e-05 0.000329587 0.0901186)
(0.00040138 0.00038023 0.077103)
(-0.00353492 -0.00110587 0.0386244)
(-0.00562321 -0.000721438 0.0263533)
(-1.42584e-05 -0.000211865 0.112435)
(-6.39451e-05 -0.000238395 0.112674)
(-4.46083e-05 -0.000122147 0.114911)
(-0.000185937 -0.00038664 0.113484)
(-0.000233813 0.000257737 0.0911323)
(0.000391944 0.000320858 0.0754426)
(-0.00227375 -0.00154436 0.0359374)
(0.00196457 0.000670504 0.0319149)
(0.000852291 0.00114333 0.0142953)
(-3.37705e-05 0.000227931 0.091076)
(9.26948e-05 0.000241977 0.0914913)
(-0.000116684 0.000138632 0.0964394)
(0.000357467 0.000458266 0.0782006)
(-0.00212511 -0.00136083 0.0388434)
(0.00287858 0.000786789 0.0322564)
(0.00277565 0.00319064 0.0186034)
(-1.90592e-05 0.00151648 0.0293228)
(-0.000113435 0.00152413 0.0296769)
(-0.00209975 0.000137818 0.0280932)
(-0.00324321 -0.00804703 0.024794)
(0.00341896 0.0020895 0.0118685)
(-1.51252e-05 -1.49786e-05 0.112295)
(-2.0399e-05 -1.31126e-05 0.112268)
(-4.26204e-05 -1.22663e-05 0.112234)
(-3.6667e-05 -1.0694e-05 0.112195)
(-6.18407e-05 -1.04664e-05 0.112162)
(-3.98177e-05 -8.39623e-06 0.11212)
(-7.63462e-05 -9.49112e-06 0.112087)
(-2.85376e-05 -6.63382e-06 0.11203)
(-9.52672e-05 -9.76655e-06 0.111979)
(9.72648e-06 -6.21746e-06 0.111861)
(-0.000131717 -1.13603e-05 0.111703)
(9.23242e-05 -1.29764e-05 0.11182)
(-0.0002145 -1.30677e-05 0.112434)
(0.000224039 -3.39631e-05 0.0910755)
(0.00151959 -1.83811e-05 0.0293352)
(-1.3106e-05 -2.0332e-05 0.112268)
(-1.78884e-05 -1.77962e-05 0.11225)
(-4.0115e-05 -1.70283e-05 0.112221)
(-3.48676e-05 -1.38851e-05 0.112183)
(-5.95045e-05 -1.55129e-05 0.112151)
(-3.91588e-05 -9.58954e-06 0.11211)
(-7.45652e-05 -1.65752e-05 0.11208)
(-2.91887e-05 -3.61202e-06 0.112032)
(-9.51928e-05 -2.15783e-05 0.112002)
(6.8232e-06 1.23127e-05 0.111928)
(-0.000137881 -3.62571e-05 0.111844)
(8.757e-05 5.5889e-05 0.112024)
(-0.000240747 -6.61826e-05 0.112676)
(0.000237506 9.34986e-05 0.0914892)
(0.00152681 -0.000113543 0.029688)
(-1.22457e-05 -4.25252e-05 0.112235)
(-1.70922e-05 -4.00854e-05 0.112222)
(-3.86791e-05 -3.84941e-05 0.112199)
(-3.50535e-05 -3.31568e-05 0.112164)
(-5.74902e-05 -3.40668e-05 0.112132)
(-4.08511e-05 -2.44028e-05 0.112092)
(-7.02487e-05 -3.30094e-05 0.112065)
(-3.38152e-05 -1.43296e-05 0.112029)
(-7.90642e-05 -3.67734e-05 0.112022)
(-7.31975e-06 2.46274e-06 0.112003)
(-8.55376e-05 -4.74598e-05 0.112)
(5.31336e-05 2.20004e-05 0.112575)
(-0.000125359 -4.29506e-05 0.11491)
(0.000136177 -0.000116436 0.0964363)
(0.000138429 -0.00210048 0.028102)
(-1.066e-05 -3.66204e-05 0.112195)
(-1.3902e-05 -3.49204e-05 0.112185)
(-3.32038e-05 -3.50209e-05 0.112166)
(-3.03723e-05 -3.03023e-05 0.112133)
(-5.06587e-05 -3.31058e-05 0.112099)
(-3.79497e-05 -2.4689e-05 0.112056)
(-6.42349e-05 -3.39689e-05 0.112028)
(-3.29709e-05 -1.60214e-05 0.111996)
(-7.80422e-05 -4.0911e-05 0.112001)
(-5.11136e-06 5.32686e-06 0.111988)
(-0.000113113 -7.25862e-05 0.112125)
(8.71569e-05 0.000101275 0.113547)
(-0.000386664 -0.00018849 0.113484)
(0.00045197 0.000356157 0.078196)
(-0.00804729 -0.00324479 0.0248021)
(-1.0478e-05 -6.17854e-05 0.112162)
(-1.55826e-05 -5.9485e-05 0.112152)
(-3.41195e-05 -5.74512e-05 0.112133)
(-3.31639e-05 -5.06212e-05 0.1121)
(-5.18229e-05 -5.17474e-05 0.112061)
(-4.1494e-05 -3.76163e-05 0.112011)
(-6.12805e-05 -5.01679e-05 0.111971)
(-4.04494e-05 -2.14397e-05 0.11193)
(-5.72921e-05 -5.65628e-05 0.111913)
(-3.65136e-05 1.00496e-05 0.111891)
(1.29563e-05 -0.00010639 0.112391)
(-0.000101163 0.000162641 0.113398)