/*--------------------------------*- C++ -*----------------------------------*\
| =========                 |                                                 |
| \\      /  F ield         | OpenFOAM: The Open Source CFD Toolbox           |
|  \\    /   O peration     | Version:  2.1.1                                 |
|   \\  /    A nd           | Web:      www.OpenFOAM.org                      |
|    \\/     M anipulation  |                                                 |
\*---------------------------------------------------------------------------*/
FoamFile
{
    version     2.0;
    format      ascii;
    class       volScalarField;
    location    "0.0005";
    object      p;
}
// * * * * * * * * * * * * * * * * * * * * * * * * * * * * * * * * * * * * * //

dimensions      [0 2 -2 0 0 0 0];

internalField   nonuniform List<scalar> 
10314
(
0.0878587
0.0878467
0.0878391
0.0878311
0.0878232
0.0878176
0.0878041
0.0878088
0.0877854
0.0878172
0.0877671
0.0878553
0.0877446
0.0880225
0.103788
0.0878467
0.08784
0.0878353
0.0878289
0.0878214
0.0878162
0.0878015
0.0878068
0.0877763
0.0878118
0.0877432
0.0878532
0.0876819
0.0881998
0.101799
0.0878391
0.0878353
0.0878338
0.0878282
0.0878245
0.0878177
0.087815
0.0878109
0.0878156
0.0878122
0.0878541
0.0877927
0.0880729
0.107766
0.0939792
0.0878311
0.0878291
0.0878283
0.0878234
0.0878199
0.0878154
0.0878091
0.087809
0.0877994
0.0878017
0.087812
0.0877622
0.0879731
0.100415
0.10138
0.0878234
0.0878217
0.0878249
0.0878202
0.087824
0.0878176
0.0878262
0.0878171
0.0878372
0.0878263
0.0878663
0.0878481
0.0880205
0.1003
0.0991029
0.087818
0.0878168
0.0878186
0.0878163
0.0878182
0.0878206
0.0878209
0.087833
0.0878296
0.0878461
0.0878831
0.0878354
0.0881997
0.101667
0.0878047
0.0878025
0.0878166
0.0878108
0.0878278
0.0878219
0.0878493
0.0878325
0.0878851
0.087859
0.0878872
0.0881064
0.108001
0.112819
0.0878094
0.0878086
0.0878133
0.0878117
0.0878198
0.0878355
0.0878342
0.0878872
0.0878309
0.0879741
0.0878526
0.0882125
0.102001
0.0950828
0.0877867
0.0877782
0.0878189
0.0878031
0.0878416
0.0878342
0.08789
0.0878352
0.0880388
0.0877353
0.0883658
0.107096
0.114463
0.087818
0.0878147
0.0878159
0.0878066
0.0878318
0.0878524
0.0878666
0.0879846
0.087743
0.0883238
0.105576
0.0938918
0.0877688
0.0877458
0.0878587
0.0878172
0.0878729
0.0878908
0.0878967
0.0878661
0.088379
0.105577
0.0940156
0.0878557
0.0878573
0.0877977
0.0877682
0.087855
0.0878433
0.0881155
0.0882236
0.107101
0.0938895
0.0877463
0.0876851
0.0880785
0.0879786
0.0880275
0.0882073
0.108007
0.102008
0.114474
0.0880226
0.0882055
0.107774
0.100421
0.100306
0.101674
0.112826
0.0950904
0.103792
0.101806
0.0939855
0.101386
0.0991094
0.0865535
0.0865445
0.0865355
0.0865225
0.0865071
0.0864874
0.0864629
0.0864366
0.0864005
0.0863708
0.0863212
0.0862995
0.0862418
0.0862764
0.101094
0.0865445
0.0865381
0.0865305
0.0865185
0.0865031
0.0864842
0.0864586
0.0864348
0.0863934
0.0863716
0.086306
0.0863234
0.0861757
0.0864687
0.0992089
0.0865354
0.0865305
0.0865239
0.086512
0.0864984
0.0864782
0.0864586
0.0864288
0.0864032
0.0863572
0.0863564
0.0862375
0.0864046
0.105103
0.0917526
0.0865225
0.0865186
0.0865121
0.0865015
0.0864876
0.0864708
0.086448
0.0864245
0.086394
0.0863596
0.0863436
0.0862505
0.086402
0.0981431
0.0999882
0.0865072
0.0865033
0.0864988
0.0864879
0.0864779
0.0864587
0.086445
0.086414
0.0864001
0.0863596
0.0863521
0.0863058
0.0863615
0.0978987
0.0976472
0.0864877
0.0864848
0.086479
0.0864715
0.0864592
0.0864496
0.0864268
0.0864189
0.086384
0.0863753
0.0863672
0.0862887
0.086532
0.0990831
0.0864635
0.0864595
0.0864599
0.0864494
0.0864465
0.0864278
0.0864278
0.0863885
0.0864074
0.0863472
0.086346
0.086457
0.105437
0.111563
0.0864373
0.0864363
0.0864309
0.0864269
0.0864168
0.0864216
0.0863906
0.0864231
0.0863254
0.0864505
0.0862572
0.0865441
0.0995491
0.0938664
0.0864016
0.086395
0.0864062
0.0863972
0.0864048
0.0863887
0.0864137
0.086332
0.0865008
0.0861291
0.0867313
0.104417
0.113092
0.0863714
0.086374
0.0863605
0.086364
0.0863648
0.0863821
0.086358
0.0864753
0.0861517
0.0867394
0.103096
0.0918507
0.0863226
0.0863079
0.0863605
0.0863482
0.0863581
0.0863747
0.0863574
0.0862778
0.086763
0.103101
0.0919767
0.0863002
0.086326
0.0862423
0.0862558
0.0863121
0.0862961
0.0864663
0.0865565
0.104427
0.0918517
0.0862437
0.0861781
0.0864096
0.086407
0.0863678
0.0865389
0.105443
0.0995552
0.113099
0.0862773
0.0864739
0.10511
0.0981481
0.0979045
0.099089
0.111569
0.0938744
0.1011
0.0992165
0.0917587
0.0999937
0.0976529
0.0852607
0.0852527
0.0852407
0.0852219
0.0851988
0.0851651
0.0851296
0.085074
0.0850253
0.0849366
0.0848813
0.0847475
0.0847298
0.0845553
0.0993636
0.0852527
0.0852457
0.0852341
0.0852161
0.0851929
0.0851607
0.0851243
0.0850727
0.0850206
0.0849424
0.0848721
0.0847818
0.084663
0.0847126
0.097514
0.0852406
0.0852341
0.0852223
0.0852041
0.0851805
0.0851471
0.0851104
0.0850562
0.0850024
0.0849177
0.0848526
0.0847116
0.0847177
0.103383
0.0900786
0.0852218
0.0852162
0.0852042
0.085188
0.0851636
0.0851346
0.0850958
0.085051
0.0849955
0.0849261
0.0848652
0.0847479
0.084793
0.0964643
0.0984652
0.0851987
0.085193
0.0851807
0.0851638
0.0851394
0.0851079
0.0850713
0.0850203
0.0849696
0.0849043
0.0848256
0.084776
0.0846853
0.0961934
0.0961235
0.0851652
0.085161
0.0851477
0.0851353
0.0851084
0.0850862
0.0850401
0.0850108
0.0849399
0.084904
0.0848481
0.0847474
0.0848706
0.0973623
0.0851299
0.0851249
0.0851115
0.085097
0.0850726
0.0850409
0.0850119
0.08495
0.084931
0.0848373
0.084813
0.0848304
0.103791
0.110071
0.0850745
0.0850738
0.0850579
0.0850531
0.0850226
0.085013
0.0849517
0.0849611
0.0848277
0.084926
0.0847119
0.0848976
0.0979219
0.0923963
0.0850265
0.0850218
0.0850046
0.0849982
0.0849731
0.0849438
0.0849352
0.0848314
0.0849547
0.0846026
0.0850847
0.102771
0.111595
0.0849372
0.084944
0.0849205
0.08493
0.0849088
0.0849098
0.084844
0.0849347
0.08461
0.0851253
0.101466
0.0902552
0.0848822
0.0848735
0.0848561
0.0848701
0.0848307
0.0848538
0.0848208
0.0847219
0.0850955
0.101467
0.0903864
0.0847484
0.0847824
0.0847171
0.0847526
0.0847817
0.0847536
0.0848377
0.0849064
0.102777
0.0902541
0.0847319
0.0846645
0.0847226
0.0847973
0.0846911
0.0848767
0.103797
0.0979271
0.111601
0.084558
0.0847177
0.10339
0.0964686
0.0961987
0.0973671
0.110076
0.0924031
0.0993749
0.0975234
0.0900853
0.0984702
0.0961285
0.0839767
0.0839686
0.0839536
0.0839291
0.0838988
0.0838518
0.083806
0.0837227
0.0836621
0.0835139
0.0834494
0.0831909
0.0832088
0.0827936
0.0978473
0.0839686
0.0839607
0.0839455
0.0839219
0.0838912
0.0838464
0.0838001
0.0837218
0.0836597
0.0835238
0.0834473
0.0832252
0.0831414
0.082908
0.0959669
0.0839534
0.0839454
0.0839288
0.0839048
0.0838713
0.0838258
0.0837722
0.0836958
0.083608
0.0834896
0.0833411
0.0831819
0.0829851
0.101797
0.0884203
0.083929
0.0839218
0.0839049
0.0838832
0.0838488
0.0838083
0.0837537
0.0836881
0.0836068
0.0835023
0.0833939
0.0832368
0.0831649
0.0949177
0.0968713
0.0838985
0.0838912
0.0838715
0.0838489
0.0838105
0.0837673
0.0837075
0.0836378
0.0835449
0.0834521
0.083294
0.0832417
0.0829771
0.0946268
0.0945534
0.0838516
0.0838466
0.0838263
0.0838088
0.0837677
0.0837327
0.0836636
0.0836128
0.083506
0.0834444
0.0833141
0.0831997
0.0832048
0.095768
0.0838059
0.0838004
0.0837729
0.0837546
0.0837085
0.0836643
0.0836052
0.0835212
0.0834587
0.0833341
0.0832667
0.0832142
0.102233
0.108487
0.0837227
0.0837226
0.083697
0.0836897
0.0836397
0.0836146
0.0835225
0.0835011
0.0833355
0.0833849
0.0831451
0.0832602
0.0963542
0.0907867
0.0836624
0.0836604
0.0836097
0.0836089
0.0835478
0.083509
0.0834615
0.0833372
0.0833911
0.0830522
0.0834447
0.101188
0.110003
0.0835142
0.0835246
0.0834912
0.0835055
0.0834564
0.0834489
0.0833384
0.0833885
0.0830545
0.0835172
0.0998969
0.0886793
0.0834493
0.0834481
0.0833437
0.0833974
0.083299
0.0833197
0.0832718
0.0831491
0.0834488
0.099894
0.0888181
0.0831912
0.0832267
0.0831852
0.0832409
0.0832468
0.0832053
0.0832197
0.0832656
0.101189
0.0886745
0.0832102
0.0831422
0.0829904
0.0831683
0.0829822
0.08321
0.102237
0.096358
0.110007
0.0827975
0.0829121
0.101803
0.0949212
0.0946313
0.0957724
0.108492
0.0907927
0.0978605
0.0959769
0.088427
0.0968757
0.0945579
0.0827018
0.0826924
0.0826739
0.0826438
0.0826067
0.082548
0.0824933
0.0823839
0.0823131
0.0821047
0.082038
0.081631
0.0817019
0.080936
0.0964802
0.0826923
0.0826832
0.0826643
0.0826354
0.0825981
0.0825418
0.0824866
0.0823837
0.0823139
0.0821181
0.0820494
0.0816696
0.0816558
0.0809057
0.0945295
0.0826737
0.0826642
0.0826433
0.0826139
0.0825714
0.0825148
0.0824453
0.0823486
0.0822272
0.0820785
0.0818236
0.081635
0.0811088
0.100218
0.0866704
0.0826435
0.0826353
0.0826139
0.0825872
0.0825437
0.0824926
0.0824233
0.0823395
0.0822338
0.0821004
0.0819327
0.0817402
0.081499
0.0934336
0.0952671
0.0826063
0.0825979
0.0825714
0.0825438
0.0824923
0.0824385
0.0823569
0.0822711
0.0821362
0.0820254
0.0817633
0.0817141
0.0811854
0.0931173
0.0929748
0.0825476
0.0825418
0.082515
0.082493
0.0824388
0.0823915
0.082301
0.0822289
0.0820859
0.0819975
0.081785
0.0816609
0.0814665
0.0942135
0.0824929
0.0824867
0.0824458
0.082424
0.0823577
0.0823016
0.0822119
0.0821072
0.0819946
0.0818383
0.0817002
0.0815717
0.100713
0.106907
0.0823835
0.0823841
0.0823494
0.0823408
0.0822726
0.0822303
0.0821082
0.0820482
0.0818474
0.0818318
0.0815661
0.0815513
0.0947934
0.089084
0.0823128
0.0823143
0.0822285
0.0822356
0.0821387
0.0820883
0.0819964
0.0818481
0.0818155
0.081472
0.0817402
0.0995962
0.108374
0.0821042
0.0821191
0.0820796
0.0821033
0.0820301
0.0820018
0.0818409
0.0818325
0.0814729
0.0818709
0.0983064
0.0870519
0.082038
0.0820495
0.0818257
0.0819356
0.0817691
0.0817961
0.0817018
0.0815625
0.0817404
0.0983017
0.0872113
0.0816309
0.0816708
0.0816371
0.0817438
0.0817188
0.0816668
0.0815762
0.0815539
0.0995934
0.0870449
0.0817032
0.0816539
0.0811147
0.0815016
0.0811899
0.0814709
0.100717
0.0947962
0.108376
0.0809376
0.0809095
0.100221
0.0934363
0.0931212
0.0942172
0.106911
0.0890887
0.0964899
0.0945358
0.0866756
0.0952708
0.0929786
0.0814346
0.0814232
0.0814011
0.0813663
0.0813235
0.0812545
0.0811918
0.081059
0.0809821
0.0807134
0.0806601
0.08008
0.0802547
0.0789557
0.0954443
0.0814231
0.0814123
0.0813903
0.0813567
0.0813135
0.0812472
0.0811845
0.08106
0.0809865
0.0807376
0.0806936
0.0801269
0.0803118
0.0786267
0.0934523
0.0814008
0.0813901
0.0813654
0.0813313
0.0812809
0.0812144
0.0811314
0.0810158
0.0808641
0.0806832
0.0803132
0.0800984
0.0789888
0.0982409
0.0847357
0.0813659
0.0813566
0.0813312
0.0813001
0.0812486
0.081188
0.0811061
0.0810067
0.0808793
0.0807253
0.0804944
0.080291
0.0798099
0.0920735
0.0937708
0.081323
0.0813133
0.0812809
0.0812487
0.081186
0.081123
0.0810224
0.0809235
0.0807505
0.080626
0.0802504
0.0802155
0.0793005
0.0917486
0.0914748
0.0812539
0.081247
0.0812145
0.0811883
0.0811233
0.0810644
0.0809555
0.0808636
0.0806882
0.0805788
0.080265
0.0801524
0.0796058
0.0927527
0.0811912
0.0811844
0.0811316
0.0811066
0.081023
0.080956
0.0808381
0.0807156
0.0805499
0.0803674
0.0801343
0.0799024
0.0992858
0.105433
0.0810583
0.0810601
0.0810162
0.0810077
0.0809246
0.0808649
0.0807166
0.0806096
0.0803754
0.0802625
0.0799757
0.0796987
0.0933421
0.0872193
0.0809815
0.0809863
0.0808647
0.0808805
0.0807522
0.0806901
0.0805513
0.0803761
0.0802078
0.0798849
0.0798876
0.0981032
0.106791
0.0807131
0.0807381
0.0806829
0.0807273
0.0806281
0.0805819
0.08037
0.0802639
0.0798863
0.0801304
0.0966854
0.0853497
0.08066
0.0806929
0.0803143
0.0804963
0.0802532
0.0802678
0.0801373
0.0799772
0.0798884
0.0966801
0.0855659
0.0800807
0.0801261
0.0800991
0.0802937
0.0802179
0.0801518
0.0799105
0.0797029
0.0981003
0.0853415
0.0802553
0.0803096
0.0789927
0.079812
0.0793038
0.0796084
0.0992895
0.0933452
0.106793
0.0789552
0.0786294
0.0982428
0.0920757
0.091752
0.0927559
0.105437
0.0872233
0.0954482
0.093455
0.0847389
0.0937737
0.0914781
0.080172
0.0801596
0.0801352
0.0800967
0.080049
0.0799713
0.0799021
0.07975
0.0796694
0.0793477
0.0793114
0.0785402
0.0788568
0.0767786
0.095232
0.0801595
0.0801479
0.0801233
0.0800859
0.0800377
0.0799631
0.0798939
0.0797516
0.0796744
0.0793767
0.0793617
0.0786047
0.0790586
0.0759931
0.0933019
0.0801348
0.0801231
0.0800953
0.0800571
0.0800006
0.0799256
0.0798322
0.0796975
0.0795247
0.0792917
0.0788288
0.0785041
0.0764767
0.0922378
0.0827821
0.0800962
0.0800857
0.0800571
0.080022
0.0799641
0.0798953
0.0798029
0.0796891
0.0795413
0.0793721
0.0790717
0.0789152
0.0780893
0.0909451
0.0924373
0.0800484
0.0800374
0.0800006
0.0799642
0.0798933
0.0798224
0.079707
0.0795969
0.0793939
0.0792626
0.0787741
0.0787658
0.0773486
0.0907857
0.0905324
0.0799706
0.0799628
0.0799256
0.0798955
0.0798226
0.0797535
0.0796308
0.0795206
0.0793182
0.079189
0.0787778
0.0787145
0.0776499
0.0918045
0.0799013
0.0798936
0.0798322
0.0798033
0.0797075
0.0796312
0.0794911
0.0793549
0.0791393
0.0789416
0.0785956
0.0782063
0.098301
0.10456
0.0797491
0.0797514
0.0796976
0.0796897
0.0795978
0.0795216
0.0793557
0.0791977
0.0789381
0.0786894
0.0783814
0.0776477
0.0927872
0.084698
0.0796685
0.0796741
0.0795249
0.0795421
0.0793952
0.0793196
0.0791404
0.0789389
0.0785842
0.0782999
0.0777432
0.097224
0.106298
0.0793467
0.0793769
0.0792915
0.0793735
0.0792647
0.079191
0.0789436
0.0786908
0.0783021
0.0781998
0.0950269
0.0834031
0.0793104
0.0793611
0.0788293
0.0790732
0.0787766
0.0787804
0.0785963
0.0783822
0.077744
0.0950214
0.0838967
0.078539
0.0786045
0.0785042
0.0789179
0.0787689
0.0787185
0.0782087
0.0776507
0.0972219
0.0833944
0.0788561
0.0790576
0.0764771
0.0780922
0.0773522
0.0776549
0.0983043
0.0927899
0.106299
0.0767773
0.075994
0.0922385
0.0909469
0.0907889
0.0918079
0.104563
0.0847013
0.0952325
0.0933032
0.0827838
0.0924394
0.0905355
0.0789152
0.0789026
0.0788768
0.0788354
0.0787839
0.0787006
0.0786268
0.0784619
0.0783782
0.0780178
0.0779991
0.0770857
0.0776006
0.0746756
0.0908124
0.0789024
0.0788903
0.0788639
0.0788236
0.0787715
0.0786912
0.0786167
0.0784621
0.0783802
0.0780524
0.0780479
0.0772287
0.0777882
0.0749871
0.0907814
0.0788764
0.0788637
0.0788339
0.0787927
0.0787321
0.0786508
0.078551
0.0783989
0.0782192
0.077911
0.0774459
0.0766336
0.0750178
0.0698893
0.088023
0.0788349
0.0788234
0.0787926
0.0787543
0.0786922
0.0786167
0.0785163
0.0783882
0.0782225
0.0780216
0.0776303
0.07753
0.0756745
0.0921239
0.0988763
0.0787832
0.0787712
0.078732
0.0786922
0.0786166
0.0785397
0.0784157
0.0782955
0.0780761
0.0779265
0.0773691
0.0773197
0.0752582
0.0898322
0.102073
0.0786998
0.0786909
0.0786506
0.0786168
0.0785398
0.0784626
0.0783325
0.0782057
0.0779863
0.0778357
0.0773447
0.0771582
0.0753905
0.0895282
0.0786258
0.0786163
0.0785509
0.0785165
0.078416
0.0783327
0.0781802
0.0780369
0.0777899
0.077605
0.0772331
0.076767
0.097749
0.0995993
0.0784609
0.0784617
0.0783989
0.0783886
0.0782963
0.0782066
0.0780376
0.0778397
0.0775729
0.0771924
0.0769532
0.0756488
0.090588
0.0945795
0.078377
0.0783797
0.078219
0.078223
0.0780772
0.0779874
0.0777909
0.0775741
0.0770693
0.0769086
0.075559
0.095984
0.0693969
0.0780165
0.078052
0.0779105
0.0780224
0.0779284
0.0778371
0.077607
0.077195
0.0769127
0.0760563
0.0932279
0.0773294
0.0779977
0.0780471
0.0774458
0.0776314
0.0773708
0.0773442
0.0772345
0.0769557
0.0755597
0.0932229
0.0823523
0.0770841
0.0772278
0.0766331
0.0775323
0.077323
0.0771623
0.0767713
0.075653
0.0959792
0.0773219
0.077599
0.0777864
0.0750129
0.0756805
0.0752622
0.0753946
0.0977523
0.0905911
0.0693992
0.0746739
0.0749867
0.0698883
0.0921244
0.0898354
0.0895317
0.0996025
0.0945831
0.090811
0.0907824
0.0880232
0.0988771
0.102075
0.0776668
0.0776539
0.077627
0.0775841
0.0775306
0.0774455
0.0773692
0.0772033
0.0771225
0.0767708
0.0767801
0.0759695
0.0764695
0.0746573
0.087953
0.0776538
0.0776409
0.0776133
0.0775715
0.0775173
0.0774347
0.0773569
0.0772003
0.0771188
0.0768033
0.0768056
0.0761196
0.0766505
0.0750171
0.0886141
0.0776266
0.0776132
0.0775825
0.0775397
0.0774776
0.0773935
0.0772936
0.0771357
0.0769808
0.0766573
0.0763917
0.0754966
0.0755785
0.0718262
0.0827086
0.0775836
0.0775713
0.0775396
0.0774993
0.0774352
0.0773559
0.0772525
0.0771148
0.0769445
0.0767025
0.07634
0.0758924
0.0749405
0.0728913
0.0785833
0.0775299
0.0775169
0.0774774
0.0774352
0.077359
0.0772794
0.0771552
0.0770299
0.076817
0.0766351
0.0762461
0.076039
0.0755501
0.0907566
0.0771082
0.0774447
0.0774343
0.0773933
0.0773559
0.0772794
0.077198
0.0770686
0.0769323
0.0767118
0.0765267
0.0760845
0.0759368
0.0748524
0.087184
0.0773683
0.0773564
0.0772933
0.0772525
0.0771554
0.0770688
0.0769167
0.0767775
0.0765247
0.0763542
0.0758999
0.0758158
0.0944288
0.0721126
0.0772022
0.0771998
0.0771354
0.077115
0.0770306
0.0769332
0.0767782
0.0765706
0.0763199
0.0759125
0.075624
0.075584
0.0882258
0.0771213
0.0771179
0.0769801
0.0769447
0.0768183
0.0767132
0.0765259
0.0763215
0.0758714
0.0756807
0.0745229
0.0931545
0.0792902
0.0767694
0.076802
0.0766544
0.0767025
0.0766393
0.0765293
0.0763568
0.0759159
0.0756838
0.0735191
0.0891186
0.0795386
0.0767786
0.0768045
0.0763904
0.0763403
0.0762484
0.0760866
0.0759015
0.0756289
0.0745173
0.0891329
0.0766621
0.0759679
0.0761187
0.0754959
0.0758932
0.0760415
0.0759397
0.0758194
0.0755876
0.0931625
0.0795486
0.0764678
0.0766494
0.0755777
0.0749417
0.0755521
0.0748548
0.0944317
0.0882295
0.0792961
0.0746555
0.0750163
0.0718259
0.072892
0.0907588
0.0871866
0.0721156
0.0879516
0.0886143
0.0827088
0.0785854
0.0771096
0.0764274
0.076414
0.0763866
0.0763438
0.0762898
0.0762068
0.0761305
0.075976
0.0759
0.0755972
0.0756168
0.0750125
0.075407
0.0742504
0.0862144
0.0764139
0.0764007
0.0763729
0.076331
0.0762762
0.0761951
0.0761168
0.0759693
0.0758884
0.0756121
0.075617
0.0751061
0.0755083
0.0744983
0.0868634
0.0763862
0.0763728
0.0763424
0.0762995
0.0762383
0.0761558
0.0760611
0.0759116
0.0757848
0.0754878
0.0753935
0.0747407
0.0752049
0.0733353
0.0838361
0.0763433
0.0763308
0.0762994
0.0762584
0.0761952
0.0761165
0.0760165
0.0758814
0.0757302
0.0754953
0.0752585
0.0748395
0.0747242
0.0730408
0.0849453
0.076289
0.0762758
0.076238
0.0761952
0.0761224
0.0760446
0.0759287
0.0758091
0.0756317
0.075468
0.0752521
0.075041
0.0751189
0.0906574
0.0797827
0.0762059
0.0761946
0.0761555
0.0761164
0.0760446
0.0759647
0.0758453
0.0757153
0.0755224
0.0753504
0.0750413
0.0749471
0.0746584
0.0846827
0.0761295
0.0761163
0.0760607
0.0760165
0.0759288
0.0758455
0.0757081
0.0755888
0.0753669
0.0752488
0.0748431
0.0750555
0.0928212
0.0783922
0.0759749
0.0759687
0.0759113
0.0758815
0.0758096
0.075716
0.0755895
0.0754108
0.0752021
0.0749241
0.0745127
0.0750285
0.0856355
0.0758988
0.0758876
0.0757841
0.0757303
0.0756326
0.0755235
0.075368
0.0752031
0.0749701
0.0747299
0.0742228
0.0934508
0.0813661
0.0755958
0.075611
0.0754864
0.0754952
0.07547
0.0753525
0.0752509
0.0749261
0.0747317
0.0736574
0.0724437
0.0878243
0.0756153
0.0756158
0.0753916
0.0752555
0.0752564
0.075044
0.0748452
0.0745162
0.074226
0.0724578
0.0921378
0.0750109
0.075105
0.0747397
0.0748393
0.0750431
0.0749494
0.0750582
0.0750306
0.0934562
0.0878271
0.0754054
0.0755073
0.0752042
0.0747245
0.0751201
0.0746599
0.0928228
0.0856381
0.0813703
0.0742486
0.0744973
0.0733347
0.0730409
0.0906583
0.0846842
0.0783941
0.086213
0.0868633
0.0838361
0.0849457
0.0797831
0.0751967
0.0751836
0.075157
0.0751157
0.0750626
0.074985
0.0749111
0.0747763
0.0747037
0.0744643
0.074472
0.074052
0.0743137
0.0736169
0.0850105
0.0751835
0.0751707
0.0751436
0.0751029
0.0750491
0.0749731
0.0748974
0.0747674
0.0746893
0.0744678
0.0744625
0.0740971
0.0743476
0.0736889
0.0854429
0.0751566
0.0751434
0.0751142
0.0750727
0.0750144
0.0749377
0.074851
0.0747202
0.0746151
0.0743835
0.0743323
0.0739009
0.074187
0.0732229
0.0830918
0.0751152
0.0751026
0.0750726
0.0750326
0.074973
0.0748994
0.0748078
0.0746869
0.0745618
0.0743704
0.0742336
0.073948
0.0740021
0.0731716
0.0852671
0.0750618
0.0750487
0.0750142
0.074973
0.0749069
0.0748351
0.0747332
0.0746289
0.0744881
0.0743567
0.074218
0.0740886
0.0741649
0.0898973
0.0798051
0.0749842
0.0749726
0.0749374
0.0748993
0.0748351
0.0747626
0.0746608
0.0745518
0.0743995
0.0742712
0.0740689
0.0740385
0.0739891
0.0835689
0.0749101
0.0748968
0.0748506
0.0748077
0.0747333
0.0746609
0.0745497
0.0744627
0.0742999
0.0742461
0.0739685
0.0742113
0.0918735
0.0789917
0.0747752
0.0747667
0.0747198
0.0746869
0.0746292
0.0745522
0.0744632
0.0743473
0.0742058
0.0741082
0.0737586
0.074241
0.0845919
0.0747025
0.0746885
0.0746145
0.0745617
0.0744886
0.0744002
0.0743007
0.074206
0.0741635
0.0740821
0.0740389
0.0925476
0.0809639
0.074463
0.0744668
0.0743827
0.0743704
0.0743576
0.0742724
0.0742476
0.0741097
0.0740854
0.0738799
0.0732241
0.0877839
0.0744706
0.0744614
0.0743314
0.0742332
0.0742189
0.07407
0.0739702
0.0737606
0.0740418
0.0732262
0.094241
0.0740505
0.0740961
0.0739002
0.0739481
0.0740895
0.0740399
0.0742131
0.0742418
0.0925524
0.0877872
0.0743122
0.0743466
0.0741864
0.074002
0.0741653
0.0739898
0.0918746
0.0845933
0.080966
0.0736151
0.0736878
0.0732222
0.0731714
0.0898977
0.0835698
0.0789928
0.0850091
0.0854426
0.0830917
0.0852671
0.0798051
0.073976
0.0739637
0.0739383
0.0738995
0.0738491
0.0737797
0.0737099
0.0735974
0.0735266
0.0733479
0.0733323
0.0730592
0.0731849
0.0728206
0.0839328
0.0739636
0.0739515
0.0739255
0.0738872
0.0738365
0.0737683
0.073697
0.0735879
0.073513
0.0733456
0.0733207
0.0730777
0.0731896
0.0728435
0.0842892
0.0739379
0.0739254
0.0738981
0.0738594
0.0738059
0.0737377
0.0736598
0.0735512
0.0734614
0.0732912
0.0732426
0.0729657
0.0730937
0.0725546
0.0821424
0.073899
0.073887
0.0738593
0.0738221
0.0737681
0.0737022
0.0736212
0.0735202
0.0734169
0.0732736
0.0731728
0.0729926
0.0729558
0.0726561
0.0846272
0.0738484
0.0738361
0.0738057
0.073768
0.0737103
0.0736469
0.0735612
0.0734757
0.0733653
0.0732677
0.0731672
0.0730778
0.0731174
0.088885
0.0790365
0.0737789
0.0737678
0.0737373
0.0737021
0.0736469
0.0735851
0.0735025
0.0734179
0.0733028
0.0732152
0.0730837
0.0730531
0.0731013
0.0825313
0.0737089
0.0736964
0.0736594
0.073621
0.0735611
0.0735025
0.0734183
0.0733581
0.0732464
0.0732264
0.0730431
0.0732437
0.0908863
0.0783714
0.0735963
0.0735872
0.0735508
0.07352
0.0734758
0.0734181
0.0733585
0.0732917
0.0731961
0.0731869
0.0729344
0.0733038
0.0836526
0.0735254
0.0735123
0.0734608
0.0734168
0.0733654
0.0733031
0.0732468
0.0731958
0.0732216
0.0731697
0.0732489
0.0913173
0.0801146
0.0733465
0.0733448
0.0732906
0.0732735
0.073268
0.0732158
0.0732271
0.0731872
0.0731706
0.0731742
0.0730393
0.0866508
0.0733309
0.0733198
0.073242
0.0731725
0.0731674
0.073084
0.0730439
0.0729344
0.0732496
0.0730382
0.0940623
0.0730577
0.0730767
0.0729651
0.0729927
0.0730779
0.0730536
0.0732447
0.0733036
0.0913235
0.0866561
0.0731835
0.0731886
0.0730932
0.0729556
0.0731174
0.0731014
0.0908869
0.0836531
0.080116
0.0728189
0.0728423
0.0725537
0.0726557
0.0888849
0.0825316
0.0783718
0.0839314
0.0842888
0.0821421
0.084627
0.0790363
0.0727659
0.0727544
0.0727306
0.0726952
0.072649
0.0725887
0.0725243
0.0724334
0.0723644
0.0722368
0.0721978
0.0720348
0.0720583
0.0719111
0.08289
0.0727543
0.072743
0.0727189
0.0726841
0.0726378
0.0725783
0.0725129
0.0724243
0.0723529
0.0722322
0.0721861
0.0720404
0.0720476
0.0719264
0.0832214
0.0727303
0.0727188
0.0726941
0.0726593
0.0726117
0.0725525
0.0724839
0.0723965
0.0723183
0.0721966
0.0721431
0.071972
0.0720105
0.0717434
0.081207
0.0726948
0.0726838
0.0726592
0.0726259
0.0725781
0.0725211
0.0724512
0.07237
0.0722838
0.0721803
0.0720939
0.0719866
0.0718995
0.0718728
0.0838374
0.0726483
0.0726374
0.0726114
0.072578
0.0725288
0.0724748
0.0724043
0.0723358
0.0722491
0.0721762
0.0720991
0.0720349
0.0720525
0.0880005
0.0781686
0.072588
0.0725778
0.0725522
0.072521
0.0724748
0.0724238
0.072358
0.0722931
0.0722065
0.0721446
0.0720604
0.0720197
0.0721224
0.0815047
0.0725234
0.0725123
0.0724834
0.072451
0.0724043
0.072358
0.0722949
0.0722509
0.0721713
0.072163
0.0720258
0.0721922
0.0898621
0.0774543
0.0724323
0.0724237
0.0723961
0.0723698
0.0723358
0.0722932
0.0722512
0.0722083
0.0721371
0.0721425
0.0719658
0.0722725
0.0826502
0.0723632
0.0723521
0.0723178
0.0722836
0.072249
0.0722065
0.0721714
0.0721367
0.0721617
0.0721076
0.072145
0.0901272
0.0791187
0.0722356
0.0722313
0.072196
0.0721801
0.0721763
0.0721448
0.0721633
0.0721424
0.0721072
0.072022
0.0721527
0.0855997
0.0721965
0.0721852
0.0721426
0.0720937
0.0720988
0.0720602
0.072026
0.0719647
0.072143
0.0721342
0.0934348
0.0720334
0.0720395
0.0719716
0.0719876
0.0720337
0.0720195
0.0721926
0.0722715
0.0901318
0.0855989
0.072057
0.0720467
0.0720099
0.0718993
0.0720521
0.0721221
0.0898623
0.0826502
0.0791192
0.0719095
0.0719252
0.0717426
0.0718723
0.0880002
0.0815046
0.0774543
0.082889
0.0832211
0.0812067
0.0838371
0.0781682
0.0715657
0.0715553
0.0715341
0.0715029
0.0714614
0.0714096
0.0713515
0.0712799
0.0712143
0.0711264
0.0710707
0.0709838
0.0709432
0.0709288
0.0818578
0.0715552
0.0715449
0.0715235
0.0714928
0.0714515
0.0714005
0.0713421
0.071272
0.0712051
0.0711211
0.0710605
0.0709844
0.0709289
0.0709413
0.0821825
0.0715338
0.0715234
0.0715017
0.0714714
0.0714295
0.0713792
0.0713198
0.0712508
0.0711821
0.0710963
0.0710383
0.0709385
0.0709247
0.0708127
0.0802315
0.0715025
0.0714925
0.0714713
0.0714419
0.0714004
0.0713522
0.0712931
0.0712288
0.0711565
0.0710832
0.0710056
0.0709524
0.0708421
0.0709646
0.0829486
0.0714608
0.0714511
0.0714293
0.0714003
0.0713592
0.0713142
0.0712568
0.0712015
0.0711326
0.0710767
0.0710151
0.070965
0.0709788
0.0870782
0.0772355
0.0714089
0.0714001
0.0713788
0.071352
0.0713142
0.0712725
0.0712199
0.0711693
0.0711035
0.0710565
0.0710032
0.0709578
0.0710951
0.0804728
0.0713507
0.0713415
0.0713194
0.0712929
0.0712567
0.0712199
0.0711715
0.071137
0.0710762
0.0710718
0.070962
0.0711
0.0888339
0.0764601
0.0712789
0.0712713
0.0712504
0.0712286
0.0712015
0.0711693
0.0711371
0.0711045
0.0710503
0.0710496
0.0709301
0.0711993
0.0816207
0.0712133
0.0712044
0.0711816
0.0711562
0.0711324
0.0711034
0.0710763
0.0710501
0.0710611
0.0710264
0.0710453
0.0890372
0.078101
0.0711253
0.0711203
0.0710957
0.0710829
0.0710767
0.0710564
0.071072
0.0710496
0.0710265
0.0709025
0.0711427
0.084613
0.0710696
0.0710596
0.0710377
0.0710052
0.0710148
0.0710029
0.0709621
0.0709295
0.0710455
0.071142
0.092673
0.0709826
0.0709835
0.0709379
0.0709522
0.0709646
0.0709575
0.0711001
0.0711989
0.0890422
0.0846153
0.0709419
0.070928
0.0709242
0.0708416
0.0709784
0.0710947
0.088834
0.0816207
0.0781014
0.0709275
0.0709402
0.0708118
0.070964
0.0870778
0.0804725
0.0764599
0.081857
0.0821822
0.0802312
0.0829482
0.0772351
0.0703761
0.0703662
0.0703477
0.0703207
0.0702842
0.0702406
0.0701898
0.0701342
0.0700738
0.0700145
0.0699505
0.0699101
0.0698327
0.0698796
0.0809005
0.0703661
0.070357
0.0703385
0.0703119
0.0702759
0.0702331
0.0701823
0.0701276
0.0700667
0.0700095
0.0699426
0.0699087
0.0698193
0.0698878
0.0812206
0.0703474
0.0703384
0.0703198
0.0702936
0.0702576
0.0702156
0.0701651
0.070111
0.0700512
0.0699909
0.0699318
0.0698748
0.0698336
0.0697913
0.0792873
0.0703203
0.0703117
0.0702935
0.0702681
0.0702331
0.0701931
0.0701437
0.0700931
0.0700325
0.0699808
0.0699098
0.0698875
0.0697632
0.0699354
0.0820648
0.0702837
0.0702755
0.0702574
0.070233
0.0701992
0.0701619
0.0701152
0.0700704
0.070015
0.0699702
0.0699182
0.0698716
0.0698822
0.0862081
0.0763339
0.07024
0.0702326
0.0702153
0.0701929
0.0701619
0.0701279
0.0700857
0.0700453
0.0699941
0.0699558
0.0699182
0.069866
0.0700108
0.0794883
0.0701891
0.0701818
0.0701647
0.0701434
0.0701151
0.0700857
0.0700476
0.0700186
0.0699698
0.0699625
0.0698694
0.0699754
0.0879065
0.0755159
0.0701333
0.070127
0.0701106
0.0700929
0.0700703
0.0700452
0.0700187
0.0699913
0.0699464
0.0699406
0.0698496
0.0700822
0.0806461
0.0700729
0.070066
0.0700507
0.0700322
0.0700148
0.069994
0.0699698
0.0699464
0.0699427
0.0699293
0.0699286
0.0881017
0.0771674
0.0700135
0.0700088
0.0699904
0.0699804
0.0699701
0.0699556
0.0699628
0.0699407
0.0699301
0.0697943
0.07007
0.0837099
0.0699494
0.0699418
0.0699312
0.0699094
0.0699179
0.0699179
0.0698695
0.0698497
0.0699307
0.0700804
0.0918676
0.0699089
0.0699079
0.0698742
0.0698871
0.0698714
0.0698656
0.0699754
0.0700822
0.0881078
0.0837179
0.0698316
0.0698184
0.069833
0.0697627
0.0698818
0.0700104
0.0879065
0.0806462
0.0771684
0.0698784
0.0698868
0.0697906
0.0699347
0.0862076
0.0794879
0.0755156
0.0809
0.0812203
0.079287
0.0820645
0.0763334
0.0701849
0.0839521
0.0707529
0.0834245
0.0724696
0.0830625
0.0729078
0.0809312
0.0714903
0.0738324
0.0738429
0.0741973
0.0860966
0.0717913
0.0841032
0.0765436
0.0847913
0.0731296
0.0845674
0.0709079
0.0648642
0.0726462
0.0739482
0.0840711
0.0626916
0.071734
0.0721583
0.0735505
0.0722405
0.0806879
0.0656554
0.0700506
0.0718127
0.0800818
0.0609024
0.0809381
0.0813326
0.0636999
0.0805927
0.0654455
0.0655193
0.0656708
0.0718311
0.0700648
0.0800925
0.0809557
0.0637461
0.0813461
0.0648727
0.0739606
0.0726546
0.0840804
0.072163
0.0722687
0.0735588
0.0609175
0.0742048
0.071799
0.0861041
0.0841106
0.0731381
0.0709162
0.0845749
0.0627005
0.0717433
0.0806955
0.0701885
0.0707462
0.0839551
0.0834267
0.0724723
0.0729124
0.0830689
0.0809367
0.0714967
0.0738394
0.0738495
0.0765511
0.0847986
0.0921308
0.10328
0.0924931
0.072569
0.0832758
0.0730855
0.0829438
0.0927534
0.10109
0.0747371
0.0827174
0.0750998
0.103455
0.0822972
0.0719445
0.101334
0.0740721
0.0741386
0.0899364
0.102638
0.0921912
0.0758061
0.0859058
0.0738632
0.0834482
0.091369
0.0764771
0.0839967
0.0921509
0.102925
0.0749495
0.083595
0.0737423
0.101895
0.100709
0.0918235
0.0682635
0.0745955
0.0752986
0.084337
0.103644
0.0640323
0.0719581
0.102063
0.101812
0.0745433
0.0737208
0.0750348
0.0803664
0.104626
0.102603
0.0960361
0.0690396
0.0723654
0.0738026
0.079803
0.0623927
0.0942638
0.111114
0.0822544
0.0812768
0.0643435
0.109584
0.109533
0.0820966
0.0660336
0.0660995
0.102607
0.104635
0.0960428
0.0690576
0.0738196
0.0723791
0.0798166
0.111084
0.0942695
0.0822735
0.0643877
0.0812911
0.100717
0.101903
0.091832
0.0682728
0.0753091
0.074604
0.084346
0.101821
0.102071
0.0745529
0.0750489
0.0737299
0.0624061
0.102644
0.089943
0.0921979
0.0758127
0.0738702
0.0859124
0.0834547
0.102932
0.0921577
0.074957
0.07375
0.0836015
0.103651
0.0640407
0.0719673
0.0803751
0.103284
0.092128
0.092494
0.0725725
0.0730787
0.0832812
0.082948