/*--------------------------------*- C++ -*----------------------------------*\
| =========                 |                                                 |
| \\      /  F ield         | OpenFOAM: The Open Source CFD Toolbox           |
|  \\    /   O peration     | Version:  2.1.1                                 |
|   \\  /    A nd           | Web:      www.OpenFOAM.org                      |
|    \\/     M anipulation  |                                                 |
\*---------------------------------------------------------------------------*/
FoamFile
{
    version     2.0;
    format      ascii;
    class       surfaceScalarField;
    location    "0.0005";
    object      phi;
}
// * * * * * * * * * * * * * * * * * * * * * * * * * * * * * * * * * * * * * //

dimensions      [0 3 -1 0 0 0 0];

internalField   nonuniform List<scalar> 
29937
(
-2.15719e-13
-2.15753e-13
1.16406e-09
-4.66069e-13
-2.1659e-13
1.16377e-09
-7.41775e-13
-2.24687e-13
1.16364e-09
-1.0715e-12
-2.19533e-13
1.16375e-09
-1.46051e-12
-2.26432e-13
1.16419e-09
-1.94896e-12
-2.00012e-13
1.16502e-09
-2.50698e-12
-2.22879e-13
1.16623e-09
-3.22824e-12
-1.32692e-13
1.1682e-09
-3.95773e-12
-2.41994e-13
1.17033e-09
-4.83959e-12
9.17356e-14
1.17408e-09
-5.44552e-12
-4.16177e-13
1.17639e-09
-5.88664e-12
9.68026e-13
1.18392e-09
-4.06027e-12
-9.582e-13
1.19612e-09
6.83739e-11
2.91351e-12
1.04495e-09
6.88228e-11
-6.65295e-11
-6.66765e-11
-4.22042e-11
1.77221e-12
9.77046e-11
-9.5907e-12
1.50787e-11
1.51023e-11
-9.48795e-12
-2.17417e-13
-4.66041e-13
1.1638e-09
-4.64342e-13
-4.63893e-13
1.1637e-09
-7.39006e-13
-4.75506e-13
1.16365e-09
-1.06389e-12
-4.63839e-13
1.16384e-09
-1.44187e-12
-4.792e-13
1.16432e-09
-1.91158e-12
-4.30262e-13
1.16517e-09
-2.43804e-12
-4.78137e-13
1.16641e-09
-3.11936e-12
-3.00754e-13
1.16835e-09
-3.79042e-12
-5.23957e-13
1.17053e-09
-4.6655e-12
1.85456e-13
1.17441e-09
-5.44512e-12
-8.56139e-13
1.17784e-09
-6.1967e-12
2.60215e-12
1.19256e-09
-4.54575e-12
-2.09632e-12
1.2009e-09
6.95597e-11
4.96571e-11
9.00267e-10
7.22057e-11
-6.55025e-11
-7.02429e-11
7.46921e-11
-4.65732e-11
-6.96701e-11
-4.38856e-11
-6.56093e-12
1.52579e-11
9.44334e-11
-1.07884e-11
1.5628e-11
1.60239e-11
-1.0549e-11
-2.26143e-13
-7.42073e-13
1.16365e-09
-4.7621e-13
-7.38197e-13
1.16372e-09
-7.56783e-13
-7.56495e-13
1.16386e-09
-1.08724e-12
-7.35679e-13
1.16407e-09
-1.49315e-12
-7.39943e-13
1.16467e-09
-1.97281e-12
-6.76172e-13
1.16559e-09
-2.58683e-12
-6.60497e-13
1.16702e-09
-3.24081e-12
-4.53905e-13
1.16903e-09
-4.10037e-12
-4.47519e-13
1.17186e-09
-4.62852e-12
2.32866e-13
1.17585e-09
-5.46143e-12
1.43544e-13
1.18296e-09
-2.29988e-12
2.67172e-12
1.19385e-09
4.76312e-11
2.24974e-12
1.02482e-09
6.11668e-11
-4.6683e-11
-6.03681e-11
-5.6751e-11
1.59374e-11
8.24891e-12
1.29853e-10
-3.81138e-11
-2.17827e-11
6.53632e-11
-1.91016e-11
-8.84928e-12
1.03625e-11
1.25572e-11
-8.08237e-12
-1.11136e-11
1.10451e-11
1.59973e-11
-8.28191e-12
-2.20858e-13
-1.0719e-12
1.16376e-09
-4.65001e-13
-1.06268e-12
1.16385e-09
-7.36756e-13
-1.08648e-12
1.16412e-09
-1.05637e-12
-1.05476e-12
1.16444e-09
-1.44015e-12
-1.05909e-12
1.1651e-09
-1.87665e-12
-9.99805e-13
1.166e-09
-2.40063e-12
-9.50532e-13
1.16745e-09
-2.92373e-12
-7.71945e-13
1.1693e-09
-3.56052e-12
-5.95421e-13
1.17181e-09
-3.82674e-12
-1.5272e-13
1.17512e-09
-4.50432e-12
4.59644e-13
1.18115e-09
-1.16177e-12
1.17098e-12
1.19537e-09
6.41376e-11
2.43223e-12
1.03458e-09
6.62936e-11
-6.21555e-11
-6.43138e-11
-4.83085e-11
-5.44514e-12
1.78977e-11
1.2025e-12
9.87915e-11
2.16292e-12
-3.39695e-13
-1.35731e-11
2.42898e-12
-1.85499e-14
9.33945e-12
-2.2733e-13
-1.46117e-12
1.16419e-09
-4.8005e-13
-1.44041e-12
1.16433e-09
-7.41513e-13
-1.4924e-12
1.16468e-09
-1.06133e-12
-1.43807e-12
1.1651e-09
-1.44992e-12
-1.44764e-12
1.16595e-09
-1.88901e-12
-1.39074e-12
1.16692e-09
-2.42098e-12
-1.31966e-12
1.16848e-09
-2.93939e-12
-1.16211e-12
1.17025e-09
-3.47056e-12
-9.04678e-13
1.17288e-09
-3.80381e-12
-5.22178e-13
1.17535e-09
-4.17969e-12
6.20329e-13
1.18137e-09
-1.39057e-12
-2.84805e-13
1.1976e-09
6.62794e-11
4.52307e-12
1.04483e-09
6.75403e-11
-6.47925e-11
-6.47287e-11
-5.51245e-11
1.75864e-11
-5.58544e-12
1.07339e-10
2.06344e-12
1.38195e-13
-9.03576e-13
-1.3266e-11
1.23044e-12
1.38032e-12
1.14207e-11
-1.99741e-13
-1.94973e-12
1.16503e-09
-4.30036e-13
-1.91017e-12
1.16518e-09
-6.77739e-13
-1.97219e-12
1.1656e-09
-1.00322e-12
-1.87395e-12
1.166e-09
-1.39482e-12
-1.8862e-12
1.1669e-09
-1.83261e-12
-1.82897e-12
1.16795e-09
-2.32976e-12
-1.75251e-12
1.16965e-09
-2.74531e-12
-1.67604e-12
1.17133e-09
-3.26869e-12
-1.20076e-12
1.17358e-09
-3.50085e-12
-1.13551e-12
1.17538e-09
-4.42605e-12
1.16227e-12
1.18484e-09
-2.52035e-12
-8.21906e-13
1.19308e-09
6.70835e-11
4.67787e-11
9.06262e-10
6.80121e-11
-6.37025e-11
-6.56882e-11
6.69287e-11
-4.44899e-11
-6.23191e-11
-4.85658e-11
-3.01751e-13
6.19341e-12
1.00843e-10
-9.8427e-12
1.39752e-11
1.44423e-11
-9.66044e-12
-2.21124e-13
-2.50777e-12
1.16624e-09
-4.77004e-13
-2.43695e-12
1.16641e-09
-6.61892e-13
-2.58721e-12
1.16703e-09
-9.55535e-13
-2.39789e-12
1.16747e-09
-1.32709e-12
-2.41778e-12
1.16849e-09
-1.7606e-12
-2.32532e-12
1.16962e-09
-2.25324e-12
-2.24793e-12
1.17157e-09
-2.75564e-12
-2.12413e-12
1.17354e-09
-2.697e-12
-2.05297e-12
1.1758e-09
-3.78608e-12
-9.16585e-13
1.17957e-09
-8.05261e-13
-1.63343e-12
1.18805e-09
4.74787e-11
3.16772e-12
1.00941e-09
6.18119e-11
-4.69227e-11
-6.09755e-11
-5.91027e-11
1.38886e-11
5.99907e-12
1.33473e-10
1.13034e-11
-1.1622e-11
-1.29161e-11
2.63044e-12
1.07589e-12
9.52841e-12
-1.28744e-13
-3.22811e-12
1.16821e-09
-2.97765e-13
-3.11998e-12
1.16835e-09
-4.53805e-13
-3.24309e-12
1.16904e-09
-7.75988e-13
-2.92275e-12
1.16932e-09
-1.17042e-12
-2.93651e-12
1.17026e-09
-1.68671e-12
-2.73918e-12
1.17132e-09
-2.1338e-12
-2.74809e-12
1.17353e-09
-2.52461e-12
-2.51832e-12
1.17573e-09
-2.95857e-12
-2.29403e-12
1.18009e-09
-2.83614e-12
-1.43158e-12
1.19328e-09
-1.47095e-12
-2.54195e-13
1.19276e-09
6.41676e-11
4.63048e-11
9.21202e-10
6.44082e-11
-6.10694e-11
-6.16996e-11
6.82945e-11
-4.51081e-11
-6.37677e-11
-4.41168e-11
-3.10441e-12
7.26801e-12
9.55416e-11
-9.60289e-12
1.20564e-11
1.37088e-11
-7.58349e-12
-1.89428e-13
-6.59282e-13
-1.53812e-12
2.38683e-12
-2.35941e-13
-3.95599e-12
1.17034e-09
-5.20158e-13
-3.79278e-12
1.17053e-09
-4.47982e-13
-4.10523e-12
1.17186e-09
-6.00027e-13
-3.56215e-12
1.17182e-09
-9.13877e-13
-3.47032e-12
1.17292e-09
-1.21405e-12
-3.26283e-12
1.1736e-09
-2.06468e-12
-2.69118e-12
1.17585e-09
-2.31138e-12
-2.94915e-12
1.18017e-09
-2.26789e-12
-2.29037e-12
1.19764e-09
-1.28944e-12
-8.52056e-13
1.19222e-09
4.44914e-11
4.9147e-11
8.56807e-10
6.7953e-11
-4.39719e-11
-6.51757e-11
6.71693e-11
-4.62383e-11
-6.41233e-11
-6.98312e-11
5.3044e-12
8.7507e-12
1.46573e-10
9.24226e-12
-1.10519e-11
-1.05638e-11
-1.18361e-12
1.25865e-12
1.22984e-11
1.04215e-13
-4.83611e-12
1.17408e-09
1.97726e-13
-4.67092e-12
1.1744e-09
2.34884e-13
-4.63744e-12
1.17585e-09
-1.53688e-13
-3.83191e-12
1.17511e-09
-5.28236e-13
-3.80796e-12
1.17538e-09
-1.14669e-12
-3.49815e-12
1.17541e-09
-9.34624e-13
-3.77723e-12
1.17965e-09
-1.43656e-12
-2.83894e-12
1.19347e-09
-8.247e-13
-1.31522e-12
1.1923e-09
5.03432e-11
5.03949e-11
8.68013e-10
6.81991e-11
-4.80593e-11
-6.64101e-11
6.83104e-11
-4.81127e-11
-6.65177e-11
-6.11301e-11
1.50723e-11
1.53592e-11
1.3019e-10
-3.33649e-11
-1.91747e-11
5.94302e-11
-1.83428e-11
-9.50628e-12
1.40971e-11
1.21648e-11
-1.04703e-11
-7.63339e-12
9.05213e-12
1.06171e-11
-6.86895e-12
-4.05938e-13
-5.43724e-12
1.17638e-09
-8.46914e-13
-5.45381e-12
1.17781e-09
1.39625e-13
-5.46915e-12
1.18296e-09
4.53324e-13
-4.50762e-12
1.18113e-09
6.05091e-13
-4.1836e-12
1.18139e-09
1.14067e-12
-4.42499e-12
1.1849e-09
-1.65737e-12
-8.00947e-13
1.18816e-09
-2.76587e-13
-1.4703e-12
1.19311e-09
4.91404e-11
4.44678e-11
8.57364e-10
6.79459e-11
-4.39515e-11
-6.51706e-11
6.72002e-11
-4.62146e-11
-6.41559e-11
-6.11898e-11
1.53525e-11
1.50744e-11
1.30299e-10
-3.50322e-11
6.31638e-11
-1.88945e-11
-1.89004e-11
-8.48214e-12
9.67059e-12
1.13065e-11
-7.67118e-12
-8.49963e-12
9.70261e-12
1.13354e-11
-7.69889e-12
9.8383e-13
-5.88226e-12
1.18389e-09
2.61683e-12
-6.20053e-12
1.19249e-09
2.65975e-12
-2.29776e-12
1.19381e-09
1.18197e-12
-1.16367e-12
1.19532e-09
-2.8716e-13
-1.39621e-12
1.19763e-09
-8.29968e-13
-2.51996e-12
1.19313e-09
3.15764e-12
4.74738e-11
1.0095e-09
6.1808e-11
-4.69161e-11
-6.09668e-11
4.63153e-11
6.41609e-11
9.21352e-10
6.83019e-11
-4.51218e-11
-6.37755e-11
6.44011e-11
-6.10637e-11
-6.1697e-11
-6.98452e-11
8.74854e-12
5.29588e-12
1.46585e-10
-3.34024e-11
-1.9164e-11
5.94409e-11
-1.83223e-11
-7.63906e-12
9.0652e-12
1.06204e-11
-6.87512e-12
-9.50581e-12
1.40899e-11
1.21613e-11
-1.0469e-11
-9.54289e-13
-4.04958e-12
1.19602e-09
-2.08613e-12
-4.55909e-12
1.20075e-09
2.23008e-12
4.76218e-11
1.0248e-09
6.1159e-11
-4.66694e-11
-6.03632e-11
2.44161e-12
6.41332e-11
1.03453e-09
6.62875e-11
-6.21488e-11
-6.43135e-11
4.52969e-12
6.62766e-11
1.04484e-09
6.7536e-11
-6.47891e-11
-6.4726e-11
4.6778e-11
6.70805e-11
9.06278e-10
6.69272e-11
-4.44907e-11
-6.23167e-11
6.80085e-11
-6.36989e-11
-6.56855e-11
-5.90984e-11
6.00038e-12
1.38857e-11
1.33465e-10
-4.41058e-11
-3.10541e-12
7.26372e-12
9.55296e-11
-9.60239e-12
1.20552e-11
1.3709e-11
-7.5834e-12
9.24187e-12
-1.05618e-11
-1.10527e-11
1.25933e-12
-1.18417e-12
1.22974e-11
2.917e-12
6.83733e-11
1.04468e-09
6.87774e-11
-6.65152e-11
-6.66455e-11
4.96754e-11
6.95336e-11
8.99981e-10
7.21879e-11
-6.54669e-11
-7.02332e-11
7.47041e-11
-4.65866e-11
-6.96787e-11
-5.67405e-11
8.25878e-12
1.59349e-11
1.29845e-10
-4.83054e-11
-5.44923e-12
1.20507e-12
1.78964e-11
9.87868e-11
-5.51218e-11
-5.58344e-12
1.75831e-11
1.07336e-10
2.06252e-12
-4.85646e-11
-3.02941e-13
6.19365e-12
1.0084e-10
-9.84239e-12
1.39747e-11
1.44416e-11
-9.65998e-12
1.13029e-11
-1.29152e-11
-1.16218e-11
1.07591e-12
2.63027e-12
9.52788e-12
-1.89237e-13
-1.53815e-12
-6.59175e-13
2.38656e-12
-4.21898e-11
1.7749e-12
9.76749e-11
-9.58555e-12
1.50866e-11
1.50922e-11
-9.48907e-12
-4.38491e-11
-6.56548e-12
1.52669e-11
9.43744e-11
-1.07842e-11
1.56159e-11
1.60157e-11
-1.05407e-11
-3.81112e-11
-2.17867e-11
6.53617e-11
-1.91008e-11
-1.11135e-11
1.1046e-11
1.59979e-11
-8.28265e-12
-8.8491e-12
1.03628e-11
1.25572e-11
-8.08158e-12
2.16283e-12
-3.39666e-13
-1.35726e-11
-1.84035e-14
2.42878e-12
9.3391e-12
1.38148e-13
-1.32657e-11
-9.0344e-13
1.3803e-12
1.23033e-12
1.14204e-11
-4.43945e-14
-4.49513e-14
1.16417e-09
-1.0657e-13
-4.60756e-14
1.16388e-09
-1.73763e-13
-4.91083e-14
1.16376e-09
-2.54646e-13
-4.71454e-14
1.16388e-09
-3.52075e-13
-4.96621e-14
1.16434e-09
-4.72812e-13
-3.86352e-14
1.16519e-09
-6.03881e-13
-5.18607e-14
1.16642e-09
-7.71084e-13
-7.49692e-15
1.16838e-09
-9.19658e-13
-7.77242e-14
1.17056e-09
-1.14691e-12
1.60505e-13
1.17415e-09
-1.12967e-12
-2.38653e-13
1.17661e-09
-1.51902e-12
7.47572e-13
1.18356e-09
-3.65793e-13
-8.40055e-13
1.19581e-09
6.64011e-11
1.70298e-12
1.04174e-09
6.68356e-11
-6.59491e-11
-6.6147e-11
-4.31982e-11
1.58523e-12
9.86238e-11
-9.94956e-12
1.4582e-11
1.46135e-11
-9.85345e-12
-4.59458e-14
-1.07286e-13
1.16391e-09
-1.06268e-13
-1.06442e-13
1.16382e-09
-1.73361e-13
-1.09243e-13
1.16378e-09
-2.5368e-13
-1.04471e-13
1.16397e-09
-3.4817e-13
-1.09551e-13
1.16448e-09
-4.64302e-13
-8.93711e-14
1.16534e-09
-5.88959e-13
-1.16497e-13
1.1666e-09
-7.4492e-13
-3.31308e-14
1.16853e-09
-8.83748e-13
-1.75136e-13
1.17077e-09
-1.12824e-12
3.26236e-13
1.17449e-09
-1.1708e-12
-5.60161e-13
1.17821e-09
-2.3151e-12
2.27596e-12
1.19218e-09
-1.2108e-12
-2.02966e-12
1.20099e-09
6.71365e-11
4.82803e-11
8.96759e-10
7.03247e-11
-6.51775e-11
-6.97573e-11
7.23655e-11
-4.82336e-11
-7.09391e-11
-4.51526e-11
-6.12579e-12
1.44439e-11
9.54102e-11
-1.11357e-11
1.5071e-11
1.55642e-11
-1.09393e-11
-4.95382e-14
-1.7476e-13
1.16377e-09
-1.09624e-13
-1.73281e-13
1.16385e-09
-1.7801e-13
-1.77822e-13
1.164e-09
-2.57003e-13
-1.72869e-13
1.16422e-09
-3.62772e-13
-1.70253e-13
1.16484e-09
-4.72759e-13
-1.51561e-13
1.16576e-09
-6.38671e-13
-1.45881e-13
1.16722e-09
-7.45016e-13
-8.45756e-14
1.16919e-09
-1.01878e-12
-9.48484e-14
1.17205e-09
-8.50863e-13
2.00677e-13
1.1758e-09
-1.48377e-12
-3.38005e-14
1.18307e-09
9.88344e-13
1.27187e-12
1.19238e-09
4.68652e-11
1.04581e-12
1.02336e-09
6.04878e-11
-4.76111e-11
-6.03623e-11
-5.86467e-11
1.46444e-11
6.477e-12
1.32671e-10
-3.89116e-11
-2.03113e-11
6.58646e-11
-1.76628e-11
-9.08724e-12
1.01011e-11
1.2086e-11
-8.34004e-12
-1.1348e-11
1.05827e-11
1.54733e-11
-8.44683e-12
-4.74007e-14
-2.55706e-13
1.16389e-09
-1.05082e-13
-2.53255e-13
1.16399e-09
-1.7363e-13
-2.56591e-13
1.16427e-09
-2.51921e-13
-2.50693e-13
1.1646e-09
-3.54194e-13
-2.42801e-13
1.16528e-09
-4.54877e-13
-2.33021e-13
1.16618e-09
-5.99866e-13
-1.99397e-13
1.16765e-09
-6.83479e-13
-1.77862e-13
1.16948e-09
-9.07511e-13
-7.26166e-14
1.17201e-09
-6.73492e-13
-8.24995e-14
1.17517e-09
-1.34704e-12
3.67399e-13
1.18142e-09
1.50561e-12
-1.87788e-13
1.19397e-09
6.30028e-11
1.44627e-12
1.03432e-09
6.47163e-11
-6.22073e-11
-6.41462e-11
-4.94896e-11
-4.88781e-12
1.63042e-11
9.82765e-13
1.00093e-10
1.80364e-12
-3.3041e-13
-1.32506e-11
2.40796e-12
8.04131e-15
9.36138e-12
-4.97343e-14
-3.53441e-13
1.16434e-09
-1.10115e-13
-3.47572e-13
1.16448e-09
-1.71265e-13
-3.62598e-13
1.16485e-09
-2.44401e-13
-3.52674e-13
1.16528e-09
-3.43654e-13
-3.41879e-13
1.16614e-09
-4.42985e-13
-3.37693e-13
1.16712e-09
-5.84116e-13
-2.91472e-13
1.16872e-09
-6.85002e-13
-2.75485e-13
1.17045e-09
-8.29132e-13
-1.61204e-13
1.17311e-09
-7.35171e-13
-1.87534e-13
1.17536e-09
-1.13129e-12
6.03763e-13
1.18153e-09
8.85783e-13
-9.55585e-13
1.19635e-09
6.42307e-11
2.69579e-12
1.04351e-09
6.58779e-11
-6.49286e-11
-6.42262e-11
-5.61699e-11
1.54957e-11
-5.55303e-12
1.08552e-10
1.90641e-12
-1.83521e-13
-9.02249e-13
-1.29505e-11
1.2127e-12
1.39549e-12
1.14281e-11
-3.80972e-14
-4.7425e-13
1.16519e-09
-8.92951e-14
-4.63903e-13
1.16534e-09
-1.5248e-13
-4.7312e-13
1.16577e-09
-2.34999e-13
-4.53555e-13
1.16619e-09
-3.40502e-13
-4.41394e-13
1.16711e-09
-4.49875e-13
-4.47481e-13
1.16817e-09
-5.9016e-13
-3.86268e-13
1.16988e-09
-6.69506e-13
-4.38566e-13
1.17158e-09
-9.09456e-13
-1.30207e-13
1.17379e-09
-7.65583e-13
-5.15735e-13
1.17556e-09
-1.89528e-12
1.63304e-12
1.18495e-09
-9.05335e-13
-1.6199e-12
1.19275e-09
6.47107e-11
4.59912e-11
9.04147e-10
6.6977e-11
-6.37803e-11
-6.58261e-11
6.58737e-11
-4.62001e-11
-6.38413e-11
-4.95377e-11
1.95941e-13
4.915e-12
1.01821e-10
-1.01718e-11
1.34778e-11
1.40344e-11
-1.00252e-11
-5.03883e-14
-6.05675e-13
1.16643e-09
-1.15836e-13
-5.8908e-13
1.1666e-09
-1.46719e-13
-6.40414e-13
1.16723e-09
-2.02024e-13
-5.99276e-13
1.16767e-09
-2.95133e-13
-5.83582e-13
1.16872e-09
-3.9012e-13
-5.87892e-13
1.16985e-09
-5.26592e-13
-5.25412e-13
1.17185e-09
-7.07988e-13
-4.97197e-13
1.17378e-09
-4.5198e-13
-6.13638e-13
1.17603e-09
-1.36555e-12
2.86408e-13
1.17968e-09
1.82697e-12
-1.24002e-12
1.18773e-09
4.63578e-11
2.94808e-12
1.00825e-09
6.07484e-11
-4.77663e-11
-6.0923e-11
-6.08065e-11
1.18315e-11
4.6939e-12
1.3663e-10
1.00124e-11
-1.10933e-11
-1.22651e-11
2.43246e-12
8.43562e-13
1.007e-11
-3.15779e-15
-7.71865e-13
1.16839e-09
-3.0117e-14
-7.46744e-13
1.16854e-09
-8.44249e-14
-7.48908e-13
1.1692e-09
-1.80154e-13
-6.8484e-13
1.1695e-09
-2.80165e-13
-6.8646e-13
1.17047e-09
-4.43396e-13
-6.69199e-13
1.17157e-09
-5.04117e-13
-7.06955e-13
1.17378e-09
-6.40978e-13
-6.44417e-13
1.17602e-09
-9.86303e-13
-3.96268e-13
1.18023e-09
-7.77563e-13
-3.81431e-13
1.19374e-09
-7.87294e-13
-2.70552e-15
1.19153e-09
6.2451e-11
4.51316e-11
9.19517e-10
6.35966e-11
-6.16307e-11
-6.2249e-11
6.75483e-11
-4.66771e-11
-6.43233e-11
-4.5266e-11
-2.39959e-12
5.8779e-12
9.72846e-11
-9.96466e-12
1.15361e-11
1.33554e-11
-7.97296e-12
-2.34828e-13
-5.93125e-13
-1.5319e-12
2.35986e-12
-7.28842e-14
-9.19268e-13
1.17057e-09
-1.71678e-13
-8.87047e-13
1.17077e-09
-9.5431e-14
-1.02509e-12
1.17207e-09
-7.55625e-14
-9.11821e-13
1.17203e-09
-1.6806e-13
-8.31836e-13
1.17315e-09
-1.37521e-13
-9.10353e-13
1.17381e-09
-6.16922e-13
-4.58575e-13
1.17609e-09
-3.89001e-13
-9.88494e-13
1.18029e-09
-6.88127e-13
-5.71178e-13
1.19812e-09
5.86553e-13
7.81085e-14
1.19049e-09
4.30019e-11
4.81343e-11
8.55653e-10
6.70403e-11
-4.50409e-11
-6.47467e-11
6.5723e-11
-4.76374e-11
-6.47364e-11
-7.16387e-11
3.21465e-12
6.967e-12
1.49591e-10
8.05922e-12
-1.05705e-11
-9.95873e-12
-1.38344e-12
1.06419e-12
1.27892e-11
1.73222e-13
-1.14296e-12
1.17415e-09
3.35229e-13
-1.13649e-12
1.17449e-09
2.04836e-13
-8.62563e-13
1.17582e-09
-8.2578e-14
-6.81369e-13
1.17517e-09
-1.91119e-13
-7.41557e-13
1.1754e-09
-5.2311e-13
-7.68443e-13
1.1756e-09
2.6907e-13
-1.36501e-12
1.17976e-09
-4.28169e-13
-7.76474e-13
1.19395e-09
1.04898e-13
6.29809e-13
1.19056e-09
4.94738e-11
4.95234e-11
8.67355e-10
6.7162e-11
-4.94169e-11
-6.67965e-11
6.72734e-11
-4.94715e-11
-6.69042e-11
-6.28932e-11
1.37387e-11
1.38037e-11
1.32959e-10
-3.43776e-11
-1.78469e-11
5.9976e-11
-1.72067e-11
-9.74861e-12
1.36987e-11
1.20179e-11
-1.08051e-11
-7.91124e-12
8.80028e-12
1.04632e-11
-7.05979e-12
-2.27085e-13
-1.12404e-12
1.17661e-09
-5.48503e-13
-1.18267e-12
1.17818e-09
-3.27393e-14
-1.49716e-12
1.18308e-09
3.66814e-13
-1.35614e-12
1.18141e-09
5.9852e-13
-1.13718e-12
1.18156e-09
1.62305e-12
-1.89841e-12
1.185e-09
-1.25449e-12
1.83349e-12
1.18785e-09
-1.55106e-14
-7.86628e-13
1.19188e-09
4.81245e-11
4.29837e-11
8.56213e-10
6.70371e-11
-4.50165e-11
-6.47394e-11
6.57589e-11
-4.76148e-11
-6.47676e-11
-6.29576e-11
1.37986e-11
1.37325e-11
1.33075e-10
-3.60451e-11
6.39544e-11
-1.78836e-11
-1.78911e-11
-8.76119e-12
9.40177e-12
1.11704e-11
-7.88427e-12
-8.77959e-12
9.43336e-12
1.11976e-11
-7.91262e-12
8.18639e-13
-1.52496e-12
1.1835e-09
2.29032e-12
-2.32687e-12
1.19216e-09
1.28751e-12
9.79124e-13
1.19233e-09
-1.83776e-13
1.49977e-12
1.19394e-09
-9.55383e-13
8.80905e-13
1.19638e-09
-1.62536e-12
-9.05942e-13
1.1928e-09
2.94279e-12
4.63523e-11
1.00834e-09
6.07432e-11
-4.77605e-11
-6.09147e-11
4.51455e-11
6.24437e-11
9.1966e-10
6.75549e-11
-4.66893e-11
-6.43303e-11
6.35927e-11
-6.16239e-11
-6.22453e-11
-7.16539e-11
6.96924e-12
3.20883e-12
1.49605e-10
-3.44085e-11
-1.78399e-11
5.99882e-11
-1.71894e-11
-7.91682e-12
8.81264e-12
1.04658e-11
-7.06631e-12
-9.74785e-12
1.36914e-11
1.20143e-11
-1.08036e-11
-8.20374e-13
-3.71083e-13
1.19571e-09
-2.01487e-12
-1.23462e-12
1.20085e-09
1.05079e-12
4.68566e-11
1.02334e-09
6.04806e-11
-4.75994e-11
-6.03584e-11
1.44877e-12
6.29957e-11
1.03428e-09
6.47116e-11
-6.22017e-11
-6.41457e-11
2.6968e-12
6.42286e-11
1.04352e-09
6.58742e-11
-6.49262e-11
-6.42237e-11
4.59924e-11
6.47074e-11
9.04165e-10
6.58722e-11
-4.62017e-11
-6.38409e-11
6.69745e-11
-6.37778e-11
-6.58235e-11
-6.0805e-11
4.6951e-12
1.18295e-11
1.36625e-10
-4.52644e-11
-2.40023e-12
5.87591e-12
9.72797e-11
-9.96439e-12
1.15349e-11
1.3355e-11
-7.97302e-12
8.05851e-12
-9.95683e-12
-1.05708e-11
1.06379e-12
-1.38314e-12
1.27885e-11
1.72697e-12
6.63998e-11
1.04148e-09
6.67878e-11
-6.59366e-11
-6.61281e-11
4.82996e-11
6.71126e-11
8.9647e-10
7.03101e-11
-6.51495e-11
-6.97525e-11
7.23778e-11
-4.82458e-11
-7.0949e-11
-5.86377e-11
6.48604e-12
1.46435e-11
1.32665e-10
-4.94878e-11
-4.89257e-12
9.84523e-13
1.6302e-11
1.00089e-10
-5.61678e-11
-5.55151e-12
1.54931e-11
1.08549e-10
1.90604e-12
-4.9537e-11
1.95283e-13
4.91466e-12
1.01819e-10
-1.01715e-11
1.34773e-11
1.40338e-11
-1.00249e-11
1.0012e-11
-1.22644e-11
-1.10929e-11
8.43414e-13
2.43238e-12
1.00695e-11
-2.34803e-13
-1.53191e-12
-5.93018e-13
2.35974e-12
-4.31797e-11
1.59363e-12
9.85904e-11
-9.9446e-12
1.45898e-11
1.46027e-11
-9.85433e-12
-4.51169e-11
-6.1307e-12
1.4452e-11
9.5353e-11
-1.11315e-11
1.50601e-11
1.55574e-11
-1.09312e-11
-3.89089e-11
-2.0315e-11
6.58641e-11
-1.76637e-11
-1.13482e-11
1.05838e-11
1.54741e-11
-8.4476e-12
-9.08707e-12
1.01016e-11
1.20863e-11
-8.33937e-12
1.80349e-12
-3.30479e-13
-1.325e-11
8.12254e-15
2.40776e-12
9.36112e-12
-1.83567e-13
-1.29503e-11
-9.0212e-13
1.39543e-12
1.2127e-12
1.14278e-11
1.27234e-13
1.26319e-13
1.16392e-09
2.57061e-13
1.26297e-13
1.16363e-09
3.97758e-13
1.28145e-13
1.16349e-09
5.62475e-13
1.2534e-13
1.1636e-09
7.52081e-13
1.26612e-13
1.16403e-09
9.88956e-13
1.20274e-13
1.16484e-09
1.27271e-12
1.15185e-13
1.16603e-09
1.62701e-12
1.04958e-13
1.16793e-09
2.03822e-12
8.38422e-14
1.17006e-09
2.42774e-12
1.00327e-13
1.17367e-09
2.87725e-12
-2.6855e-14
1.1762e-09
2.48576e-12
2.23163e-13
1.18373e-09
2.53433e-12
-1.9994e-13
1.19597e-09
6.59911e-11
4.80354e-13
1.04385e-09
6.64942e-11
-6.61807e-11
-6.63663e-11
-4.36622e-11
1.54762e-12
9.90564e-11
-1.0041e-11
1.45029e-11
1.45372e-11
-9.94715e-12
1.27189e-13
2.55924e-13
1.16365e-09
2.55787e-13
2.55179e-13
1.16356e-09
3.94446e-13
2.60255e-13
1.16351e-09
5.55498e-13
2.54178e-13
1.16369e-09
7.39851e-13
2.58173e-13
1.16416e-09
9.67543e-13
2.46648e-13
1.16498e-09
1.23842e-12
2.38269e-13
1.1662e-09
1.57472e-12
2.24481e-13
1.16807e-09
1.96975e-12
1.6369e-13
1.17029e-09
2.30492e-12
2.23785e-13
1.17404e-09
2.81384e-12
-2.79589e-13
1.17795e-09
1.79071e-12
9.08007e-13
1.19252e-09
1.68605e-12
-7.87415e-13
1.20168e-09
6.67987e-11
4.78732e-11
8.98771e-10
7.00818e-11
-6.54124e-11
-6.99113e-11
7.15439e-11
-4.88697e-11
-7.19501e-11
-4.5555e-11
-6.03383e-12
1.42908e-11
9.58087e-11
-1.12107e-11
1.50059e-11
1.55318e-11
-1.10397e-11
1.28204e-13
3.96287e-13
1.1635e-09
2.60173e-13
3.93708e-13
1.16358e-09
4.0096e-13
4.0092e-13
1.16371e-09
5.69741e-13
3.87184e-13
1.16391e-09
7.58792e-13
3.95373e-13
1.16451e-09
1.00531e-12
3.6642e-13
1.1654e-09
1.27626e-12
3.60641e-13
1.16683e-09
1.66839e-12
2.90839e-13
1.16874e-09
1.98701e-12
2.33317e-13
1.17166e-09
2.60741e-12
8.12673e-14
1.17532e-09
2.39887e-12
-2.2503e-13
1.18322e-09
3.35621e-12
-3.15415e-13
1.19265e-09
4.69991e-11
2.53195e-13
1.02531e-09
6.10255e-11
-4.75915e-11
-6.00659e-11
-5.91763e-11
1.47853e-11
6.0118e-12
1.33252e-10
-3.932e-11
-2.01898e-11
6.62274e-11
-1.72771e-11
-9.14516e-12
1.00582e-11
1.20564e-11
-8.43271e-12
-1.14286e-11
1.05237e-11
1.54404e-11
-8.51273e-12
1.2544e-13
5.60866e-13
1.16361e-09
2.54136e-13
5.54863e-13
1.1637e-09
3.86834e-13
5.69518e-13
1.16397e-09
5.46939e-13
5.47441e-13
1.16428e-09
7.2151e-13
5.66504e-13
1.16493e-09
9.44821e-13
5.24588e-13
1.1658e-09
1.17123e-12
5.42825e-13
1.16724e-09
1.5048e-12
4.19446e-13
1.16902e-09
1.70855e-12
4.36312e-13
1.1716e-09
2.21067e-12
4.74798e-14
1.1747e-09
1.75243e-12
1.28918e-13
1.18153e-09
2.57193e-12
-1.36719e-12
1.19421e-09
6.28484e-11
2.58496e-13
1.03577e-09
6.46954e-11
-6.23559e-11
-6.40728e-11
-4.97932e-11
-4.69032e-12
1.60996e-11
7.58892e-13
1.00473e-10
1.72266e-12
-3.37114e-13
-1.3201e-11
2.41908e-12
2.71072e-15
9.39364e-12
1.26455e-13
7.50122e-13
1.16403e-09
2.57741e-13
7.39362e-13
1.16417e-09
3.94736e-13
7.58282e-13
1.16452e-09
5.65525e-13
7.22189e-13
1.16493e-09
7.49904e-13
7.51041e-13
1.16578e-09
9.79624e-13
7.00076e-13
1.16672e-09
1.22136e-12
7.22201e-13
1.1683e-09
1.5074e-12
6.05467e-13
1.16998e-09
1.76104e-12
5.58248e-13
1.17273e-09
2.06688e-12
1.87122e-13
1.17491e-09
1.79073e-12
1.97715e-13
1.18173e-09
1.90554e-12
-1.67888e-12
1.19655e-09
6.3795e-11
7.82246e-13
1.04501e-09
6.56811e-11
-6.52391e-11
-6.43502e-11
-5.64999e-11
1.51879e-11
-5.71879e-12
1.08859e-10
1.96717e-12
-2.55608e-13
-9.09978e-13
-1.29223e-11
1.21482e-12
1.40209e-12
1.1471e-11
1.20604e-13
9.86741e-13
1.16485e-09
2.46674e-13
9.66813e-13
1.16499e-09
3.65959e-13
1.00409e-12
1.16541e-09
5.23448e-13
9.451e-13
1.16581e-09
6.98531e-13
9.80468e-13
1.1667e-09
9.10111e-13
9.11542e-13
1.16775e-09
1.11513e-12
9.5341e-13
1.16945e-09
1.3677e-12
7.91802e-13
1.17114e-09
1.3825e-12
9.06095e-13
1.17343e-09
1.7322e-12
1.48367e-13
1.17526e-09
7.00847e-13
9.7419e-13
1.1852e-09
1.7932e-13
-1.41406e-12
1.19301e-09
6.43019e-11
4.56801e-11
9.04666e-10
6.68095e-11
-6.4141e-11
-6.60747e-11
6.53225e-11
-4.67419e-11
-6.47135e-11
-4.98825e-11
3.27702e-13
4.6472e-12
1.02152e-10
-1.0236e-11
1.34159e-11
1.40035e-11
-1.01264e-11
1.16234e-13
1.26996e-12
1.16604e-09
2.38545e-13
1.23731e-12
1.16621e-09
3.6028e-13
1.27378e-12
1.16683e-09
5.41308e-13
1.17054e-12
1.16727e-09
7.19904e-13
1.22097e-12
1.1683e-09
9.51855e-13
1.11552e-12
1.16942e-09
1.16247e-12
1.16286e-12
1.17143e-09
1.27656e-12
1.08889e-12
1.17337e-09
1.62709e-12
8.08608e-13
1.17578e-09
8.52887e-13
1.09853e-12
1.17951e-09
2.59608e-12
-1.06572e-12
1.18803e-09
4.64786e-11
1.86305e-12
1.00846e-09
6.11149e-11
-4.77389e-11
-6.07472e-11
-6.13481e-11
1.19136e-11
4.35125e-12
1.37243e-10
9.88916e-12
-1.10713e-11
-1.21663e-11
2.38832e-12
7.89687e-13
1.01704e-11
1.06788e-13
1.62419e-12
1.16794e-09
2.25911e-13
1.5725e-12
1.16808e-09
2.90925e-13
1.66391e-12
1.16875e-09
4.18145e-13
1.50205e-12
1.16905e-09
6.02846e-13
1.50472e-12
1.17e-09
7.89002e-13
1.36605e-12
1.17113e-09
1.08812e-12
1.27341e-12
1.17337e-09
1.22375e-12
1.22365e-12
1.17575e-09
1.04905e-12
1.20211e-12
1.18001e-09
1.39358e-12
5.40578e-13
1.19395e-09
-4.31618e-14
-2.07983e-13
1.19211e-09
6.2266e-11
4.48951e-11
9.19822e-10
6.34334e-11
-6.195e-11
-6.25672e-11
6.73115e-11
-4.70517e-11
-6.48226e-11
-4.57061e-11
-2.26927e-12
5.64801e-12
9.77777e-11
-1.00035e-11
1.14925e-11
1.33906e-11
-8.0641e-12
-2.46746e-13
-5.86416e-13
-1.52613e-12
2.35929e-12
8.74049e-14
2.03667e-12
1.17008e-09
1.652e-13
1.96657e-12
1.1703e-09
2.33361e-13
1.97973e-12
1.17168e-09
4.34783e-13
1.70291e-12
1.17162e-09
5.54701e-13
1.75627e-12
1.17278e-09
9.03005e-13
1.37763e-12
1.17345e-09
8.05983e-13
1.62277e-12
1.17584e-09
1.20939e-12
1.03816e-12
1.18007e-09
1.03111e-12
1.00638e-12
1.19849e-09
1.1118e-12
1.31586e-13
1.19081e-09
4.30183e-11
4.79678e-11
8.56028e-10
6.7126e-11
-4.5123e-11
-6.48346e-11
6.55092e-11
-4.79809e-11
-6.51523e-11
-7.21771e-11
3.2125e-12
6.71306e-12
1.50165e-10
7.95814e-12
-1.05271e-11
-9.8878e-12
-1.43657e-12
9.99533e-13
1.28938e-11
1.05239e-13
2.42729e-12
1.17367e-09
2.27818e-13
2.3022e-12
1.17403e-09
8.43874e-14
2.59163e-12
1.17535e-09
4.83844e-14
2.2026e-12
1.1747e-09
1.85152e-13
2.05974e-12
1.17496e-09
1.45012e-13
1.72714e-12
1.17529e-09
1.09569e-12
8.46776e-13
1.17959e-09
5.52428e-13
1.38502e-12
1.19415e-09
1.44234e-13
1.09595e-12
1.19088e-09
4.94094e-11
4.94583e-11
8.67707e-10
6.72254e-11
-4.96741e-11
-6.69971e-11
6.73357e-11
-4.97277e-11
-6.71052e-11
-6.32669e-11
1.3614e-11
1.35319e-11
1.33498e-10
-3.47944e-11
-1.77038e-11
6.0323e-11
-1.69826e-11
-9.8128e-12
1.36608e-11
1.20649e-11
-1.09217e-11
-7.98289e-12
8.7913e-12
1.04855e-11
-7.12738e-12
-9.40898e-15
2.87615e-12
1.17619e-09
-2.69776e-13
2.80889e-12
1.17793e-09
-2.20988e-13
2.3783e-12
1.18324e-09
1.2625e-13
1.74478e-12
1.18152e-09
1.93731e-13
1.78309e-12
1.18177e-09
9.71173e-13
6.9465e-13
1.18526e-09
-1.07089e-12
2.59444e-12
1.18814e-09
-2.06149e-13
-4.85211e-14
1.19245e-09
4.79537e-11
4.29963e-11
8.56571e-10
6.71205e-11
-4.5102e-11
-6.48301e-11
6.55439e-11
-4.79632e-11
-6.51858e-11
-6.33369e-11
1.35266e-11
1.36066e-11
1.33615e-10
-3.65535e-11
6.43508e-11
-1.77091e-11
-1.77175e-11
-8.8321e-12
9.39625e-12
1.12101e-11
-7.9654e-12
-8.85073e-12
9.42792e-12
1.12372e-11
-7.99388e-12
2.41739e-13
2.47477e-12
1.18371e-09
9.95258e-13
1.76124e-12
1.19245e-09
-2.99582e-13
3.34739e-12
1.19266e-09
-1.35395e-12
2.56658e-12
1.19417e-09
-1.67489e-12
1.90112e-12
1.19659e-09
-1.41495e-12
1.77399e-13
1.19306e-09
1.86285e-12
4.64726e-11
1.00855e-09
6.11099e-11
-4.77338e-11
-6.07396e-11
4.491e-11
6.22595e-11
9.19956e-10
6.7319e-11
-4.70638e-11
-6.48291e-11
6.34295e-11
-6.19432e-11
-6.25632e-11
-7.21965e-11
6.7163e-12
3.20562e-12
1.50181e-10
-3.48276e-11
-1.76969e-11
6.03363e-11
-1.69638e-11
-7.98845e-12
8.80359e-12
1.04881e-11
-7.13401e-12
-9.81207e-12
1.36537e-11
1.20613e-11
-1.09201e-11
-1.59293e-13
2.51308e-12
1.19591e-09
-7.61867e-13
1.63871e-12
1.20158e-09
2.58234e-13
4.69912e-11
1.0253e-09
6.10211e-11
-4.75822e-11
-6.00613e-11
2.63572e-13
6.28403e-11
1.03573e-09
6.46908e-11
-6.23523e-11
-6.40726e-11
7.82775e-13
6.37931e-11
1.04502e-09
6.56786e-11
-6.52371e-11
-6.43472e-11
4.5682e-11
6.42991e-11
9.04684e-10
6.53216e-11
-4.67437e-11
-6.47135e-11
6.68073e-11
-6.41387e-11
-6.60723e-11
-6.1348e-11
4.35253e-12
1.19117e-11
1.37239e-10
-4.5707e-11
-2.26982e-12
5.64704e-12
9.77745e-11
-1.00031e-11
1.14915e-11
1.33903e-11
-8.06406e-12
7.95722e-12
-9.8861e-12
-1.05276e-11
9.99338e-13
-1.43621e-12
1.28933e-11
5.53816e-13
6.59917e-11
1.04368e-09
6.64335e-11
-6.61707e-11
-6.63827e-11
4.78924e-11
6.67684e-11
8.98542e-10
7.00634e-11
-6.54063e-11
-6.99162e-11
7.15532e-11
-4.8877e-11
-7.19583e-11
-5.91685e-11
6.02002e-12
1.47856e-11
1.33247e-10
-4.97921e-11
-4.69495e-12
7.60054e-13
1.60969e-11
1.0047e-10
-5.64979e-11
-5.71798e-12
1.51855e-11
1.08856e-10
1.96738e-12
-4.98821e-11
3.27959e-13
4.64638e-12
1.0215e-10
-1.02357e-11
1.34153e-11
1.4003e-11
-1.01262e-11
9.88877e-12
-1.21656e-11
-1.10709e-11
7.89525e-13
2.38821e-12
1.017e-11
-2.46749e-13
-1.52618e-12
-5.86282e-13
2.35922e-12
-4.36409e-11
1.57809e-12
9.90281e-11
-1.00378e-11
1.45123e-11
1.45265e-11
-9.94742e-12
-4.55202e-11
-6.05108e-12
1.43013e-11
9.57574e-11
-1.1207e-11
1.49951e-11
1.55254e-11
-1.10332e-11
-3.93177e-11
-2.0193e-11
6.62274e-11
-1.72775e-11
-1.14289e-11
1.05245e-11
1.54409e-11
-8.51353e-12
-9.14488e-12
1.00583e-11
1.20568e-11
-8.43242e-12
1.72254e-12
-3.3731e-13
-1.32002e-11
2.70312e-15
2.41892e-12
9.39338e-12
-2.55684e-13
-1.29221e-11
-9.09844e-13
1.40201e-12
1.21479e-12
1.14709e-11
2.96979e-13
2.95201e-13
1.16333e-09
6.13133e-13
2.96405e-13
1.16302e-09
9.58644e-13
3.03096e-13
1.16285e-09
1.36528e-12
2.95927e-13
1.16291e-09
1.83705e-12
3.01197e-13
1.16326e-09
2.42448e-12
2.76887e-13
1.16398e-09
3.11892e-12
2.8295e-13
1.16506e-09
4.00646e-12
2.19802e-13
1.16683e-09
4.99874e-12
2.63862e-13
1.16882e-09
6.12278e-12
1.15684e-13
1.17244e-09
7.09906e-12
3.22946e-13
1.17491e-09
7.10412e-12
-7.74183e-14
1.18382e-09
5.77348e-12
8.89765e-13
1.19642e-09
6.61436e-11
1.18162e-13
1.04959e-09
6.66611e-11
-6.63425e-11
-6.65417e-11
-4.36889e-11
1.60194e-12
9.91859e-11
-1.00562e-11
1.45151e-11
1.45487e-11
-9.96061e-12
2.98295e-13
6.11186e-13
1.16305e-09
6.10352e-13
6.09151e-13
1.16294e-09
9.50952e-13
6.22582e-13
1.16285e-09
1.34913e-12
6.06804e-13
1.16298e-09
1.80816e-12
6.20688e-13
1.16338e-09
2.37435e-12
5.78438e-13
1.16412e-09
3.03945e-12
5.93932e-13
1.16522e-09
3.88097e-12
4.77597e-13