/*--------------------------------*- C++ -*----------------------------------*\
| =========                 |                                                 |
| \\      /  F ield         | OpenFOAM: The Open Source CFD Toolbox           |
|  \\    /   O peration     | Version:  2.1.1                                 |
|   \\  /    A nd           | Web:      www.OpenFOAM.org                      |
|    \\/     M anipulation  |                                                 |
\*---------------------------------------------------------------------------*/
FoamFile
{
    version     2.0;
    format      ascii;
    class       volVectorField;
    location    "0.0005";
    object      U;
}
// * * * * * * * * * * * * * * * * * * * * * * * * * * * * * * * * * * * * * //

dimensions      [0 1 -1 0 0 0 0];

internalField   nonuniform List<vector> 
10314
(
(-2.26908e-05 -2.26829e-05 0.11491)
(-6.51195e-05 -2.13247e-05 0.114929)
(-0.000113456 -2.14929e-05 0.114973)
(-0.000169036 -2.07641e-05 0.11505)
(-0.000236604 -2.03789e-05 0.115168)
(-0.000314418 -1.88147e-05 0.115335)
(-0.000418552 -1.73279e-05 0.11555)
(-0.000517405 -1.29632e-05 0.115858)
(-0.000677658 -6.50898e-06 0.116199)
(-0.000756985 -1.29697e-06 0.116742)
(-0.000961875 1.66283e-05 0.117165)
(-0.000869882 2.15891e-06 0.118221)
(-0.001034 2.11522e-05 0.119913)
(-0.000165648 -0.000157045 0.105332)
(0.00354321 0.000605227 0.0247118)
(-2.13595e-05 -6.51321e-05 0.114929)
(-6.50951e-05 -6.50853e-05 0.11495)
(-0.000113002 -6.64785e-05 0.114997)
(-0.000168767 -6.6119e-05 0.115075)
(-0.000235047 -6.95373e-05 0.115193)
(-0.000311294 -6.63774e-05 0.115359)
(-0.000413015 -7.74228e-05 0.115574)
(-0.00050727 -6.22081e-05 0.115876)
(-0.000666186 -0.000105609 0.116214)
(-0.000734351 -3.87315e-05 0.116749)
(-0.000958698 -0.000188422 0.117196)
(-0.000881444 9.46068e-05 0.118822)
(-0.00112665 -0.00033334 0.119609)
(-3.47703e-05 0.000815012 0.0890554)
(0.00340096 0.00211428 0.0253066)
(-2.15692e-05 -0.000113512 0.114973)
(-6.64672e-05 -0.000113016 0.114998)
(-0.000114507 -0.000114572 0.115051)
(-0.000172101 -0.000113092 0.115131)
(-0.000236891 -0.000115059 0.115255)
(-0.000322362 -0.000110074 0.115423)
(-0.000414469 -0.000115695 0.115653)
(-0.000545881 -9.50527e-05 0.115958)
(-0.000654438 -0.000117747 0.11635)
(-0.000841103 -3.70583e-05 0.116872)
(-0.00083444 -0.000129165 0.117652)
(-0.00107798 0.000207257 0.118843)
(0.000128088 -5.05536e-05 0.101441)
(-0.00168205 -0.0017401 0.0336148)
(0.00651708 0.00624809 0.0175669)
(-2.09066e-05 -0.000169159 0.115051)
(-6.61426e-05 -0.000168854 0.115076)
(-0.000113083 -0.000172345 0.115132)
(-0.000169268 -0.000169488 0.115213)
(-0.000232058 -0.000170948 0.115338)
(-0.000311977 -0.00016346 0.1155)
(-0.000398061 -0.000161959 0.115726)
(-0.000509514 -0.000137967 0.11601)
(-0.000608344 -0.00012771 0.116374)
(-0.000746028 -6.71066e-05 0.116841)
(-0.000730353 -9.34729e-06 0.117525)
(-0.000931441 6.37407e-05 0.119099)
(0.000282519 0.000277858 0.102754)
(0.00198161 0.00140298 0.0265941)
(5.8258e-05 -0.000160581 0.00416136)
(-2.06562e-05 -0.000236787 0.115168)
(-6.96404e-05 -0.000235216 0.115194)
(-0.00011513 -0.000237255 0.115255)
(-0.000170715 -0.000232435 0.115338)
(-0.000230872 -0.000231291 0.11547)
(-0.000313401 -0.000226534 0.115633)
(-0.000389011 -0.000218323 0.115869)
(-0.000511661 -0.000207416 0.116144)
(-0.000583398 -0.000178896 0.116525)
(-0.000722067 -0.000140667 0.116925)
(-0.00070469 -8.59406e-05 0.117674)
(-0.000816046 -2.69851e-05 0.119509)
(0.00015644 3.5273e-05 0.104121)
(0.00279141 -0.00183454 0.0297807)
(0.000256222 -0.000659156 0.00586716)
(-1.92787e-05 -0.000314753 0.115335)
(-6.65844e-05 -0.000311544 0.115359)
(-0.000110267 -0.000323015 0.115423)
(-0.000163298 -0.000312617 0.1155)
(-0.00022616 -0.000314267 0.115633)
(-0.000299047 -0.000299994 0.115791)
(-0.000379001 -0.000291412 0.116025)
(-0.00047017 -0.000260757 0.116283)
(-0.000541427 -0.000234005 0.116633)
(-0.000651341 -0.000169286 0.116977)
(-0.000620867 4.2028e-06 0.118118)
(-0.000865179 -0.000186439 0.11911)
(7.51637e-05 0.000744316 0.0904152)
(0.0032298 0.00106876 0.0273179)
(-1.80509e-05 -0.000418896 0.11555)
(-7.78409e-05 -0.000413453 0.115574)
(-0.000116159 -0.000415256 0.115654)
(-0.000161944 -0.000398914 0.115727)
(-0.000218215 -0.000390086 0.115869)
(-0.000290544 -0.000380283 0.116025)
(-0.000349837 -0.000351177 0.116265)
(-0.000454477 -0.000358186 0.116522)
(-0.000491564 -0.00024661 0.116851)
(-0.000486544 -0.000299723 0.117394)
(-0.000757265 1.33668e-05 0.118484)
(0.000347478 -9.05759e-05 0.100675)
(-0.00249233 -0.00218564 0.0350258)
(0.000745708 0.000597321 -0.00330055)
(-1.40384e-05 -0.000517966 0.115859)
(-6.28565e-05 -0.000507692 0.115877)
(-9.56605e-05 -0.000547082 0.115958)
(-0.000138093 -0.000510605 0.11601)
(-0.000207477 -0.00051327 0.116144)
(-0.00026007 -0.00047199 0.116284)
(-0.000356911 -0.000456892 0.116522)
(-0.000365643 -0.000368297 0.116749)
(-0.000483886 -0.000460597 0.117212)
(-0.000413882 -5.9381e-05 0.118625)
(-0.000515601 -0.000565463 0.119066)
(8.56874e-05 0.000550101 0.0910592)
(0.00269594 0.000613948 0.0251661)
(0.000489363 0.000186941 0.00365925)
(-7.91979e-06 -0.000677659 0.1162)
(-0.000106665 -0.000667269 0.116214)
(-0.000118883 -0.000655774 0.11635)
(-0.000128112 -0.000609906 0.116374)
(-0.000179545 -0.000585139 0.116526)
(-0.000233956 -0.000543496 0.116635)
(-0.000246128 -0.000494304 0.116853)
(-0.000458186 -0.000487288 0.117215)
(-0.000184578 -0.000189512 0.11878)
(-0.000570013 -0.000461244 0.118114)
(0.00038285 0.000520165 0.0855753)
(-0.00426294 -0.00274705 0.0396311)
(-0.00141609 -0.000503524 -0.000956834)
(-3.03949e-06 -0.000757448 0.116742)
(-4.0708e-05 -0.000735033 0.11675)
(-3.81388e-05 -0.000842784 0.116872)
(-6.76251e-05 -0.000747566 0.116842)
(-0.000141236 -0.000724257 0.116926)
(-0.0001696 -0.000653512 0.116979)
(-0.000299774 -0.000489574 0.117397)
(-5.89524e-05 -0.000418051 0.11863)
(-0.000457954 -0.000577456 0.118122)
(0.00035826 0.000354637 0.0850494)
(-0.000845638 -0.000624827 0.0349845)
(0.0049445 0.00594751 0.0159832)
(1.45066e-05 -0.000961114 0.117165)
(-0.000190687 -0.000960683 0.117196)
(-0.000131153 -0.000836104 0.117652)
(-1.02509e-05 -0.00073191 0.117526)
(-8.72039e-05 -0.000706602 0.117676)
(3.41492e-06 -0.00062275 0.118121)
(1.18689e-05 -0.000759135 0.118489)
(-0.000567439 -0.000518938 0.119077)
(0.000521999 0.000380367 0.0855999)
(-0.000624424 -0.000844727 0.0349971)
(0.0045129 0.00451328 0.0158984)
(-1.00609e-07 -0.000869817 0.118221)
(9.0215e-05 -0.000882578 0.118821)
(0.000206601 -0.00107963 0.118841)
(6.29473e-05 -0.000932018 0.1191)
(-2.79208e-05 -0.000816684 0.119511)
(-0.000186851 -0.000865885 0.119112)
(-9.20126e-05 0.000347327 0.10068)
(0.000549764 8.40291e-05 0.0910662)
(-0.00274527 -0.0042609 0.0396331)
(0.00594827 0.00494399 0.0159894)
(1.83788e-05 -0.00103375 0.119911)
(-0.000337365 -0.0011287 0.119606)
(-5.20172e-05 0.000127708 0.101441)
(0.000277868 0.000281852 0.102755)
(3.38591e-05 0.000156351 0.104123)
(0.000745378 7.51725e-05 0.0904164)
(-0.0021868 -0.00249203 0.0350231)
(0.000612039 0.00269658 0.0251606)
(-0.000501854 -0.00141613 -0.000957411)
(-0.000159941 -0.000165391 0.105326)
(0.000811555 -3.58444e-05 0.0890456)
(-0.00173895 -0.00168294 0.0336126)
(0.00140514 0.00198072 0.0265928)
(-0.0018342 0.00279128 0.0297798)
(0.00106887 0.00322965 0.0273173)
(0.000597409 0.000745785 -0.00330051)
(0.000186698 0.000489611 0.0036587)
(0.000603344 0.00354349 0.0247064)
(0.00211581 0.00339979 0.0252972)
(0.00624805 0.0065175 0.0175667)
(-0.000160509 5.81706e-05 0.00416128)
(-0.000659199 0.000256106 0.00586704)
(-5.50698e-06 -5.43707e-06 0.114949)
(-1.49759e-05 -4.9061e-06 0.114969)
(-2.69815e-05 -5.11372e-06 0.115016)
(-4.15552e-05 -5.05237e-06 0.115097)
(-5.91265e-05 -4.99684e-06 0.11522)
(-8.15028e-05 -4.8492e-06 0.115393)
(-0.000108666 -4.3167e-06 0.115617)
(-0.000136312 -4.03898e-06 0.115931)
(-0.000175879 -1.04102e-06 0.116283)
(-0.000193893 -2.56947e-06 0.116809)
(-0.000250103 6.33503e-06 0.117241)
(-0.000180671 -1.21577e-05 0.118212)
(-0.000323157 2.46032e-05 0.119858)
(0.000152568 -0.000292564 0.105277)
(0.00262184 0.000530068 0.0274083)
(-4.96052e-06 -1.4939e-05 0.114969)
(-1.52252e-05 -1.52093e-05 0.114991)
(-2.68853e-05 -1.58196e-05 0.115041)
(-4.17333e-05 -1.57292e-05 0.115123)
(-5.90137e-05 -1.71939e-05 0.115246)
(-8.06737e-05 -1.53825e-05 0.115418)
(-0.000107888 -2.0882e-05 0.115641)
(-0.0001334 -1.11771e-05 0.115949)
(-0.000174619 -3.5245e-05 0.116299)
(-0.000186683 9.48616e-06 0.116815)
(-0.000259554 -8.88636e-05 0.117298)
(-0.000174045 0.000142696 0.118797)
(-0.000548416 -0.000265001 0.119652)
(0.000316542 0.000703916 0.0891185)
(0.00242232 0.00190678 0.0279854)
(-5.22272e-06 -2.6958e-05 0.115017)
(-1.58579e-05 -2.68745e-05 0.115042)
(-2.75116e-05 -2.75305e-05 0.115097)
(-4.29295e-05 -2.75489e-05 0.115181)
(-5.87949e-05 -2.83886e-05 0.11531)
(-8.52225e-05 -2.73216e-05 0.115483)
(-0.000104501 -3.03198e-05 0.115721)
(-0.000150808 -2.21385e-05 0.116027)
(-0.000155277 -3.72677e-05 0.116425)
(-0.000247139 3.74954e-06 0.116922)
(-0.000118781 -7.2575e-05 0.117709)
(-0.00042707 0.000194903 0.118703)
(0.000491709 -7.70019e-05 0.101578)
(-0.00205062 -0.00244958 0.0376476)
(0.00577763 0.00565396 0.0195109)
(-5.19533e-06 -4.16219e-05 0.115098)
(-1.57895e-05 -4.17957e-05 0.115123)
(-2.75603e-05 -4.31103e-05 0.115181)
(-4.26002e-05 -4.27729e-05 0.115265)
(-5.88052e-05 -4.30423e-05 0.115395)
(-8.26285e-05 -4.09603e-05 0.115562)
(-0.000102745 -4.02019e-05 0.115794)
(-0.00014045 -3.2875e-05 0.11608)
(-0.000148582 -2.95522e-05 0.116447)
(-0.000221309 -1.76059e-05 0.116891)
(-9.83992e-05 1.53068e-05 0.117589)
(-0.000403806 -1.86898e-05 0.118946)
(0.000553701 0.000212963 0.102838)
(0.0015285 0.0011165 0.0292927)
(-5.29775e-05 -0.000100691 0.00459001)
(-5.26715e-06 -5.92317e-05 0.11522)
(-1.73428e-05 -5.91342e-05 0.115246)
(-2.84816e-05 -5.90849e-05 0.115311)
(-4.28682e-05 -5.91126e-05 0.115395)
(-5.69862e-05 -5.73319e-05 0.115532)
(-8.24052e-05 -5.92652e-05 0.115698)
(-9.64595e-05 -5.22856e-05 0.115939)
(-0.000140238 -5.84546e-05 0.116214)
(-0.00014001 -3.63896e-05 0.116595)
(-0.000201284 -5.33028e-05 0.116969)
(-0.000121315 -1.13292e-05 0.117711)
(-0.000299102 -6.29418e-05 0.119395)
(0.00033863 -9.07547e-06 0.104158)
(0.00204303 -0.00183395 0.0325162)
(0.000107531 -0.000634892 0.00617013)
(-5.27655e-06 -8.17545e-05 0.115394)
(-1.56267e-05 -8.08592e-05 0.115418)
(-2.75168e-05 -8.57502e-05 0.115483)
(-4.08431e-05 -8.31454e-05 0.115562)
(-5.89582e-05 -8.31003e-05 0.115698)
(-7.76057e-05 -7.83471e-05 0.115858)
(-0.000101998 -7.61139e-05 0.116094)
(-0.000124648 -6.27842e-05 0.116352)
(-0.000143497 -6.27203e-05 0.116693)
(-0.000195035 -4.59541e-05 0.117029)
(-0.000110557 5.57004e-05 0.118154)
(-0.000474356 -0.000218707 0.119116)
(0.000230791 0.000624148 0.0905714)
(0.00233541 0.000562852 0.0298316)
(-4.97548e-06 -0.000108884 0.115618)
(-2.13043e-05 -0.000108247 0.115641)
(-3.07467e-05 -0.000105183 0.115722)
(-4.01995e-05 -0.00010347 0.115794)
(-5.21683e-05 -9.73877e-05 0.115939)
(-7.54137e-05 -0.000103068 0.116094)
(-8.09416e-05 -8.21139e-05 0.116334)
(-0.000126963 -0.000112343 0.116584)
(-0.000122406 -2.07213e-05 0.116901)
(-8.49754e-05 -0.000144455 0.117442)
(-0.000336196 0.000179649 0.118509)
(0.000596103 -8.4911e-05 0.100728)
(-0.00318354 -0.00264432 0.0391422)
(2.20347e-05 -4.05678e-05 -0.00167131)
(-5.02186e-06 -0.00013676 0.115932)
(-1.18827e-05 -0.000133714 0.115949)
(-2.26987e-05 -0.000151783 0.116028)
(-3.30031e-05 -0.000141346 0.11608)
(-5.84976e-05 -0.00014155 0.116214)
(-6.22816e-05 -0.00012607 0.116352)
(-0.000111281 -0.000128875 0.116584)
(-6.29921e-05 -6.47416e-05 0.116801)
(-0.000176397 -0.00020433 0.117243)
(-2.8136e-05 0.000196744 0.118693)
(-0.000253449 -0.000546803 0.118986)
(0.00012042 0.000602264 0.09129)
(0.00197624 -2.66601e-05 0.0279983)
(0.000550028 0.000138105 0.00359074)
(-2.31657e-06 -0.000175872 0.116284)
(-3.61914e-05 -0.000175519 0.116299)
(-3.82785e-05 -0.000156436 0.116425)
(-2.98918e-05 -0.000149889 0.116448)
(-3.68172e-05 -0.000141468 0.116596)
(-6.26257e-05 -0.000145201 0.116695)
(-1.98932e-05 -0.000124474 0.116903)
(-0.00020242 -0.000179547 0.117246)
(0.000137321 0.00013401 0.118827)
(-0.000387491 -0.000382041 0.118104)
(0.000586125 0.000590923 0.0856763)
(-0.00516428 -0.00349743 0.0438082)
(-0.00215229 -0.00108792 0.000745963)
(-4.1766e-06 -0.000194249 0.116809)
(7.62345e-06 -0.000187243 0.116815)
(2.78336e-06 -0.000248645 0.116922)
(-1.80219e-05 -0.000222584 0.116892)
(-5.37434e-05 -0.000202949 0.11697)
(-4.60723e-05 -0.000196773 0.117031)
(-0.000144828 -8.70604e-05 0.117445)
(0.000197332 -3.13844e-05 0.118698)
(-0.000378777 -0.00039284 0.118109)
(0.000469792 0.000467636 0.0851693)
(-0.00131213 -0.00118562 0.0388068)
(0.0044458 0.00543226 0.0176682)
(4.41887e-06 -0.000249034 0.117242)
(-9.09441e-05 -0.000261759 0.117298)
(-7.4298e-05 -0.000120686 0.117709)
(1.48148e-05 -0.000100008 0.11759)
(-1.22114e-05 -0.000122923 0.117713)
(5.53962e-05 -0.000112098 0.118157)
(0.00017903 -0.000337802 0.118515)
(-0.000548128 -0.00025542 0.118996)
(0.000592514 0.000584702 0.0856984)
(-0.00118482 -0.00131051 0.0388207)
(0.00406952 0.00407291 0.0176843)
(-1.40347e-05 -0.000181008 0.118211)
(0.000137879 -0.000175235 0.118798)
(0.000194532 -0.000428657 0.118702)
(-1.88137e-05 -0.000404629 0.118946)
(-6.33208e-05 -0.00029986 0.119396)
(-0.000218876 -0.000475215 0.119118)
(-8.58366e-05 0.000595784 0.100733)
(0.000602278 0.000120225 0.0912964)
(-0.00349441 -0.00516155 0.0438105)
(0.00543228 0.00444425 0.0176744)
(2.16522e-05 -0.000324643 0.119856)
(-0.000268353 -0.000551167 0.119649)
(-7.85357e-05 0.000491083 0.101578)
(0.000213162 0.000553285 0.102838)
(-1.00015e-05 0.00033855 0.104159)
(0.000624633 0.000230795 0.0905729)
(-0.00264445 -0.00318317 0.039141)
(-2.72151e-05 0.00197608 0.0279972)
(-0.00108812 -0.00215177 0.000746444)
(-0.000297883 0.000152073 0.10527)
(0.000700857 0.0003148 0.0891072)
(-0.00244843 -0.00205142 0.0376462)
(0.00111805 0.00152773 0.0292918)
(-0.00183382 0.00204305 0.0325154)
(0.000562817 0.00233522 0.0298311)
(-4.07495e-05 2.2107e-05 -0.00167125)
(0.000137937 0.000550164 0.00359056)
(0.000527905 0.00262149 0.0274014)
(0.00190731 0.00242122 0.0279766)
(0.00565367 0.00577817 0.0195106)
(-0.000100664 -5.30727e-05 0.00459003)
(-0.000634938 0.000107524 0.00617004)
(1.12305e-05 1.13856e-05 0.114941)
(3.60503e-05 1.1538e-05 0.114961)
(6.11682e-05 1.13392e-05 0.115008)
(8.8116e-05 1.07954e-05 0.115089)
(0.000120587 1.05105e-05 0.115211)
(0.000153816 9.1216e-06 0.115383)
(0.000201463 8.54535e-06 0.115606)
(0.000243894 4.69648e-06 0.115916)
(0.000314701 5.03646e-06 0.116267)
(0.000356186 -4.79877e-06 0.116783)
(0.000428591 2.09625e-06 0.117223)
(0.000430211 -3.42117e-05 0.118198)
(0.000329438 4.05587e-05 0.119817)
(0.000132285 -0.000303661 0.105264)
(0.0024579 0.000514287 0.0281412)
(1.14634e-05 3.61294e-05 0.114961)
(3.57554e-05 3.57674e-05 0.114983)
(6.07755e-05 3.60446e-05 0.115033)
(8.73477e-05 3.5567e-05 0.115114)
(0.000119035 3.59035e-05 0.115237)
(0.000152026 3.5896e-05 0.115407)
(0.000197223 3.55866e-05 0.11563)
(0.000240277 3.82559e-05 0.115933)
(0.000305008 3.32374e-05 0.116283)
(0.000353357 4.96776e-05 0.11679)
(0.000399665 1.1376e-05 0.117293)
(0.000461619 0.000113025 0.118792)
(0.000101496 -9.02784e-05 0.119626)
(0.000354342 0.000440178 0.0891854)
(0.00226628 0.001858 0.0286134)
(1.11951e-05 6.12654e-05 0.115009)
(3.5966e-05 6.08083e-05 0.115033)
(6.09634e-05 6.09945e-05 0.115089)
(8.79805e-05 5.90402e-05 0.115172)
(0.000120913 5.90967e-05 0.115301)
(0.000153498 5.57951e-05 0.115472)
(0.000203826 5.4762e-05 0.11571)
(0.000241566 4.94219e-05 0.11601)
(0.000326178 4.07543e-05 0.116411)
(0.00033579 4.0148e-05 0.116888)
(0.000494445 -1.90492e-05 0.11772)
(0.000254506 0.000100448 0.118616)
(0.000674868 -1.39601e-05 0.101696)
(-0.00197327 -0.00267695 0.0384158)
(0.00563905 0.00561953 0.0199488)
(1.06512e-05 8.81111e-05 0.115089)
(3.54882e-05 8.73059e-05 0.115115)
(5.90101e-05 8.7867e-05 0.115173)
(8.54502e-05 8.53207e-05 0.115256)
(0.000115782 8.61442e-05 0.115385)
(0.000147692 8.21623e-05 0.115551)
(0.000190835 8.17728e-05 0.115782)
(0.000226242 7.19469e-05 0.116063)
(0.000295928 6.76966e-05 0.116433)
(0.000295644 3.19068e-05 0.116862)
(0.000432525 3.70731e-05 0.117603)
(0.000156594 -0.000101083 0.118868)
(0.000582654 0.000108498 0.102926)
(0.0014972 0.000958837 0.0299417)
(-9.84465e-05 -9.53311e-05 0.00467041)
(1.02397e-05 0.000120571 0.115211)
(3.5718e-05 0.000118959 0.115238)
(5.89794e-05 0.000120702 0.115302)
(8.62538e-05 0.000115537 0.115385)
(0.000117759 0.000117482 0.115522)
(0.000149117 0.000108326 0.115687)
(0.00019357 0.000112996 0.115928)
(0.000227395 9.03693e-05 0.116197)
(0.000285925 0.000101705 0.116583)
(0.000306174 3.74791e-05 0.11694)
(0.000363628 4.26412e-05 0.117727)
(0.000229779 -6.96643e-05 0.119316)
(0.000269249 -6.8245e-05 0.10422)
(0.00194232 -0.00188878 0.0331178)
(6.83195e-05 -0.000631226 0.00625063)
(8.7179e-06 0.000153664 0.115383)
(3.56246e-05 0.000151889 0.115407)
(5.55997e-05 0.000153091 0.115473)
(8.22294e-05 0.000147273 0.115551)
(0.000108572 0.000148561 0.115687)
(0.000143201 0.000142601 0.115846)
(0.000172833 0.000137669 0.116082)
(0.000214874 0.000132844 0.116339)
(0.000242782 0.000103562 0.116682)
(0.000237976 7.70705e-05 0.117017)
(0.000325822 6.10157e-05 0.118163)
(-5.01847e-05 -0.000186363 0.119077)
(0.000149164 0.000303179 0.0905843)
(0.00223012 0.00044088 0.0303656)
(7.91297e-06 0.000201314 0.115607)
(3.51501e-05 0.000196961 0.11563)
(5.43615e-05 0.000203283 0.115711)
(8.17323e-05 0.000190217 0.115782)
(0.000113089 0.000192782 0.115928)
(0.000138228 0.000171918 0.116082)
(0.000183799 0.000182777 0.116324)
(0.000193229 0.000131524 0.116572)
(0.00023124 0.000194855 0.116896)
(0.000264154 1.05968e-05 0.117432)
(5.07007e-05 0.000227802 0.118495)
(0.000625684 -6.42494e-06 0.100727)
(-0.00311489 -0.00279672 0.0398331)
(-0.00012543 -0.000110137 -0.00146011)
(3.77076e-06 0.000243541 0.115916)
(3.75935e-05 0.000240049 0.115933)
(4.8872e-05 0.000240796 0.11601)
(7.17751e-05 0.000225509 0.116063)
(9.03207e-05 0.000226341 0.116198)
(0.000133217 0.000213728 0.116339)
(0.000132432 0.000191746 0.116572)
(0.000227378 0.000225997 0.1168)
(0.000122543 4.54103e-05 0.117233)
(0.000239908 0.000341308 0.118723)
(2.95642e-05 -0.000462258 0.118907)
(8.92814e-06 0.00042893 0.0913184)
(0.00194548 -0.000139588 0.0285305)
(0.000583344 0.00015825 0.00357268)
(3.82069e-06 0.000314579 0.116267)
(3.23882e-05 0.000304392 0.116284)
(3.98458e-05 0.000325208 0.116412)
(6.73691e-05 0.000294822 0.116434)
(0.000101378 0.000284712 0.116585)
(0.000103696 0.000241414 0.116683)
(0.000195638 0.000229654 0.116898)
(4.68994e-05 0.00012064 0.117235)
(0.00034443 0.000342197 0.118863)
(-0.00020759 -0.000282669 0.118001)
(0.000579351 0.000484963 0.0857369)
(-0.00519011 -0.00366559 0.0444298)
(-0.00228174 -0.00120128 0.000987748)
(-6.43623e-06 0.000355823 0.116783)
(4.81759e-05 0.000352986 0.11679)
(3.91073e-05 0.000334448 0.116889)
(3.14976e-05 0.000294579 0.116863)
(3.71691e-05 0.000304901 0.116942)
(7.70593e-05 0.000236675 0.117019)
(1.09719e-05 0.000262681 0.117435)
(0.000342129 0.00023781 0.118728)
(-0.000280591 -0.000210738 0.118005)
(0.000404403 0.000403444 0.0852456)
(-0.00138575 -0.00132131 0.0394051)
(0.00436274 0.0053725 0.018067)
(1.50539e-07 0.000428804 0.117223)
(9.55997e-06 0.000399102 0.117293)
(-2.06487e-05 0.000491633 0.117721)
(3.6819e-05 0.00043117 0.117603)
(4.20773e-05 0.000362245 0.117729)
(6.09564e-05 0.00032455 0.118165)
(0.000227837 4.95367e-05 0.118499)
(-0.00046242 2.76567e-05 0.118915)
(0.000485971 0.000578078 0.0857582)
(-0.00132143 -0.00138429 0.03942)
(0.00400164 0.00400532 0.0180869)
(-3.60666e-05 0.000429401 0.118197)
(0.000108518 0.000460526 0.118793)
(9.86303e-05 0.00025253 0.118616)
(-0.000100061 0.000155796 0.118868)
(-6.98894e-05 0.000228892 0.119318)
(-0.000186153 -5.10196e-05 0.119079)
(-6.76805e-06 0.000625265 0.100732)
(0.000429196 8.75055e-06 0.0913242)
(-0.00366235 -0.00518856 0.044433)
(0.00537241 0.00436114 0.0180735)
(3.75713e-05 0.000327538 0.119815)
(-9.32061e-05 9.52581e-05 0.119624)
(-1.55558e-05 0.00067409 0.101696)
(0.000109159 0.000582014 0.102926)
(-6.88555e-05 0.000269138 0.104221)
(0.00030364 0.000149175 0.0905858)
(-0.00279662 -0.00311464 0.0398325)
(-0.000139808 0.00194539 0.0285302)
(-0.00120134 -0.00228131 0.000988451)
(-0.000312492 0.000130651 0.105258)
(0.000436933 0.000350683 0.0891747)
(-0.00267623 -0.00197353 0.0384141)
(0.000960122 0.00149634 0.0299409)
(-0.00188895 0.00194244 0.0331171)
(0.000440818 0.00223002 0.0303652)
(-0.000110367 -0.000125409 -0.00146)
(0.000158025 0.000583515 0.0035726)
(0.000513892 0.00245696 0.028133)
(0.00185492 0.00226312 0.0286052)
(0.00561821 0.00563885 0.0199484)
(-9.53748e-05 -9.85667e-05 0.00467038)
(-0.000631258 6.82957e-05 0.0062506)
(2.74461e-05 2.76826e-05 0.114883)
(8.63061e-05 2.76875e-05 0.114902)
(0.000147656 2.74713e-05 0.114947)
(0.000215477 2.63972e-05 0.115024)
(0.00029692 2.57988e-05 0.115141)
(0.000384697 2.28302e-05 0.115306)
(0.000505985 2.12872e-05 0.115521)
(0.000619501 1.36218e-05 0.115821)
(0.000805433 1.20976e-05 0.116166)
(0.000914545 -5.27277e-06 0.116691)
(0.0011472 4.52757e-06 0.117143)
(0.00109184 -4.22582e-05 0.118233)
(0.0011269 7.79414e-05 0.1199)
(0.000306212 -0.000259874 0.105677)
(0.00240976 0.000532628 0.0283054)
(2.75879e-05 8.64223e-05 0.114902)
(8.59084e-05 8.59144e-05 0.114923)
(0.000146763 8.70588e-05 0.11497)
(0.000213944 8.59791e-05 0.115048)
(0.000293561 8.81035e-05 0.115166)
(0.000380444 8.62748e-05 0.115329)
(0.000497107 9.20239e-05 0.115544)
(0.000610402 8.76209e-05 0.115839)
(0.000786365 0.000106668 0.116185)
(0.000907543 8.93611e-05 0.1167)
(0.00111115 0.000139803 0.117221)
(0.00116377 8.9041e-05 0.118854)
(0.000938334 0.000179393 0.119747)
(0.000564691 0.000312551 0.0896674)
(0.00221568 0.00188069 0.0287909)
(2.72928e-05 0.000147825 0.114947)
(8.6945e-05 0.000146816 0.114971)
(0.000147721 0.000147804 0.115024)
(0.000216533 0.000143999 0.115104)
(0.000297224 0.000145125 0.115228)
(0.000388647 0.000137761 0.115392)
(0.000507377 0.000139458 0.115624)
(0.000634337 0.000120964 0.115917)
(0.000807381 0.000122273 0.116326)
(0.000950217 7.65786e-05 0.116809)
(0.00115311 5.5325e-05 0.117738)
(0.00105864 2.60845e-06 0.118724)
(0.00110726 8.78983e-05 0.102096)
(-0.0018143 -0.00295987 0.0386823)
(0.00560429 0.00566876 0.0200949)
(2.62513e-05 0.000215534 0.115024)
(8.58876e-05 0.000213915 0.115049)
(0.000143952 0.000216482 0.115104)
(0.000211274 0.000211177 0.115184)
(0.000287326 0.000213321 0.115308)
(0.000374801 0.000203631 0.115468)
(0.000480322 0.000202976 0.115694)
(0.000593283 0.000176796 0.115969)
(0.000742164 0.000166806 0.116346)
(0.000843373 8.5179e-05 0.116778)
(0.00101429 6.58866e-05 0.117596)
(0.000844284 -0.000176853 0.118939)
(0.000847303 7.0942e-06 0.103186)
(0.00156796 0.000810701 0.03009)
(-0.000118027 -0.000107453 0.00468778)
(2.55253e-05 0.00029699 0.115141)
(8.78826e-05 0.000293523 0.115166)
(0.000144979 0.000297088 0.115228)
(0.000213369 0.000287129 0.115309)
(0.000289689 0.000289462 0.115441)
(0.000378305 0.00027429 0.1156)
(0.0004805 0.000277683 0.115838)
(0.000598056 0.000241816 0.116102)
(0.000715355 0.000244076 0.116501)
(0.000849956 0.000139524 0.116862)
(0.000894111 0.000109535 0.117747)
(0.00087869 -7.16448e-05 0.119398)
(0.000407562 -0.000143363 0.104532)
(0.00195229 -0.00191793 0.0332557)
(5.68787e-05 -0.000624781 0.00627026)
(2.24528e-05 0.000384648 0.115306)
(8.5981e-05 0.000380349 0.115329)
(0.000137559 0.00038835 0.115393)
(0.000203642 0.000374469 0.115468)
(0.000274488 0.000377861 0.1156)
(0.000363034 0.000362505 0.115757)
(0.000447816 0.000352773 0.115991)
(0.000559605 0.000333493 0.116249)
(0.000639376 0.000279343 0.116605)
(0.000710379 0.000217623 0.116957)
(0.00080585 7.61062e-05 0.118192)
(0.000462839 -0.000141724 0.11916)
(0.000222909 5.83465e-05 0.0907426)
(0.00221102 0.000426177 0.0304689)
(2.06892e-05 0.000505916 0.115521)
(9.156e-05 0.000496925 0.115544)
(0.000139075 0.000506965 0.115625)
(0.000202882 0.00047979 0.115695)
(0.000277715 0.000479837 0.115838)
(0.000353218 0.000446987 0.11599)
(0.000451503 0.000450534 0.116236)
(0.000524625 0.00038711 0.11649)
(0.000600662 0.000420784 0.116843)
(0.000649407 0.000204824 0.117401)
(0.000480119 0.000294442 0.118561)
(0.000804541 8.02917e-05 0.100802)
(-0.00294031 -0.00295259 0.0399425)
(-0.000169824 -9.28899e-05 -0.00145326)
(1.27534e-05 0.000619283 0.115822)
(8.6988e-05 0.000610242 0.115839)
(0.000120414 0.000633758 0.115917)
(0.000176565 0.000592679 0.115969)
(0.00024173 0.000597216 0.116102)
(0.000333727 0.000558678 0.116249)
(0.000387935 0.000523453 0.11649)
(0.000530351 0.000529108 0.116744)
(0.000458776 0.000339804 0.117203)
(0.000558755 0.000508576 0.118764)
(0.000370773 -0.000315658 0.119009)
(6.36662e-05 0.000376019 0.0914285)
(0.00197121 -0.000158772 0.0285773)
(0.000579886 0.000174734 0.00356655)
(1.09109e-05 0.000805265 0.116167)
(0.000105849 0.000785898 0.116185)
(0.000121443 0.000806687 0.116327)
(0.000166449 0.00074123 0.116347)
(0.000243786 0.000714356 0.116502)
(0.00027947 0.000638232 0.116606)
(0.000421449 0.000599399 0.116844)
(0.000340997 0.000457266 0.117204)
(0.000579114 0.000577249 0.118921)
(2.29707e-05 -0.000126425 0.118109)
(0.000662849 0.000467267 0.0858631)
(-0.00513371 -0.00374951 0.0445072)
(-0.00229961 -0.00121127 0.000989208)
(-6.92708e-06 0.000914233 0.116691)
(8.821e-05 0.000907257 0.116701)
(7.5558e-05 0.000949236 0.11681)
(8.46439e-05 0.000842513 0.116778)
(0.000139232 0.000848926 0.116863)
(0.000217588 0.000709422 0.116958)
(0.00020529 0.000648398 0.117404)
(0.000509314 0.000557541 0.118768)
(-0.000124753 2.11445e-05 0.118112)
(0.000442906 0.000442646 0.085331)
(-0.00138516 -0.001387 0.0394912)
(0.0043533 0.00537615 0.0181345)
(2.4265e-06 0.00114713 0.117144)
(0.000138327 0.00111003 0.117222)
(5.39246e-05 0.00115134 0.117739)
(6.54813e-05 0.00101316 0.117596)
(0.000109141 0.000892986 0.117748)
(7.62461e-05 0.000804891 0.118194)
(0.00029487 0.000479384 0.118566)
(-0.000315286 0.000369436 0.119016)
(0.000467947 0.000662057 0.0858833)
(-0.00138731 -0.00138371 0.0395061)
(0.00400107 0.0040048 0.0181565)
(-4.53843e-05 0.00109147 0.118232)
(8.62096e-05 0.00116291 0.118852)
(1.59949e-06 0.00105606 0.118726)
(-0.00017674 0.000843603 0.118939)
(-7.17744e-05 0.000877701 0.119399)
(-0.000141368 0.000462094 0.119162)
(8.02695e-05 0.000804113 0.100806)
(0.000376486 6.33963e-05 0.0914336)
(-0.00374605 -0.00513258 0.0445102)
(0.00537599 0.00435187 0.018141)
(7.437e-05 0.00112579 0.1199)
(0.000175853 0.000931668 0.119747)
(8.63519e-05 0.00110513 0.102095)
(8.15355e-06 0.000846571 0.103186)
(-0.000143822 0.000407391 0.104533)
(5.89893e-05 0.00022293 0.0907439)
(-0.00295236 -0.00294008 0.0399421)
(-0.000158875 0.00197107 0.0285771)
(-0.00121119 -0.00229937 0.00099006)
(-0.000270283 0.000304893 0.105676)
(0.000308662 0.000559682 0.0896596)
(-0.00295955 -0.00181357 0.0386803)
(0.000811529 0.00156712 0.0300892)
(-0.00191821 0.00195241 0.033255)
(0.000426042 0.00221081 0.0304685)
(-9.30531e-05 -0.000169723 -0.00145315)
(0.00017462 0.000580058 0.00356652)
(0.000536001 0.00241136 0.0283022)
(0.00187356 0.00220841 0.0287843)
(0.00566626 0.0056027 0.0200943)
(-0.000107514 -0.000118142 0.00468769)
(-0.000624828 5.68371e-05 0.00627017)
(4.25896e-05 4.28982e-05 0.114778)
(0.000133556 4.28178e-05 0.114794)
(0.000229212 4.26932e-05 0.114834)
(0.000335779 4.10998e-05 0.114903)
(0.000463775 4.02419e-05 0.11501)
(0.000604077 3.60116e-05 0.115161)
(0.00079873 3.39698e-05 0.11536)
(0.000985308 2.27512e-05 0.115644)
(0.00129996 1.99977e-05 0.115974)
(0.00148915 -4.44135e-06 0.116508)
(0.00195816 8.93783e-06 0.116967)
(0.00186833 -3.64741e-05 0.118244)
(0.00227445 0.000141115 0.119967)
(0.000658165 -4.54143e-05 0.106507)
(0.00238 0.000611511 0.0284727)
(4.26898e-05 0.000133705 0.114794)
(0.0001332 0.000133203 0.114812)
(0.000227913 0.000135216 0.114855)
(0.00033355 0.000133659 0.114925)
(0.000458915 0.000137739 0.115033)
(0.000598158 0.000134814 0.115183)
(0.000786004 0.000148249 0.115383)
(0.000971662 0.00013873 0.115662)
(0.00127271 0.000190824 0.115995)
(0.00147915 0.000143667 0.11652)
(0.00192781 0.000339422 0.117049)
(0.00200741 0.000137539 0.118896)
(0.00229277 0.00077572 0.119826)
(0.0010219 0.000416874 0.0907991)
(0.00217906 0.00197907 0.0290518)
(4.24879e-05 0.000229449 0.114834)
(0.000135072 0.000227981 0.114856)
(0.000229674 0.000229811 0.114904)
(0.000338318 0.000224597 0.114976)
(0.000464949 0.000227172 0.11509)
(0.000614646 0.000216782 0.115242)
(0.000802746 0.000222959 0.115461)
(0.00102828 0.000193084 0.115744)
(0.00130536 0.000212156 0.116157)
(0.00164184 0.000119248 0.11667)
(0.00196211 0.000175391 0.117737)
(0.00223842 -8.33452e-05 0.118934)
(0.00203869 0.000350397 0.103003)
(-0.00156031 -0.00335134 0.0391368)
(0.00561741 0.00582715 0.020342)
(4.0951e-05 0.000335897 0.114904)
(0.000133558 0.000333523 0.114926)
(0.000224538 0.000338324 0.114977)
(0.000330927 0.000330844 0.11505)
(0.000451111 0.000334704 0.115165)
(0.000593989 0.000320552 0.115314)
(0.00076235 0.00032117 0.115528)
(0.000961049 0.000280072 0.115793)
(0.00119916 0.000267582 0.116174)
(0.00144603 0.000136904 0.116616)
(0.00170572 9.01689e-05 0.117535)
(0.00178523 -0.000286774 0.119016)
(0.00148489 -0.000156834 0.103643)
(0.00179539 0.000535975 0.0303509)
(-0.000130735 -0.000125233 0.00474547)
(3.99641e-05 0.000463932 0.11501)
(0.000137482 0.000458911 0.115033)
(0.000226987 0.000464885 0.11509)
(0.000334699 0.000450949 0.115165)
(0.000454675 0.000454453 0.115287)
(0.000601117 0.000435688 0.115437)
(0.000762205 0.000440262 0.115663)
(0.000974538 0.000396655 0.11592)
(0.00116156 0.000395338 0.116328)
(0.00146484 0.000256471 0.116706)
(0.00153975 0.000201012 0.117718)
(0.00180727 -6.23073e-05 0.119505)
(0.000789954 -0.000202455 0.10515)
(0.00205478 -0.00198107 0.0335369)
(4.38697e-05 -0.000613462 0.00631969)
(3.56606e-05 0.000604133 0.115161)
(0.000134496 0.000598104 0.115183)
(0.000216572 0.00061445 0.115243)
(0.000320487 0.000593744 0.115314)
(0.000435852 0.000600764 0.115437)