/*--------------------------------*- C++ -*----------------------------------*\
| =========                 |                                                 |
| \\      /  F ield         | OpenFOAM: The Open Source CFD Toolbox           |
|  \\    /   O peration     | Version:  2.1.1                                 |
|   \\  /    A nd           | Web:      www.OpenFOAM.org                      |
|    \\/     M anipulation  |                                                 |
\*---------------------------------------------------------------------------*/
FoamFile
{
    version     2.0;
    format      ascii;
    class       surfaceScalarField;
    location    "0.005";
    object      phi;
}
// * * * * * * * * * * * * * * * * * * * * * * * * * * * * * * * * * * * * * //

dimensions      [0 3 -1 0 0 0 0];

internalField   nonuniform List<scalar> 
29937
(
-2.27624e-13
-2.27435e-13
1.17596e-09
-4.89551e-13
-2.23107e-13
1.17555e-09
-7.6689e-13
-2.32955e-13
1.17523e-09
-1.09625e-12
-2.17969e-13
1.17513e-09
-1.47706e-12
-2.32456e-13
1.17534e-09
-1.94798e-12
-1.86713e-13
1.1759e-09
-2.45085e-12
-2.34654e-13
1.17681e-09
-3.10161e-12
-8.93762e-14
1.17842e-09
-3.7933e-12
-2.9252e-13
1.18023e-09
-5.03599e-12
1.14953e-13
1.18281e-09
-6.16322e-12
-8.0523e-13
1.18334e-09
-6.78817e-12
8.80603e-13
1.19799e-09
-5.0612e-12
-1.2507e-13
1.22226e-09
6.85703e-11
2.29423e-12
9.80564e-10
6.8938e-11
-6.69993e-11
-6.70654e-11
-4.32938e-11
1.85249e-12
9.89012e-11
-9.60301e-12
1.5095e-11
1.51188e-11
-9.49988e-12
-2.23948e-13
-4.89401e-13
1.17558e-09
-4.77177e-13
-4.76814e-13
1.17538e-09
-7.53678e-13
-4.91237e-13
1.17517e-09
-1.07676e-12
-4.62864e-13
1.17514e-09
-1.44367e-12
-4.89888e-13
1.17541e-09
-1.88717e-12
-4.11634e-13
1.17598e-09
-2.35853e-12
-5.03112e-13
1.17693e-09
-2.98211e-12
-2.4572e-13
1.17847e-09
-3.68813e-12
-6.00447e-13
1.18024e-09
-4.97616e-12
2.55385e-13
1.18293e-09
-5.81034e-12
-1.5954e-12
1.18785e-09
-6.10139e-12
2.10505e-12
1.21433e-09
-4.55165e-12
-1.43549e-12
1.20271e-09
6.96613e-11
4.96233e-11
7.97479e-10
7.22826e-11
-6.58628e-11
-7.0683e-11
7.46735e-11
-4.69957e-11
-7.03294e-11
-4.50963e-11
-6.58099e-12
1.53142e-11
9.57055e-11
-1.07979e-11
1.56397e-11
1.60487e-11
-1.05719e-11
-2.34474e-13
-7.66973e-13
1.17525e-09
-4.92446e-13
-7.52991e-13
1.17525e-09
-7.79503e-13
-7.78092e-13
1.17527e-09
-1.10936e-12
-7.34199e-13
1.17528e-09
-1.51788e-12
-7.4773e-13
1.1757e-09
-1.97729e-12
-6.46254e-13
1.17633e-09
-2.58529e-12
-6.62482e-13
1.17755e-09
-3.19879e-12
-3.85078e-13
1.17913e-09
-4.2553e-12
-3.81365e-13
1.18173e-09
-5.22965e-12
4.48529e-13
1.18481e-09
-5.94831e-12
-4.62343e-13
1.19576e-09
-2.43567e-12
1.45633e-12
1.20402e-09
4.78704e-11
2.32831e-12
9.62839e-10
6.15395e-11
-4.67376e-11
-6.06436e-11
-5.80134e-11
1.61758e-11
8.25861e-12
1.31073e-10
-3.96441e-11
-2.19513e-11
6.71356e-11
-1.91274e-11
-8.87091e-12
1.03546e-11
1.25646e-11
-8.11225e-12
-1.11303e-11
1.10512e-11
1.60284e-11
-8.29816e-12
-2.18706e-13
-1.09598e-12
1.17514e-09
-4.63576e-13
-1.07573e-12
1.17517e-09
-7.3544e-13
-1.10681e-12
1.17534e-09
-1.04825e-12
-1.0461e-12
1.17546e-09
-1.42921e-12
-1.05474e-12
1.17594e-09
-1.83258e-12
-9.68139e-13
1.17652e-09
-2.34214e-12
-9.17928e-13
1.17775e-09
-2.80715e-12
-7.13176e-13
1.17914e-09
-3.64658e-12
-4.2917e-13
1.18128e-09
-4.40255e-12
-3.07005e-14
1.18318e-09
-5.23946e-12
1.03741e-13
1.19469e-09
-2.05347e-12
-1.86487e-13
1.21229e-09
6.44158e-11
2.65247e-12
9.67419e-10
6.67238e-11
-6.28605e-11
-6.51179e-11
-4.98145e-11
-5.34353e-12
1.80973e-11
1.14057e-12
1.00336e-10
2.16374e-12
-3.38414e-13
-1.36042e-11
2.43658e-12
-1.60969e-14
9.35838e-12
-2.32568e-13
-1.47633e-12
1.17534e-09
-4.90476e-13
-1.44209e-12
1.17542e-09
-7.50202e-13
-1.51425e-12
1.17571e-09
-1.05858e-12
-1.42543e-12
1.17594e-09
-1.44919e-12
-1.44403e-12
1.17664e-09
-1.86397e-12
-1.35436e-12
1.17729e-09
-2.39204e-12
-1.25418e-12
1.17869e-09
-2.89953e-12
-1.03756e-12
1.18e-09
-3.59292e-12
-7.14238e-13
1.18207e-09
-4.6115e-12
-4.72103e-13
1.18287e-09
-5.44489e-12
3.06581e-13
1.19749e-09
-3.07086e-12
-6.44932e-13
1.22249e-09
6.66091e-11
4.41401e-12
9.77982e-10
6.75379e-11
-6.56246e-11
-6.52389e-11
-5.67505e-11
1.779e-11
-5.55477e-12
1.0907e-10
2.05417e-12
1.44102e-13
-9.12335e-13
-1.32877e-11
1.23127e-12
1.38997e-12
1.14347e-11
-1.84878e-13
-1.94617e-12
1.1759e-09
-4.09929e-13
-1.88599e-12
1.17598e-09
-6.47742e-13
-1.97278e-12
1.17633e-09
-9.72162e-13
-1.82764e-12
1.17653e-09
-1.35972e-12
-1.85659e-12
1.17727e-09
-1.76578e-12
-1.76009e-12
1.17802e-09
-2.25239e-12
-1.60055e-12
1.17956e-09
-2.61622e-12
-1.51343e-12
1.18068e-09
-3.36034e-12
-1.06261e-12
1.18177e-09
-4.02252e-12
-1.51429e-12
1.18462e-09
-5.06421e-12
2.73494e-13
1.20777e-09
-3.63562e-12
-6.64001e-13
1.19621e-09
6.71223e-11
4.69132e-11
8.07401e-10
6.79989e-11
-6.4067e-11
-6.59907e-11
6.70278e-11
-4.46946e-11
-6.25872e-11
-4.97676e-11
-1.78649e-13
6.11843e-12
1.02064e-10
-9.85441e-12
1.3977e-11
1.44435e-11
-9.68037e-12
-2.29849e-13
-2.44825e-12
1.17682e-09
-5.00327e-13
-2.35588e-12
1.17693e-09
-6.63937e-13
-2.58089e-12
1.17755e-09
-9.24359e-13
-2.33789e-12
1.17777e-09
-1.26464e-12
-2.3828e-12
1.17869e-09
-1.61262e-12
-2.24376e-12
1.17953e-09
-2.08959e-12
-2.07906e-12
1.18127e-09
-2.67735e-12
-2.07942e-12
1.18196e-09
-2.94539e-12
-2.25909e-12
1.18415e-09
-4.66203e-12
-1.59414e-12
1.19591e-09
-1.24336e-12
-2.24594e-12
1.20538e-09
4.76795e-11
2.99127e-12
9.4426e-10
6.21025e-11
-4.69381e-11
-6.11938e-11
-6.0357e-11
1.39815e-11
6.09919e-12
1.34869e-10
1.11146e-11
-1.16099e-11
-1.29093e-11
2.61897e-12
1.04493e-12
9.74071e-12
-8.35092e-14
-3.09682e-12
1.17843e-09
-2.343e-13
-2.98548e-12
1.17847e-09
-3.75566e-13
-3.19689e-12
1.17912e-09
-7.14274e-13
-2.803e-12
1.17916e-09
-1.04666e-12
-2.88909e-12
1.18001e-09
-1.52645e-12
-2.60449e-12
1.18067e-09
-2.09192e-12
-2.66244e-12
1.18196e-09
-2.78326e-12
-2.77323e-12
1.1837e-09
-4.02917e-12
-2.81011e-12
1.19591e-09
-3.64769e-12
-1.92125e-12
1.22488e-09
-2.0826e-12
-8.90704e-13
1.1903e-09
6.42532e-11
4.6463e-11
8.21789e-10
6.43588e-11
-6.13552e-11
-6.18933e-11
6.82814e-11
-4.52498e-11
-6.38422e-11
-4.49319e-11
-2.99332e-12
7.18572e-12
9.64069e-11
-9.60562e-12
1.2064e-11
1.37209e-11
-7.59381e-12
-1.91834e-13
-6.56647e-13
-1.53216e-12
2.38064e-12
-2.80817e-13
-3.78565e-12
1.18023e-09
-5.92304e-13
-3.69161e-12
1.18024e-09
-3.78636e-13
-4.25476e-12
1.18173e-09
-4.33907e-13
-3.6452e-12
1.18129e-09
-7.2533e-13
-3.58771e-12
1.18211e-09
-1.08218e-12
-3.34944e-12
1.1818e-09
-2.27829e-12
-2.93142e-12
1.18421e-09
-2.84414e-12
-4.00655e-12
1.196e-09
-2.79906e-12
-2.78895e-12
1.22814e-09
-1.61348e-12
-1.85504e-12
1.18006e-09
4.46174e-11
4.93069e-11
7.6253e-10
6.79601e-11
-4.40827e-11
-6.5258e-11
6.7296e-11
-4.63948e-11
-6.44446e-11
-7.11158e-11
5.41239e-12
8.92181e-12
1.47862e-10
9.07556e-12
-1.10542e-11
-1.05269e-11
-1.18699e-12
1.24581e-12
1.24467e-11
1.38903e-13
-5.02668e-12
1.1828e-09
2.79552e-13
-4.98382e-12
1.18291e-09
4.58905e-13
-5.23461e-12
1.18481e-09
-2.82794e-14
-4.40455e-12
1.18317e-09
-4.78691e-13
-4.61053e-12
1.1829e-09
-1.53e-12
-4.01529e-12
1.18465e-09
-1.61788e-12
-4.6475e-12
1.19599e-09
-1.92826e-12
-3.63769e-12
1.22509e-09
-1.8593e-12
-1.61151e-12
1.18015e-09
5.04907e-11
5.05434e-11
7.68812e-10
6.83411e-11
-4.82589e-11
-6.67251e-11
6.84559e-11
-4.8309e-11
-6.68281e-11
-6.22233e-11
1.52316e-11
1.55075e-11
1.31283e-10
-3.46077e-11
-1.91763e-11
6.07855e-11
-1.83499e-11
-9.52798e-12
1.40792e-11
1.21754e-11
-1.04932e-11
-7.65103e-12
9.03872e-12
1.06136e-11
-6.88631e-12
-7.84975e-13
-6.14929e-12
1.18332e-09
-1.57479e-12
-5.82261e-12
1.18781e-09
-4.59253e-13
-5.95284e-12
1.19574e-09
1.01952e-13
-5.24252e-12
1.19467e-09
2.95631e-13
-5.44706e-12
1.1975e-09
2.54692e-13
-5.05986e-12
1.20783e-09
-2.26288e-12
-1.23894e-12
1.20552e-09
-9.0358e-13
-2.07783e-12
1.19071e-09
4.92977e-11
4.45919e-11
7.63059e-10
6.79521e-11
-4.4063e-11
-6.52528e-11
6.73246e-11
-4.63731e-11
-6.44791e-11
-6.22844e-11
1.5499e-11
1.52344e-11
1.31393e-10
-3.6327e-11
6.4624e-11
-1.89319e-11
-1.89393e-11
-8.49774e-12
9.65955e-12
1.13064e-11
-7.68902e-12
-8.51515e-12
9.6915e-12
1.13354e-11
-7.71682e-12
9.01916e-13
-6.77574e-12
1.19793e-09
2.12609e-12
-6.11355e-12
1.21424e-09
1.4528e-12
-2.43503e-12
1.20395e-09
-1.7431e-13
-2.05436e-12
1.21223e-09
-6.46083e-13
-3.07769e-12
1.2225e-09
-6.71987e-13
-3.63385e-12
1.19625e-09
2.98221e-12
4.76743e-11
9.44354e-10
6.20976e-11
-4.69316e-11
-6.1186e-11
4.64735e-11
6.42466e-11
8.2193e-10
6.82886e-11
-4.52621e-11
-6.38488e-11
6.43514e-11
-6.13493e-11
-6.18906e-11
-7.11305e-11
8.91963e-12
5.40301e-12
1.47874e-10
-3.4646e-11
-1.91651e-11
6.07964e-11
-1.83292e-11
-7.65668e-12
9.05163e-12
1.06167e-11
-6.89248e-12
-9.52729e-12
1.40718e-11
1.21718e-11
-1.04917e-11
-1.15051e-13
-5.04619e-12
1.22212e-09
-1.41931e-12
-4.56869e-12
1.20253e-09
2.3135e-12
4.78602e-11
9.62803e-10
6.15298e-11
-4.67251e-11
-6.06406e-11
2.66259e-12
6.44126e-11
9.67376e-10
6.67189e-11
-6.28529e-11
-6.51169e-11
4.42017e-12
6.66058e-11
9.77984e-10
6.7533e-11
-6.56218e-11
-6.5237e-11
4.69127e-11
6.71198e-11
8.07415e-10
6.70269e-11
-4.46952e-11
-6.25843e-11
6.79955e-11
-6.40631e-11
-6.59879e-11
-6.03533e-11
6.10049e-12
1.39787e-11
1.34862e-10
-4.49222e-11
-2.99418e-12
7.18181e-12
9.63959e-11
-9.60514e-12
1.20628e-11
1.37209e-11
-7.59363e-12
9.07499e-12
-1.05251e-11
-1.1055e-11
1.24652e-12
-1.18721e-12
1.24459e-11
2.30092e-12
6.85686e-11
9.80264e-10
6.88916e-11
-6.69858e-11
-6.70344e-11
4.96422e-11
6.96359e-11
7.97214e-10
7.22659e-11
-6.58264e-11
-7.06724e-11
7.4686e-11
-4.70085e-11
-7.03377e-11
-5.80036e-11
8.26866e-12
1.61725e-11
1.31065e-10
-4.98112e-11
-5.34656e-12
1.14286e-12
1.80961e-11
1.00332e-10
-5.67478e-11
-5.55273e-12
1.77865e-11
1.09067e-10
2.05289e-12
-4.97666e-11
-1.79269e-13
6.11839e-12
1.02061e-10
-9.85412e-12
1.39766e-11
1.44428e-11
-9.67989e-12
1.11141e-11
-1.29085e-11
-1.16095e-11
1.04494e-12
2.61881e-12
9.74016e-12
-1.91696e-13
-1.53226e-12
-6.56471e-13
2.38043e-12
-4.32804e-11
1.85565e-12
9.88729e-11
-9.59792e-12
1.51028e-11
1.51086e-11
-9.50107e-12
-4.50614e-11
-6.5846e-12
1.53223e-11
9.56487e-11
-1.07937e-11
1.56275e-11
1.60405e-11
-1.05637e-11
-3.96411e-11
-2.19555e-11
6.71335e-11
-1.91261e-11
-1.11302e-11
1.10521e-11
1.60291e-11
-8.2989e-12
-8.8708e-12
1.03549e-11
1.25645e-11
-8.11154e-12
2.16379e-12
-3.38395e-13
-1.36037e-11
-1.5938e-14
2.43635e-12
9.35793e-12
1.44175e-13
-1.32874e-11
-9.12181e-13
1.38991e-12
1.23119e-12
1.14343e-11
-4.61991e-14
-4.70471e-14
1.17607e-09
-1.05961e-13
-4.56693e-14
1.17566e-09
-1.68017e-13
-5.03348e-14
1.17535e-09
-2.39016e-13
-4.52491e-14
1.17525e-09
-3.23486e-13
-5.346e-14
1.17548e-09
-4.24785e-13
-3.62334e-14
1.17604e-09
-5.22875e-13
-6.53683e-14
1.17698e-09
-6.18649e-13
-3.31851e-15
1.17853e-09
-6.46137e-13
-1.16033e-13
1.18037e-09
-8.85498e-13
1.7461e-13
1.18287e-09
-1.17091e-12
-4.85419e-13
1.18411e-09
-2.17539e-12
5.03955e-13
1.19849e-09
-8.61275e-13
-1.06348e-12
1.22201e-09
6.68111e-11
1.47792e-12
9.7684e-10
6.71498e-11
-6.62356e-11
-6.63456e-11
-4.40638e-11
1.70425e-12
9.97593e-11
-9.9473e-12
1.45899e-11
1.46202e-11
-9.8498e-12
-4.52033e-14
-1.06867e-13
1.17569e-09
-1.01745e-13
-1.02322e-13
1.17549e-09
-1.64527e-13
-1.09048e-13
1.1753e-09
-2.34924e-13
-1.00278e-13
1.17527e-09
-3.15374e-13
-1.15436e-13
1.17556e-09
-4.07147e-13
-8.7707e-14
1.17612e-09
-4.93288e-13
-1.44698e-13
1.17709e-09
-5.71759e-13
-4.65666e-14
1.17859e-09
-6.33539e-13
-2.63248e-13
1.18045e-09
-1.00024e-12
3.28606e-13
1.18315e-09
-1.45883e-12
-9.14666e-13
1.18874e-09
-2.87395e-12
1.90347e-12
1.21434e-09
-1.62311e-12
-2.43565e-12
1.20284e-09
6.73493e-11
4.83903e-11
7.93784e-10
7.05581e-11
-6.54344e-11
-7.00417e-11
7.25015e-11
-4.84599e-11
-7.13141e-11
-4.61171e-11
-6.25384e-12
1.45755e-11
9.65813e-11
-1.11324e-11
1.50716e-11
1.55635e-11
-1.09398e-11
-5.05207e-14
-1.68977e-13
1.17536e-09
-1.09489e-13
-1.64693e-13
1.17537e-09
-1.76398e-13
-1.75486e-13
1.17541e-09
-2.47518e-13
-1.65165e-13
1.17542e-09
-3.48075e-13
-1.73894e-13
1.17586e-09
-4.40111e-13
-1.44336e-13
1.17648e-09
-5.90028e-13
-1.71173e-13
1.17773e-09
-6.44117e-13
-9.25715e-14
1.17923e-09
-9.30701e-13
-1.58132e-13
1.18191e-09
-1.02175e-12
2.82855e-13
1.18494e-09
-2.13806e-12
-1.33741e-13
1.19609e-09
3.68464e-13
9.83567e-13
1.20243e-09
4.71343e-11
8.68826e-13
9.60273e-10
6.08765e-11
-4.76822e-11
-6.06982e-11
-5.9588e-11
1.48791e-11
6.57193e-12
1.33662e-10
-4.03631e-11
-2.05151e-11
6.7549e-11
-1.77018e-11
-9.09234e-12
1.00891e-11
1.20839e-11
-8.34462e-12
-1.13466e-11
1.05936e-11
1.54883e-11
-8.44037e-12
-4.47965e-14
-2.39695e-13
1.17526e-09
-1.00237e-13
-2.34747e-13
1.17529e-09
-1.65952e-13
-2.45761e-13
1.17548e-09
-2.35595e-13
-2.3397e-13
1.1756e-09
-3.32258e-13
-2.35879e-13
1.1761e-09
-4.1144e-13
-2.2457e-13
1.17668e-09
-5.40786e-13
-2.13541e-13
1.17792e-09
-5.4184e-13
-2.09917e-13
1.17926e-09
-7.60791e-13
-9.58166e-14
1.18144e-09
-7.12146e-13
-5.37185e-14
1.18347e-09
-1.86195e-12
3.43296e-13
1.19537e-09
9.68575e-13
-5.18321e-13
1.21096e-09
6.36345e-11
1.61901e-12
9.6602e-10
6.54848e-11
-6.27169e-11
-6.47829e-11
-5.05583e-11
-4.79448e-12
1.66706e-11
9.02217e-13
1.01414e-10
1.82072e-12
-3.25156e-13
-1.32824e-11
2.41388e-12
8.70347e-15
9.36426e-12
-5.25301e-14
-3.23982e-13
1.17548e-09
-1.15396e-13
-3.14775e-13
1.17556e-09
-1.75414e-13
-3.45729e-13
1.17587e-09
-2.38791e-13
-3.29421e-13
1.1761e-09
-3.37893e-13
-3.33612e-13
1.17684e-09
-4.27433e-13
-3.31978e-13
1.17749e-09
-5.64073e-13
-3.05288e-13
1.17892e-09
-6.1438e-13
-2.85909e-13
1.18013e-09
-7.15815e-13
-1.35229e-13
1.18221e-09
-8.57236e-13
-1.87279e-13
1.18314e-09
-1.82759e-12
5.77864e-13
1.19822e-09
-4.73615e-14
-1.44812e-12
1.22164e-09
6.49345e-11
2.75175e-12
9.75609e-10
6.6249e-11
-6.55082e-11
-6.44827e-11
-5.74436e-11
1.58467e-11
-5.62489e-12
1.10158e-10
1.99837e-12
-1.57949e-13
-9.08624e-13
-1.29716e-11
1.21259e-12
1.40104e-12
1.14245e-11
-3.42308e-14
-4.24568e-13
1.17604e-09
-8.61661e-14
-4.07151e-13
1.17613e-09
-1.44838e-13
-4.37942e-13
1.17649e-09
-2.26837e-13
-4.08693e-13
1.17669e-09
-3.36198e-13
-4.22126e-13
1.17747e-09
-4.40638e-13
-4.36168e-13
1.17823e-09
-5.83643e-13
-3.6736e-13
1.17976e-09
-5.89871e-13
-3.92764e-13
1.1808e-09
-8.41322e-13
-2.64632e-14
1.18191e-09
-9.33661e-13
-5.5838e-13
1.18509e-09
-2.42567e-12
1.25573e-12
1.20858e-09
-1.58268e-12
-2.00364e-12
1.19592e-09
6.49423e-11
4.61306e-11
8.0485e-10
6.71488e-11
-6.40545e-11
-6.59837e-11
6.59711e-11
-4.63932e-11
-6.4042e-11
-5.05483e-11
2.66481e-13
4.87613e-12
1.03047e-10
-1.01707e-11
1.34713e-11
1.40317e-11
-1.00325e-11
-6.13827e-14
-5.22232e-13
1.17699e-09
-1.42144e-13
-4.9397e-13
1.1771e-09
-1.70996e-13
-5.9e-13
1.17774e-09
-2.16826e-13
-5.38568e-13
1.17795e-09
-3.11284e-13
-5.58878e-13
1.17892e-09
-3.75202e-13
-5.769e-13
1.17973e-09
-4.70724e-13
-4.63936e-13
1.18146e-09
-6.15585e-13
-4.18053e-13
1.18213e-09
-4.26806e-13
-5.04448e-13
1.18444e-09
-1.87202e-12
1.85961e-13
1.19661e-09
1.67524e-12
-1.89311e-12
1.20499e-09
4.6585e-11
2.73795e-12
9.42371e-10
6.10942e-11
-4.77824e-11
-6.10744e-11
-6.19634e-11
1.18992e-11
4.77759e-12
1.38002e-10
9.80682e-12
-1.109e-11
-1.22407e-11
2.42266e-12
8.28874e-13
1.02723e-11
4.73772e-15
-6.16413e-13
1.17853e-09
-4.07441e-14
-5.74565e-13
1.17859e-09
-9.47012e-14
-6.45747e-13
1.17923e-09
-2.10366e-13
-5.47963e-13
1.17928e-09
-2.89837e-13
-6.11816e-13
1.18014e-09
-4.02439e-13
-5.78028e-13
1.18079e-09
-4.2786e-13
-6.10346e-13
1.18213e-09
-5.78301e-13
-5.80852e-13
1.18402e-09
-1.56418e-12
-2.93449e-13
1.19669e-09
-1.47155e-12
-5.12701e-13
1.22549e-09
-1.35511e-12
-4.10933e-13
1.18871e-09
6.26386e-11
4.53032e-11
8.19293e-10
6.36542e-11
-6.18138e-11
-6.23217e-11
6.75725e-11
-4.68075e-11
-6.43456e-11
-4.59387e-11
-2.29724e-12
5.82054e-12
9.80895e-11
-9.95909e-12
1.15406e-11
1.33575e-11
-7.97467e-12
-2.3587e-13
-5.91987e-13
-1.52518e-12
2.35303e-12
-1.06232e-13
-6.41794e-13
1.18038e-09
-2.56577e-13
-6.36819e-13
1.18045e-09
-1.66768e-13
-9.30794e-13
1.18193e-09
-1.22852e-13
-7.58568e-13
1.18146e-09
-1.71744e-13
-7.13649e-13
1.18226e-09
-4.55382e-14
-8.45397e-13
1.18194e-09
-5.09786e-13
-4.41083e-13
1.18451e-09
-2.93641e-13
-1.55978e-12
1.19676e-09
-7.57953e-13
-6.75943e-13
1.22899e-09
7.38151e-13
-1.07438e-13
1.17816e-09
4.3162e-11
4.83359e-11
7.61026e-10
6.71053e-11
-4.51624e-11
-6.47931e-11
6.59101e-11
-4.77589e-11
-6.49671e-11
-7.28231e-11
3.29907e-12
7.0996e-12
1.5089e-10
7.92022e-12
-1.05747e-11
-9.91749e-12
-1.39403e-12
1.04282e-12
1.29232e-11
1.95104e-13
-8.7986e-13
1.18286e-09
3.44635e-13
-1.00777e-12
1.18314e-09
2.92708e-13
-1.0304e-12
1.18496e-09
-4.89698e-14
-7.16783e-13
1.18347e-09
-1.86366e-13
-8.61249e-13
1.18318e-09
-5.72371e-13
-9.32479e-13
1.18513e-09
1.41637e-13
-1.86535e-12
1.1967e-09
-6.04067e-13
-1.45774e-12
1.22574e-09
-1.05733e-13
7.21993e-13
1.17825e-09
4.96794e-11
4.97305e-11
7.67672e-10
6.73604e-11
-4.95664e-11
-6.70129e-11
6.74736e-11
-4.96181e-11
-6.71181e-11
-6.38868e-11
1.38946e-11
1.39536e-11
1.34054e-10
-3.55911e-11
-1.78332e-11
6.12766e-11
-1.72091e-11
-9.7651e-12
1.3679e-11
1.20115e-11
-1.08117e-11
-7.92146e-12
8.78323e-12
1.04488e-11
-7.06751e-12
-4.63325e-13
-1.16487e-12
1.1841e-09
-8.92498e-13
-1.47159e-12
1.1887e-09
-1.28732e-13
-2.14952e-12
1.19609e-09
3.45691e-13
-1.86942e-12
1.19535e-09
5.71006e-13
-1.83249e-12
1.19825e-09
1.24176e-12
-2.42618e-12
1.20865e-09
-1.90858e-12
1.68074e-12
1.20512e-09
-4.13911e-13
-1.35091e-12
1.18911e-09
4.83209e-11
4.31393e-11
7.6154e-10
6.70992e-11
-4.51418e-11
-6.47882e-11
6.5942e-11
-4.77416e-11
-6.50027e-11
-6.39541e-11
1.39466e-11
1.38887e-11
1.3417e-10
-3.7311e-11
6.53596e-11
-1.79123e-11
-1.79203e-11
-8.77012e-12
9.38845e-12
1.11578e-11
-7.8905e-12
-8.78834e-12
9.42017e-12
1.11852e-11
-7.91874e-12
5.50687e-13
-2.17598e-12
1.19842e-09
1.9281e-12
-2.89382e-12
1.21429e-09
1.00108e-12
3.54511e-13
1.20238e-09
-5.0967e-13
9.64206e-13
1.21091e-09
-1.44644e-12
-5.17623e-14
1.22166e-09
-2.00927e-12
-1.58065e-12
1.19597e-09
2.73133e-12
4.65794e-11
9.42469e-10
6.10887e-11
-4.77766e-11
-6.10663e-11
4.53176e-11
6.26313e-11
8.19429e-10
6.7579e-11
-4.68183e-11
-6.43521e-11
6.36502e-11
-6.18069e-11
-6.23178e-11
-7.28392e-11
7.10134e-12
3.29191e-12
1.50903e-10
-3.56223e-11
-1.78251e-11
6.12882e-11
-1.71912e-11
-7.92715e-12
8.79537e-12
1.04512e-11
-7.07417e-12
-9.76427e-12
1.36716e-11
1.20079e-11
-1.08101e-11
-1.0386e-12
-8.63085e-13
1.22188e-09
-2.41009e-12
-1.65359e-12
1.20267e-09
8.74616e-13
4.71251e-11
9.60248e-10
6.08679e-11
-4.76714e-11
-6.06959e-11
1.62152e-12
6.36285e-11
9.65978e-10
6.54812e-11
-6.27107e-11
-6.47818e-11
2.75194e-12
6.49321e-11
9.75611e-10
6.6245e-11
-6.55062e-11
-6.44808e-11
4.61317e-11
6.49393e-11
8.04868e-10
6.59697e-11
-4.63947e-11
-6.40414e-11
6.71463e-11
-6.40517e-11
-6.59812e-11
-6.19621e-11
4.77883e-12
1.18972e-11
1.37997e-10
-4.59373e-11
-2.29778e-12
5.81876e-12
9.80845e-11
-9.9588e-12
1.15394e-11
1.3357e-11
-7.97468e-12
7.91932e-12
-9.91547e-12
-1.05751e-11
1.04247e-12
-1.39378e-12
1.29225e-11
1.50438e-12
6.68087e-11
9.76556e-10
6.71012e-11
-6.6224e-11
-6.63265e-11
4.841e-11
6.73252e-11
7.9351e-10
7.05437e-11
-6.54061e-11
-7.00363e-11
7.25141e-11
-4.84716e-11
-7.13236e-11
-5.95797e-11
6.58093e-12
1.48776e-11
1.33656e-10
-5.05565e-11
-4.79824e-12
9.0372e-13
1.66687e-11
1.01411e-10
-5.74415e-11
-5.62322e-12
1.58439e-11
1.10155e-10
1.99762e-12
-5.05476e-11
2.6607e-13
4.87566e-12
1.03045e-10
-1.01703e-11
1.34708e-11
1.40312e-11
-1.00322e-11
9.80642e-12
-1.22399e-11
-1.10896e-11
8.28745e-13
2.42257e-12
1.02718e-11
-2.35873e-13
-1.5252e-12
-5.91864e-13
2.35294e-12
-4.40466e-11
1.71315e-12
9.97279e-11
-9.94244e-12
1.45976e-11
1.46092e-11
-9.8508e-12
-4.60832e-11
-6.25826e-12
1.4583e-11
9.65261e-11
-1.11283e-11
1.50606e-11
1.55566e-11
-1.09318e-11
-4.03601e-11
-2.05188e-11
6.75479e-11
-1.77024e-11
-1.13468e-11
1.05947e-11
1.54892e-11
-8.44114e-12
-9.09223e-12
1.00895e-11
1.20841e-11
-8.344e-12
1.82069e-12
-3.25229e-13
-1.32819e-11
8.80674e-15
2.41368e-12
9.36392e-12
-1.57898e-13
-1.29714e-11
-9.08485e-13
1.40097e-12
1.21262e-12
1.14242e-11
1.37091e-13
1.3572e-13
1.17581e-09
2.77609e-13
1.34183e-13
1.17539e-09
4.31649e-13
1.34688e-13
1.17506e-09
6.14966e-13
1.28232e-13
1.17495e-09
8.24297e-13
1.25557e-13
1.17515e-09
1.08498e-12
1.12696e-13
1.17568e-09
1.38183e-12
1.00159e-13
1.1766e-09
1.76266e-12
8.2365e-14
1.17807e-09
2.2268e-12
4.70799e-14
1.17986e-09
2.75784e-12
7.57586e-14
1.18227e-09
3.22328e-12
-1.77228e-13
1.18383e-09
2.62957e-12
2.15219e-13
1.19888e-09
2.12828e-12
-6.67918e-15
1.22252e-09
6.64069e-11
3.34847e-13
9.78496e-10
6.68146e-11
-6.64922e-11
-6.65934e-11
-4.46373e-11
1.66676e-12
1.00305e-10
-1.00479e-11
1.45209e-11
1.45549e-11
-9.95314e-12
1.35586e-13
2.75991e-13
1.17542e-09
2.74468e-13
2.7327e-13
1.17522e-09
4.24947e-13
2.75438e-13
1.17501e-09
6.02749e-13
2.60721e-13
1.17496e-09
8.05625e-13
2.56805e-13
1.17522e-09
1.05792e-12
2.30633e-13
1.17575e-09
1.34778e-12
2.05819e-13
1.1767e-09
1.7293e-12
1.65348e-13
1.17812e-09
2.19151e-12
6.93698e-14
1.17997e-09
2.64921e-12
1.1102e-13
1.18265e-09
3.11008e-12
-5.86823e-13
1.18869e-09
1.99049e-12
9.09839e-13
1.21477e-09
1.49647e-12
-2.6532e-13
1.20359e-09
6.70559e-11
4.80824e-11
7.95559e-10
7.03512e-11
-6.56783e-11
-7.02149e-11
7.17973e-11
-4.90688e-11
-7.22691e-11
-4.65475e-11
-6.16235e-12
1.44352e-11
9.70352e-11
-1.12165e-11
1.50181e-11
1.55408e-11
-1.10478e-11
1.35224e-13
4.2992e-13
1.17508e-09
2.756e-13
4.23853e-13
1.17508e-09
4.25655e-13
4.25955e-13
1.17511e-09
6.08307e-13
3.99575e-13
1.1751e-09
8.11547e-13
3.94105e-13
1.17552e-09
1.07405e-12
3.48985e-13
1.1761e-09
1.35486e-12
3.12413e-13
1.17734e-09
1.76699e-12
2.16334e-13
1.17877e-09
2.11123e-12
8.97854e-14
1.18155e-09
2.78345e-12
-1.01395e-13
1.18448e-09
2.40725e-12
-5.61356e-13
1.19644e-09
3.55347e-12
-3.38771e-13
1.20253e-09
4.72953e-11
5.96082e-13
9.62288e-10
6.14902e-11
-4.76942e-11
-6.04137e-11
-6.00341e-11
1.49755e-11
6.17004e-12
1.34266e-10
-4.07675e-11
-2.04003e-11
6.79184e-11
-1.73329e-11
-9.1538e-12
1.00542e-11
1.20601e-11
-8.4377e-12
-1.14311e-11
1.05386e-11
1.54617e-11
-8.50977e-12
1.29158e-13
6.13315e-13
1.17495e-09
2.61433e-13
6.01826e-13
1.17498e-09
3.99347e-13
6.09035e-13
1.17516e-09
5.68566e-13
5.69431e-13
1.17526e-09
7.52223e-13
5.73232e-13
1.17574e-09
9.87293e-13
5.07435e-13
1.17629e-09
1.21179e-12
4.91591e-13
1.17752e-09
1.5707e-12
3.23481e-13
1.17879e-09
1.81533e-12
2.78968e-13
1.18101e-09
2.36676e-12
-1.78664e-13
1.18299e-09
1.65998e-12
-9.60364e-14
1.19561e-09
2.65063e-12
-1.48536e-12
1.21111e-09
6.35439e-11
7.109e-13
9.67116e-10
6.55155e-11
-6.28884e-11
-6.47303e-11
-5.08902e-11
-4.62793e-12
1.64796e-11
6.86318e-13
1.01896e-10
1.74422e-12
-3.31029e-13
-1.32419e-11
2.42549e-12
3.69995e-15
9.39956e-12
1.26557e-13
8.22654e-13
1.17516e-09
2.57191e-13
8.0509e-13
1.17523e-09
3.93322e-13
8.12742e-13
1.17553e-09
5.71227e-13
7.54012e-13
1.17574e-09
7.59242e-13
7.62591e-13
1.17646e-09
9.90311e-13
6.80951e-13
1.17708e-09
1.22445e-12
6.5107e-13
1.17852e-09
1.51428e-12
4.96188e-13
1.17967e-09
1.82635e-12
3.91995e-13
1.18178e-09
2.13598e-12
2.6786e-14
1.18263e-09
1.5481e-12
8.30203e-14
1.19863e-09
1.63618e-12
-1.78899e-12
1.22186e-09
6.45075e-11
8.97502e-13
9.7695e-10
6.60783e-11
-6.58578e-11
-6.46194e-11
-5.78914e-11
1.55462e-11
-5.81228e-12
1.106e-10
2.06537e-12
-2.28675e-13
-9.15473e-13
-1.2952e-11
1.2155e-12
1.40714e-12
1.14736e-11
1.14774e-13
1.08352e-12
1.17568e-09
2.32365e-13
1.05699e-12
1.17576e-09
3.49166e-13
1.07511e-12
1.17611e-09
5.06143e-13
9.89013e-13
1.1763e-09
6.78124e-13
9.94309e-13
1.17706e-09
8.79877e-13
8.83599e-13
1.17782e-09
1.06206e-12
8.69134e-13
1.17936e-09
1.33678e-12
6.74764e-13
1.18034e-09
1.38586e-12
7.81158e-13
1.18148e-09
1.77949e-12
6.67581e-14
1.18465e-09
4.48422e-13
9.02466e-13
1.2091e-09
-3.723e-13
-1.23401e-12
1.19618e-09
6.45759e-11
4.58347e-11
8.05158e-10
6.70111e-11
-6.44379e-11
-6.6251e-11
6.54157e-11
-4.69702e-11
-6.49615e-11
-5.09728e-11
4.14379e-13
4.59434e-12
1.03488e-10
-1.02419e-11
1.34206e-11
1.40155e-11
-1.01424e-11
1.03585e-13
1.38039e-12
1.17661e-09
2.08161e-13
1.34643e-12
1.1767e-09
3.12972e-13
1.35537e-12
1.17735e-09
4.89901e-13
1.21269e-12
1.17755e-09
6.47007e-13
1.22793e-12
1.17853e-09
8.64371e-13
1.06561e-12
1.17933e-09
1.07601e-12
1.08095e-12
1.18104e-09
1.22252e-12
9.95998e-13
1.18167e-09
1.62285e-12
7.71132e-13
1.18406e-09
6.69118e-13
1.16553e-12
1.19647e-09
2.72391e-12
-1.47761e-12
1.20531e-09
4.67092e-11
2.09922e-12
9.42212e-10
6.15065e-11
-4.77747e-11
-6.08927e-11
-6.25365e-11
1.1957e-11
4.4242e-12
1.387e-10
9.68904e-12
-1.10785e-11
-1.21468e-11
2.37913e-12
7.81135e-13
1.0376e-11
8.6252e-14
1.76259e-12
1.17808e-09
1.69762e-13
1.72549e-12
1.17813e-09
2.18056e-13
1.76691e-12
1.17878e-09
3.23328e-13
1.56934e-12
1.17882e-09
4.93414e-13
1.51528e-12
1.17969e-09
6.69592e-13
1.3387e-12
1.18033e-09
9.91657e-13
1.22445e-12
1.18166e-09
1.17354e-12
1.17606e-12
1.18366e-09
8.15145e-13
1.3786e-12
1.19644e-09
8.76545e-13
6.84095e-13
1.22591e-09
-5.63741e-13
-6.39034e-13
1.18931e-09
6.24733e-11
4.50776e-11
8.19246e-10
6.35075e-11
-6.21529e-11
-6.26683e-11
6.73988e-11
-4.72133e-11
-6.48408e-11
-4.64276e-11
-2.16825e-12
5.58069e-12
9.86617e-11
-1.00056e-11
1.15038e-11
1.3401e-11
-8.07259e-12
-2.47675e-13
-5.85796e-13
-1.52048e-12
2.35395e-12
5.52325e-14
2.22764e-12
1.17987e-09
7.10436e-14
2.18871e-12
1.17997e-09
9.26741e-14
2.10804e-12
1.18157e-09
2.78852e-13
1.81157e-12
1.18103e-09
3.89124e-13
1.82447e-12
1.18184e-09
7.75087e-13
1.38375e-12
1.18151e-09
7.65187e-13
1.62248e-12
1.18412e-09
1.38269e-12
8.05473e-13
1.19652e-09
1.29127e-12
1.27654e-12
1.22918e-09
1.44949e-12
9.98176e-14
1.17858e-09
4.31739e-11
4.81823e-11
7.6114e-10
6.72505e-11
-4.52732e-11
-6.48712e-11
6.57406e-11
-4.81274e-11
-6.53783e-11
-7.3388e-11
3.25647e-12
6.83832e-12
1.51545e-10
7.82199e-12
-1.05347e-11
-9.85285e-12
-1.44728e-12
9.80442e-13
1.30324e-11
7.67461e-14
2.76185e-12
1.18227e-09
1.1322e-13
2.64401e-12
1.18264e-09
-9.6069e-14
2.77029e-12
1.1845e-09
-1.75071e-13
2.36074e-12
1.183e-09
2.55812e-14
2.13025e-12
1.18267e-09
6.09603e-14
1.7765e-12
1.1847e-09
1.15919e-12
6.65674e-13
1.19656e-09
6.9271e-13
8.71892e-13
1.22614e-09
1.05382e-13
1.439e-12
1.17867e-09
4.96151e-11
4.9665e-11
7.67955e-10
6.74365e-11
-4.98601e-11
-6.72315e-11
6.75478e-11
-4.99117e-11
-6.73381e-11
-6.42848e-11
1.37379e-11
1.3672e-11
1.34672e-10
-3.60161e-11
-1.7707e-11
6.16345e-11
-1.6981e-11
-9.83287e-12
1.36491e-11
1.20631e-11
-1.09318e-11
-7.99531e-12
8.7786e-12
1.04758e-11
-7.13704e-12
-1.45921e-13
3.22463e-12
1.18382e-09
-5.65332e-13
3.09984e-12
1.18866e-09
-5.49594e-13
2.39178e-12
1.19645e-09
-9.25531e-14
1.65315e-12
1.1956e-09
8.12253e-14
1.54125e-12
1.19867e-09
8.98225e-13
4.44389e-13
1.20916e-09
-1.48526e-12
2.72316e-12
1.20545e-09
-6.38362e-13
-5.6725e-13
1.1897e-09
4.81669e-11
4.31514e-11
7.61648e-10
6.72451e-11
-4.52525e-11
-6.48669e-11
6.57744e-11
-4.81113e-11
-6.54137e-11
-6.43544e-11
1.36657e-11
1.37308e-11
1.34789e-10
-3.78356e-11
6.57695e-11
-1.77409e-11
-1.77496e-11
-8.8438e-12
9.38757e-12
1.12017e-11
-7.97337e-12
-8.86229e-12
9.41943e-12
1.1229e-11
-8.00175e-12
2.40055e-13
2.61983e-12
1.19884e-09
9.78573e-13
1.95579e-12
1.21469e-09
-3.18739e-13
3.54054e-12
1.20253e-09
-1.47031e-12
2.64721e-12
1.21107e-09
-1.78458e-12
1.63127e-12
1.22189e-09
-1.23544e-12
-3.75746e-13
1.19624e-09
2.09842e-12
4.67032e-11
9.42307e-10
6.15014e-11
-4.77694e-11
-6.08851e-11
4.50927e-11
6.24669e-11
8.19373e-10
6.74062e-11
-4.72248e-11
-6.48471e-11
6.35036e-11
-6.21461e-11
-6.26641e-11
-7.34052e-11
6.84126e-12
3.24918e-12
1.51559e-10
-3.60484e-11
-1.76997e-11
6.16467e-11
-1.69622e-11
-8.001e-12
8.79081e-12
1.04783e-11
-7.14383e-12
-9.83207e-12
1.3642e-11
1.20595e-11
-1.09301e-11
4.0234e-14
2.10014e-12
1.22245e-09
-2.42819e-13
1.45014e-12
1.20345e-09
6.0555e-13
4.72861e-11
9.6227e-10
6.14834e-11
-4.76863e-11
-6.04118e-11
7.159e-13
6.3537e-11
9.67079e-10
6.55121e-11
-6.28838e-11
-6.47292e-11
8.97813e-13
6.45054e-11
9.76953e-10
6.60756e-11
-6.58563e-11
-6.46169e-11
4.58365e-11
6.45731e-11
8.05174e-10
6.54146e-11
-4.69719e-11
-6.49616e-11
6.70089e-11
-6.44355e-11
-6.62486e-11
-6.25363e-11
4.42543e-12
1.19552e-11
1.38696e-10
-4.64283e-11
-2.16882e-12
5.57985e-12
9.86582e-11
-1.00053e-11
1.15028e-11
1.34008e-11
-8.07253e-12
7.82102e-12
-9.85106e-12
-1.05352e-11
9.80283e-13
-1.44697e-12
1.3032e-11
4.01736e-13
6.64051e-11
9.78303e-10
6.67526e-11
-6.64847e-11
-6.66102e-11
4.81021e-11
6.70256e-11
7.95335e-10
7.03333e-11
-6.56717e-11
-7.02188e-11
7.18072e-11
-4.90753e-11
-7.22764e-11
-6.00271e-11
6.17851e-12
1.49749e-11
1.34262e-10
-5.08889e-11
-4.63149e-12
6.87153e-13
1.64772e-11
1.01893e-10
-5.78895e-11
-5.81103e-12
1.55436e-11
1.10597e-10
2.0651e-12
-5.09722e-11
4.13979e-13
4.59376e-12
1.03486e-10
-1.02416e-11
1.34201e-11
1.40151e-11
-1.01421e-11
9.68866e-12
-1.2146e-11
-1.10781e-11
7.80999e-13
2.37901e-12
1.03755e-11
-2.4769e-13
-1.52052e-12
-5.85676e-13
2.35388e-12
-4.46178e-11
1.69786e-12
1.00279e-10
-1.00449e-11
1.45301e-11
1.45439e-11
-9.95362e-12
-4.65141e-11
-6.17881e-12
1.44452e-11
9.69853e-11
-1.12128e-11
1.50072e-11
1.55344e-11
-1.10415e-11
-4.07647e-11
-2.04038e-11
6.79178e-11
-1.7333e-11
-1.14314e-11
1.05395e-11
1.54623e-11
-8.51052e-12
-9.15355e-12
1.00544e-11
1.20604e-11
-8.43742e-12
1.74418e-12
-3.31215e-13
-1.32412e-11
3.71584e-15
2.42532e-12
9.39924e-12
-2.2867e-13
-1.29518e-11
-9.15351e-13
1.40708e-12
1.21546e-12
1.14733e-11
3.16178e-13
3.13631e-13
1.17519e-09
6.51741e-13
3.1094e-13
1.17475e-09
1.01821e-12
3.16898e-13
1.17439e-09
1.45209e-12
2.99478e-13
1.17422e-09
1.94962e-12
3.02831e-13
1.17436e-09
2.56686e-12
2.59904e-13
1.17481e-09
3.27069e-12
2.67393e-13
1.17563e-09
4.15555e-12
1.74569e-13
1.17701e-09
5.08969e-12
2.40497e-13
1.17869e-09
6.29585e-12
-1.58786e-14
1.18109e-09
7.24114e-12
2.70409e-13
1.18263e-09
7.46555e-12
-2.46685e-13
1.19891e-09
5.12858e-12
1.71757e-12
1.22315e-09
6.65209e-11
1.68988e-13
9.83498e-10
6.69435e-11
-6.66875e-11
-6.68159e-11
-4.47404e-11
1.70119e-12
1.00498e-10
-1.00694e-11
1.45368e-11
1.45706e-11
-9.97321e-12
3.1357e-13
6.49018e-13
1.17477e-09
6.42466e-13
6.40506e-13
1.17456e-09
1.00088e-12
6.52101e-13
1.17431e-09
1.42236e-12
6.15571e-13
1.17422e-09
1.90439e-12
6.24187e-13
1.17442e-09
2.49607e-12
5.45628e-13
1.17487e-09
3.17318e-12