/*--------------------------------*- C++ -*----------------------------------*\
| =========                 |                                                 |
| \\      /  F ield         | OpenFOAM: The Open Source CFD Toolbox           |
|  \\    /   O peration     | Version:  2.1.1                                 |
|   \\  /    A nd           | Web:      www.OpenFOAM.org                      |
|    \\/     M anipulation  |                                                 |
\*---------------------------------------------------------------------------*/
FoamFile
{
    version     2.0;
    format      ascii;
    class       volScalarField;
    location    "0.005";
    object      Th;
}
// * * * * * * * * * * * * * * * * * * * * * * * * * * * * * * * * * * * * * //

dimensions      [0 0 0 0 0 0 0];

internalField   nonuniform List<scalar> 
10314
(
1.00004e-14
1e-14
1.00002e-14
1.00002e-14
1.00001e-14
1.00001e-14
1.00002e-14
1.00002e-14
1.00002e-14
1.00002e-14
1.00001e-14
1.00002e-14
1.00176e-14
1.28977e-14
2.65315e-14
1e-14
1e-14
1e-14
1.00001e-14
1.00001e-14
1.00001e-14
1.00001e-14
1.00001e-14
1.00001e-14
1.00001e-14
1.00001e-14
1.00005e-14
1.0042e-14
1.66787e-14
4.32687e-14
1.00002e-14
1e-14
1.00001e-14
1.00001e-14
1e-14
1e-14
1e-14
1.00001e-14
1.00001e-14
1.00001e-14
1.00001e-14
1.00002e-14
1e-14
1.10098e-14
8.73243e-14
1.00001e-14
1.00001e-14
1.00001e-14
1.00001e-14
1e-14
1.00001e-14
1.00001e-14
1.00001e-14
1e-14
1.00001e-14
1.00001e-14
1.00005e-14
1.0209e-14
1e-14
1.11375e-14
1.00001e-14
1.00001e-14
1e-14
1e-14
1.00001e-14
1.00001e-14
1.00001e-14
1e-14
1e-14
1e-14
1e-14
1.00011e-14
1.0408e-14
1e-14
1e-14
1.00001e-14
1.00001e-14
1e-14
1.00001e-14
1.00001e-14
1.00001e-14
1e-14
1e-14
1e-14
1e-14
1.00002e-14
1.00315e-14
1.79296e-14
2.84553e-14
1.00002e-14
1.00001e-14
1e-14
1.00001e-14
1.00001e-14
1e-14
1e-14
1e-14
1.00001e-14
1.00001e-14
1.00005e-14
1.03319e-14
1.10461e-14
1.26919e-14
1.00002e-14
1.00001e-14
1.00001e-14
1.00001e-14
1e-14
1e-14
1e-14
1e-14
1e-14
1.00002e-14
1.00395e-14
2.32755e-14
2.01276e-14
1.04404e-12
1.00002e-14
1.00001e-14
1.00001e-14
1e-14
1e-14
1e-14
1.00001e-14
1e-14
1.00001e-14
1.00054e-14
1.23122e-14
1.11472e-14
1.16387e-14
1.00002e-14
1.00001e-14
1.00001e-14
1.00001e-14
1e-14
1e-14
1.00001e-14
1.00002e-14
1.00054e-14
1.24025e-14
1.01576e-14
1.08958e-13
1e-14
1.00001e-14
1.00001e-14
1.00001e-14
1e-14
1.00002e-14
1.00005e-14
1.00395e-14
1.23058e-14
1.01589e-14
8.82052e-14
1.00002e-14
1.00005e-14
1.00002e-14
1.00005e-14
1.00011e-14
1.00315e-14
1.03319e-14
2.32718e-14
1.11479e-14
1.08856e-13
1.00176e-14
1.00422e-14
1e-14
1.0209e-14
1.04079e-14
1.79289e-14
1.10461e-14
2.01211e-14
1.16436e-14
1.2895e-14
1.66791e-14
1.10105e-14
1e-14
1e-14
2.84541e-14
1.26914e-14
1.04406e-12
2.65205e-14
4.32498e-14
8.73143e-14
1.11374e-14
1e-14
1.00003e-14
1e-14
1.00001e-14
1.00001e-14
1.00001e-14
1.00002e-14
1.00001e-14
1.00001e-14
1.00002e-14
1.00001e-14
1.00001e-14
1.00002e-14
1.00091e-14
1.25043e-14
2.61601e-14
1e-14
1e-14
1e-14
1e-14
1e-14
1.00001e-14
1.00001e-14
1.00001e-14
1.00001e-14
1.00001e-14
1.00001e-14
1.00003e-14
1.00232e-14
1.60625e-14
4.18292e-14
1.00001e-14
1e-14
1e-14
1.00001e-14
1e-14
1e-14
1e-14
1.00001e-14
1e-14
1e-14
1.00001e-14
1.00001e-14
1e-14
1.0842e-14
8.73262e-14
1.00001e-14
1e-14
1.00001e-14
1e-14
1e-14
1.00001e-14
1.00001e-14
1.00001e-14
1e-14
1e-14
1.00001e-14
1.00002e-14
1.01756e-14
1e-14
1.09016e-14
1.00001e-14
1e-14
1e-14
1e-14
1.00002e-14
1.00001e-14
1.00001e-14
1e-14
1e-14
1e-14
1.00001e-14
1.00005e-14
1.03425e-14
1e-14
1e-14
1.00002e-14
1.00001e-14
1e-14
1.00001e-14
1.00001e-14
1.00001e-14
1e-14
1e-14
1e-14
1e-14
1.00001e-14
1.00188e-14
1.74597e-14
2.78268e-14
1.00001e-14
1.00001e-14
1e-14
1.00001e-14
1.00001e-14
1e-14
1e-14
1e-14
1e-14
1.00001e-14
1e-14
1.02937e-14
1.09186e-14
1.11643e-14
1.00001e-14
1.00001e-14
1.00001e-14
1.00001e-14
1e-14
1e-14
1e-14
1e-14
1e-14
1.00001e-14
1.00226e-14
2.25155e-14
1.96912e-14
1.05933e-12
1.00002e-14
1.00001e-14
1e-14
1e-14
1e-14
1e-14
1e-14
1e-14
1e-14
1.00015e-14
1.21118e-14
1.10733e-14
1.14735e-14
1.00001e-14
1.00001e-14
1e-14
1e-14
1e-14
1e-14
1.00001e-14
1.00001e-14
1.00015e-14
1.22172e-14
1.0011e-14
1.11114e-13
1.00001e-14
1.00001e-14
1.00001e-14
1.00001e-14
1e-14
1.00001e-14
1e-14
1.00226e-14
1.21054e-14
1.00116e-14
8.92979e-14
1.00002e-14
1.00003e-14
1.00001e-14
1.00002e-14
1.00005e-14
1.00188e-14
1.02937e-14
2.25118e-14
1.10743e-14
1.11013e-13
1.0009e-14
1.00233e-14
1e-14
1.01756e-14
1.03424e-14
1.7459e-14
1.09186e-14
1.96911e-14
1.14757e-14
1.25013e-14
1.60629e-14
1.08427e-14
1e-14
1e-14
2.78257e-14
1.11643e-14
1.05936e-12
2.61506e-14
4.18133e-14
8.73171e-14
1.09014e-14
1e-14
1.00002e-14
1.00001e-14
1e-14
1e-14
1.00001e-14
1.00001e-14
1e-14
1e-14
1.00001e-14
1.00001e-14
1e-14
1.00001e-14
1.00016e-14
1.24012e-14
2.62719e-14
1.00001e-14
1e-14
1e-14
1e-14
1e-14
1.00001e-14
1e-14
1e-14
1.00001e-14
1.00001e-14
1.00001e-14
1.00002e-14
1.0006e-14
1.58823e-14
4.18277e-14
1e-14
1e-14
1e-14
1e-14
1e-14
1e-14
1e-14
1e-14
1e-14
1e-14
1.00001e-14
1.00001e-14
1e-14
1.08018e-14
8.81763e-14
1e-14
1e-14
1e-14
1e-14
1e-14
1.00001e-14
1.00001e-14
1e-14
1e-14
1.00001e-14
1.00001e-14
1e-14
1.01626e-14
1e-14
1.08793e-14
1.00001e-14
1e-14
1e-14
1e-14
1.00001e-14
1.00001e-14
1.00001e-14
1e-14
1e-14
1e-14
1e-14
1e-14
1.03261e-14
1e-14
1e-14
1.00001e-14
1.00001e-14
1e-14
1.00001e-14
1.00001e-14
1e-14
1e-14
1e-14
1e-14
1e-14
1e-14
1.00111e-14
1.7316e-14
2.78505e-14
1e-14
1e-14
1e-14
1.00001e-14
1.00001e-14
1e-14
1e-14
1e-14
1e-14
1e-14
1e-14
1.02817e-14
1.08866e-14
1.09106e-14
1e-14
1e-14
1e-14
1e-14
1e-14
1e-14
1e-14
1e-14
1e-14
1e-14
1.00149e-14
2.21363e-14
1.96041e-14
1.06138e-12
1.00001e-14
1.00001e-14
1e-14
1e-14
1e-14
1e-14
1e-14
1e-14
1e-14
1e-14
1.20615e-14
1.1049e-14
1.1633e-14
1.00001e-14
1.00001e-14
1e-14
1.00001e-14
1e-14
1e-14
1e-14
1e-14
1e-14
1.21627e-14
1e-14
1.12768e-13
1e-14
1.00001e-14
1.00001e-14
1.00001e-14
1e-14
1e-14
1e-14
1.00149e-14
1.2055e-14
1e-14
9.06555e-14
1.00001e-14
1.00002e-14
1.00001e-14
1e-14
1e-14
1.00111e-14
1.02816e-14
2.21332e-14
1.105e-14
1.12668e-13
1.00016e-14
1.00062e-14
1e-14
1.01626e-14
1.0326e-14
1.73155e-14
1.08866e-14
1.96032e-14
1.1636e-14
1.24021e-14
1.58851e-14
1.08029e-14
1e-14
1e-14
2.78496e-14
1.09105e-14
1.0614e-12
2.62625e-14
4.18152e-14
8.81704e-14
1.08788e-14
1e-14
1e-14
1e-14
1e-14
1e-14
1e-14
1e-14
1e-14
1.00001e-14
1.00001e-14
1e-14
1e-14
1.00001e-14
1e-14
1.21819e-14
2.62409e-14
1e-14
1e-14
1e-14
1e-14
1e-14
1e-14
1e-14
1e-14
1e-14
1e-14
1.00001e-14
1.00001e-14
1e-14
1.56939e-14
4.18036e-14
1e-14
1e-14
1e-14
1e-14
1e-14
1e-14
1e-14
1e-14
1e-14
1e-14
1.00001e-14
1.00001e-14
1e-14
1.07836e-14
8.86079e-14
1e-14
1e-14
1e-14
1e-14
1e-14
1e-14
1e-14
1e-14
1e-14
1.00001e-14
1.00001e-14
1e-14
1.01552e-14
1e-14
1.087e-14
1e-14
1e-14
1e-14
1e-14
1e-14
1e-14
1e-14
1e-14
1e-14
1.00001e-14
1e-14
1e-14
1.03048e-14
1e-14
1e-14
1e-14
1e-14
1e-14
1e-14
1e-14
1e-14
1e-14
1e-14
1e-14
1e-14
1e-14
1.00002e-14
1.71497e-14
2.78521e-14
1e-14
1e-14
1e-14
1e-14
1e-14
1e-14
1e-14
1e-14
1e-14
1e-14
1e-14
1.02728e-14
1.08646e-14
1.08274e-14
1.00001e-14
1e-14
1e-14
1e-14
1e-14
1e-14
1e-14
1e-14
1e-14
1e-14
1.00021e-14
2.20861e-14
1.95672e-14
1.06175e-12
1.00001e-14
1e-14
1e-14
1e-14
1e-14
1e-14
1e-14
1e-14
1e-14
1e-14
1.20681e-14
1.10368e-14
1.16396e-14
1e-14
1e-14
1e-14
1.00001e-14
1e-14
1e-14
1e-14
1e-14
1e-14
1.21577e-14
1e-14
1.13063e-13
1e-14
1.00001e-14
1.00001e-14
1.00001e-14
1e-14
1e-14
1e-14
1.00021e-14
1.20616e-14
1e-14
9.08994e-14
1.00001e-14
1.00001e-14
1.00001e-14
1e-14
1e-14
1.00002e-14
1.02727e-14
2.20828e-14
1.10377e-14
1.12963e-13
1e-14
1e-14
1e-14
1.01552e-14
1.03047e-14
1.71491e-14
1.08646e-14
1.95664e-14
1.16433e-14
1.21836e-14
1.56989e-14
1.07849e-14
1e-14
1e-14
2.78512e-14
1.08271e-14
1.06177e-12
2.62456e-14
4.18108e-14
8.86042e-14
1.08695e-14
1e-14
1e-14
1e-14
1e-14
1e-14
1e-14
1.00001e-14
1.00001e-14
1.00001e-14
1.00001e-14
1e-14
1e-14
1.00001e-14
1e-14
1.27031e-14
2.61735e-14
1e-14
1e-14
1e-14
1e-14
1e-14
1e-14
1e-14
1e-14
1e-14
1e-14
1.00001e-14
1.00001e-14
1e-14
1.63053e-14
4.18015e-14
1e-14
1e-14
1e-14
1e-14
1e-14
1e-14
1e-14
1e-14
1e-14
1.00001e-14
1.00001e-14
1.00001e-14
1e-14
1.08558e-14
8.95617e-14
1e-14
1e-14
1e-14
1e-14
1e-14
1e-14
1e-14
1e-14
1e-14
1.00001e-14
1.00001e-14
1e-14
1.01603e-14
1e-14
1.0832e-14
1e-14
1e-14
1e-14
1e-14
1e-14
1e-14
1e-14
1e-14
1.00001e-14
1e-14
1e-14
1e-14
1.03693e-14
1e-14
1e-14
1.00001e-14
1e-14
1e-14
1e-14
1e-14
1e-14
1e-14
1e-14
1e-14
1e-14
1e-14
1e-14
1.75949e-14
2.78312e-14
1.00001e-14
1e-14
1e-14
1e-14
1e-14
1e-14
1e-14
1e-14
1e-14
1e-14
1e-14
1.02655e-14
1.08911e-14
1.07076e-14
1.00001e-14
1e-14
1e-14
1e-14
1e-14
1e-14
1e-14
1e-14
1e-14
1.00001e-14
1e-14
2.19008e-14
1.93829e-14
1.06151e-12
1.00001e-14
1e-14
1e-14
1e-14
1.00001e-14
1e-14
1e-14
1e-14
1.00001e-14
1e-14
1.20043e-14
1.09773e-14
1.15679e-14
1e-14
1e-14
1.00001e-14
1.00001e-14
1e-14
1e-14
1e-14
1.00001e-14
1e-14
1.21215e-14
1e-14
1.12894e-13
1e-14
1.00001e-14
1.00001e-14
1e-14
1e-14
1e-14
1e-14
1e-14
1.19979e-14
1e-14
9.08428e-14
1.00001e-14
1.00001e-14
1e-14
1e-14
1e-14
1e-14
1.02654e-14
2.18979e-14
1.09782e-14
1.12791e-13
1e-14
1e-14
1e-14
1.01603e-14
1.03693e-14
1.75944e-14
1.08911e-14
1.93823e-14
1.15706e-14
1.27048e-14
1.63084e-14
1.08565e-14
1e-14
1e-14
2.78302e-14
1.07073e-14
1.06153e-12
2.61655e-14
4.18166e-14
8.95559e-14
1.08314e-14
1e-14
1e-14
1e-14
1e-14
1e-14
1e-14
1.00001e-14
1.00001e-14
1e-14
1e-14
1e-14
1.00001e-14
1.00002e-14
1e-14
1.14495e-14
2.46186e-14
1e-14
1e-14
1e-14
1e-14
1e-14
1e-14
1e-14
1e-14
1e-14
1e-14
1e-14
1e-14
1e-14
1.48609e-14
4.08686e-14
1e-14
1e-14
1e-14
1e-14
1e-14
1e-14
1e-14
1e-14
1e-14
1e-14
1e-14
1e-14
1e-14
1.0759e-14
9.27478e-14
1e-14
1e-14
1e-14
1e-14
1e-14
1e-14
1e-14
1e-14
1e-14
1e-14
1.00001e-14
1e-14
1.01322e-14
1e-14
1.06078e-14
1e-14
1e-14
1e-14
1.00001e-14
1e-14
1e-14
1e-14
1e-14
1e-14
1e-14
1e-14
1e-14
1.0203e-14
1e-14
1e-14
1.00001e-14
1e-14
1e-14
1e-14
1e-14
1.00001e-14
1e-14
1e-14
1e-14
1e-14
1e-14
1e-14
1.61826e-14
2.7058e-14
1.00001e-14
1e-14
1e-14
1e-14
1e-14
1e-14
1e-14
1e-14
1.00001e-14
1e-14
1e-14
1.02434e-14
1.07433e-14
1.03722e-14
1e-14
1e-14
1e-14
1e-14
1e-14
1e-14
1e-14
1e-14
1e-14
1e-14
1e-14
2.15422e-14
1.90765e-14
1.05941e-12
1e-14
1e-14
1e-14
1e-14
1e-14
1e-14
1.00001e-14
1e-14
1e-14
1e-14
1.22168e-14
1.10736e-14
1.15641e-14
1e-14
1e-14
1e-14
1e-14
1e-14
1e-14
1e-14
1e-14
1e-14
1.22244e-14
1.00049e-14
1.12283e-13
1.00001e-14
1e-14
1e-14
1e-14
1e-14
1e-14
1e-14
1e-14
1.22098e-14
1.00055e-14
9.13608e-14
1.00002e-14
1e-14
1e-14
1e-14
1e-14
1e-14
1.02433e-14
2.15395e-14
1.10742e-14
1.12177e-13
1e-14
1e-14
1e-14
1.01322e-14
1.02029e-14
1.61821e-14
1.07434e-14
1.90754e-14
1.15666e-14
1.14504e-14
1.48616e-14
1.07593e-14
1e-14
1e-14
2.70572e-14
1.03722e-14
1.05942e-12
2.46169e-14
4.08743e-14
9.27413e-14
1.06073e-14
1e-14
1e-14
1e-14
1e-14
1.00001e-14
1.00002e-14
1.00002e-14
1.00001e-14
1.00001e-14
1e-14
1e-14
1.00001e-14
1.00001e-14
1e-14
1.51424e-14
1.19007e-14
1e-14
1e-14
1e-14
1e-14
1e-14
1e-14
1e-14
1e-14
1e-14
1e-14
1e-14
1.00001e-14
1e-14
2.03833e-14
3.43277e-14
1e-14
1e-14
1e-14
1e-14
1e-14
1e-14
1e-14
1.00001e-14
1e-14
1.00001e-14
1.00001e-14
1.00001e-14
1e-14
1.18053e-14
9.21184e-14
1.00001e-14
1e-14
1e-14
1.00001e-14
1e-14
1e-14
1.00001e-14
1e-14
1e-14
1.00001e-14
1.00001e-14
1e-14
1.02055e-14
1e-14
1e-14
1.00002e-14
1e-14
1e-14
1e-14
1e-14
1.00001e-14
1e-14
1e-14
1.00001e-14
1.00001e-14
1e-14
1e-14
1.0696e-14
1e-14
1e-14
1.00002e-14
1e-14
1e-14
1e-14
1.00001e-14
1e-14
1e-14
1e-14
1.00001e-14
1.00001e-14
1e-14
1e-14
2.08829e-14
2.50399e-14
1.00001e-14
1e-14
1e-14
1.00001e-14
1e-14
1e-14
1e-14
1.00001e-14
1.00001e-14
1e-14
1e-14
1.02275e-14
1.1277e-14
1e-14
1.00001e-14
1e-14
1.00001e-14
1e-14
1e-14
1e-14
1.00001e-14
1.00001e-14
1.00001e-14
1.00001e-14
1e-14
2.41372e-14
2.2716e-14
1.02764e-12
1e-14
1e-14
1e-14
1e-14
1.00001e-14
1.00001e-14
1.00001e-14
1.00001e-14
1.00001e-14
1e-14
1.18182e-14
1.14387e-14
1.63385e-14
1e-14
1e-14
1.00001e-14
1.00001e-14
1.00001e-14
1.00001e-14
1e-14
1.00001e-14
1e-14
1.19317e-14
1.01788e-14
1.15891e-13
1.00001e-14
1e-14
1.00001e-14
1.00001e-14
1e-14
1e-14
1e-14
1e-14
1.18123e-14
1.0179e-14
1.10864e-13
1.00001e-14
1.00001e-14
1.00001e-14
1e-14
1e-14
1e-14
1.02276e-14
2.41354e-14
1.14389e-14
1.15766e-13
1e-14
1e-14
1e-14
1.02055e-14
1.06959e-14
2.08823e-14
1.1277e-14
2.27157e-14
1.63449e-14
1.51429e-14
2.03848e-14
1.18057e-14
1e-14
1e-14
2.50397e-14
1e-14
1.02765e-12
1.19008e-14
3.43281e-14
9.21136e-14
1e-14
1e-14
1e-14
1e-14
1e-14
1.00002e-14
1.00002e-14
1.00002e-14
1.00001e-14
1e-14
1.00001e-14
1e-14
1.00001e-14
1.00001e-14
1e-14
1.22437e-14
1e-14
1e-14
1e-14
1e-14
1e-14
1.00001e-14
1e-14
1e-14
1e-14
1.00001e-14
1.00001e-14
1.00001e-14
1.00001e-14
1e-14
1.34576e-14
1.53623e-14
1e-14
1e-14
1e-14
1e-14
1e-14
1e-14
1e-14
1e-14
1e-14
1.00001e-14
1.00001e-14
1e-14
1e-14
1e-14
5.25461e-14
1.00002e-14
1e-14
1e-14
1e-14
1.00001e-14
1.00001e-14
1e-14
1e-14
1.00001e-14
1.00001e-14
1e-14
1e-14
1.00726e-14
1.02985e-14
1.46115e-14
1.00002e-14
1.00001e-14
1e-14
1.00001e-14
1.00001e-14
1e-14
1e-14
1e-14
1e-14
1e-14
1e-14
1e-14
1.02716e-14
1.13387e-14
1.03273e-14
1.00002e-14
1e-14
1e-14
1.00001e-14
1e-14
1e-14
1.00001e-14
1.00001e-14
1e-14
1e-14
1e-14
1e-14
1.26965e-14
1e-14
1.00001e-14
1e-14
1e-14
1e-14
1e-14
1.00001e-14
1.00001e-14
1e-14
1e-14
1e-14
1e-14
1.0044e-14
1.01087e-14
2.39888e-14
1e-14
1e-14
1e-14
1e-14
1e-14
1.00001e-14
1e-14
1e-14
1e-14
1e-14
1e-14
1.36385e-14
1e-14
1e-14
1.00001e-14
1.00001e-14
1e-14
1.00001e-14
1e-14
1e-14
1e-14
1e-14
1e-14
1e-14
1.04572e-14
1.00105e-14
1e-14
1e-14
1.00001e-14
1.00001e-14
1.00001e-14
1e-14
1e-14
1e-14
1e-14
1e-14
1.05083e-14
1.04023e-14
5.00779e-14
1.00001e-14
1.00001e-14
1.00001e-14
1e-14
1e-14
1e-14
1e-14
1e-14
1.04558e-14
1.04011e-14
3.59075e-14
1.00001e-14
1.00001e-14
1e-14
1e-14
1e-14
1e-14
1.0044e-14
1.36379e-14
1.00106e-14
5.00694e-14
1e-14
1e-14
1e-14
1.00726e-14
1.02716e-14
1.26964e-14
1.01087e-14
1e-14
1e-14
1.22438e-14
1.34581e-14
1e-14
1.02984e-14
1.13367e-14
1e-14
2.39885e-14
1e-14
1e-14
1.53657e-14
5.2546e-14
1.46121e-14
1.03273e-14
1e-14
1e-14
1e-14
1.00001e-14
1.00001e-14
1.00002e-14
1e-14
1e-14
1e-14
1.00001e-14
1.00002e-14
1.00002e-14
1e-14
1.07934e-14
1e-14
1e-14
1e-14
1e-14
1e-14
1e-14
1.00001e-14
1e-14
1e-14
1e-14
1e-14
1e-14
1e-14
1e-14
1.11912e-14
1.00049e-14
1e-14
1e-14
1e-14
1e-14
1.00001e-14
1e-14
1e-14
1e-14
1e-14
1e-14
1e-14
1e-14
1e-14
1e-14
1.35067e-14
1.00001e-14
1e-14
1e-14
1.00001e-14
1.00001e-14
1e-14
1e-14
1e-14
1e-14
1e-14
1e-14
1e-14
1.00219e-14
1.01153e-14
1.03536e-14
1.00001e-14
1e-14
1.00001e-14
1.00001e-14
1e-14
1e-14
1e-14
1e-14
1e-14
1e-14
1e-14
1e-14
1.00952e-14
1e-14
1.01548e-14
1.00002e-14
1.00001e-14
1e-14
1e-14
1e-14
1e-14
1e-14
1e-14
1e-14
1e-14
1e-14
1e-14
1.0754e-14
1e-14
1e-14
1e-14
1e-14
1e-14
1e-14
1e-14
1e-14
1e-14
1e-14
1e-14
1e-14
1.00058e-14
1.00561e-14
1.0214e-14
1e-14
1e-14
1e-14
1e-14
1e-14
1e-14
1e-14
1e-14
1.00001e-14
1.00001e-14
1e-14
1.10562e-14
1.00323e-14
1e-14
1e-14
1e-14
1e-14
1e-14
1e-14
1e-14
1.00001e-14
1.00001e-14
1e-14
1.00911e-14
1.00781e-14
1.01719e-14
1.00001e-14
1e-14
1e-14
1e-14
1e-14
1e-14
1e-14
1.00001e-14
1e-14
1.01222e-14
1.00317e-14
1.1468e-14
1.00002e-14
1e-14
1e-14
1e-14
1e-14
1e-14
1e-14
1e-14
1.00908e-14
1.00316e-14
1.08898e-14
1.00002e-14
1e-14
1e-14
1e-14
1e-14
1e-14
1.00059e-14
1.1056e-14
1.0078e-14
1.14662e-14
1e-14
1e-14
1e-14
1.00219e-14
1.00952e-14
1.07539e-14
1.00561e-14
1.00323e-14
1.01719e-14
1.07934e-14
1.11914e-14
1e-14
1.01153e-14
1e-14
1e-14
1.0214e-14
1e-14
1.00049e-14
1.35065e-14
1.03534e-14
1.01548e-14
1e-14
1e-14
1.00001e-14
1.00001e-14
1.00002e-14
1.00001e-14
1e-14
1e-14
1e-14
1e-14
1.00001e-14
1e-14
1e-14
1.02381e-14
1.00208e-14
1e-14
1e-14
1e-14
1e-14
1.00001e-14
1e-14
1e-14
1e-14
1e-14
1e-14
1e-14
1e-14
1e-14
1.03669e-14
1.00428e-14
1.00001e-14
1e-14
1e-14
1e-14
1e-14
1e-14
1e-14
1e-14
1e-14
1e-14
1e-14
1e-14
1e-14
1.00037e-14
1.01301e-14
1.00001e-14
1e-14
1e-14
1.00001e-14
1e-14
1e-14
1e-14
1e-14
1e-14
1e-14
1e-14
1e-14
1.00067e-14
1.0014e-14
1.00096e-14
1.00002e-14
1.00001e-14
1e-14
1e-14
1e-14
1e-14
1e-14
1e-14
1e-14
1e-14
1e-14
1e-14
1.00274e-14
1.00004e-14
1.00024e-14
1.00001e-14
1e-14
1e-14
1e-14
1e-14
1e-14
1e-14
1e-14
1e-14
1e-14
1e-14
1e-14
1.01921e-14
1.00191e-14
1e-14
1e-14
1e-14
1e-14
1e-14
1e-14
1e-14
1e-14
1e-14
1e-14
1e-14
1.00008e-14
1.00153e-14
1.00052e-14
1e-14
1e-14
1e-14
1e-14
1e-14
1e-14
1e-14
1e-14
1.00001e-14
1e-14
1e-14
1.02776e-14
1.00291e-14
1e-14
1e-14
1e-14
1e-14
1e-14
1e-14
1e-14
1.00001e-14
1.00001e-14
1e-14
1.00155e-14
1.00254e-14
1.00044e-14
1e-14
1e-14
1e-14
1e-14
1e-14
1e-14
1e-14
1e-14
1e-14
1.00262e-14
1.00093e-14
1.00317e-14
1.00001e-14
1e-14
1e-14
1e-14
1e-14
1e-14
1e-14
1e-14
1.00155e-14
1.00093e-14
1.00208e-14
1e-14
1e-14
1e-14
1e-14
1e-14
1e-14
1.00008e-14
1.02776e-14
1.00254e-14
1.00317e-14
1e-14
1e-14
1e-14
1.00067e-14
1.00274e-14
1.01921e-14
1.00153e-14
1.00291e-14
1.00044e-14
1.02381e-14
1.03669e-14
1.00037e-14
1.0014e-14
1.00004e-14
1.00191e-14
1.00052e-14
1.00208e-14
1.00428e-14
1.01301e-14
1.00096e-14
1.00024e-14
1.00001e-14
1e-14
1e-14
1e-14
1.00001e-14
1e-14
1e-14
1e-14
1e-14
1e-14
1e-14
1e-14
1e-14
1.00631e-14
1.00062e-14
1e-14
1.00001e-14
1.00001e-14
1.00001e-14
1e-14
1e-14
1e-14
1e-14
1e-14
1e-14
1e-14
1e-14
1e-14
1.00993e-14
1.00106e-14
1e-14
1.00001e-14
1.00001e-14
1.00001e-14
1e-14
1e-14
1e-14
1e-14
1e-14
1e-14
1e-14
1e-14
1e-14
1.00015e-14
1.00033e-14
1e-14
1.00001e-14
1.00001e-14
1e-14
1e-14
1e-14
1e-14
1e-14
1e-14
1e-14
1e-14
1e-14
1.00019e-14
1.0002e-14
1.00001e-14
1.00001e-14
1e-14
1e-14
1e-14
1e-14
1e-14
1e-14
1e-14
1e-14
1e-14
1e-14
1e-14
1.00068e-14
1.00004e-14
1.00001e-14
1e-14
1e-14
1e-14
1e-14
1e-14
1e-14
1e-14
1e-14
1e-14
1e-14
1e-14
1e-14
1.00432e-14
1.00045e-14
1e-14
1e-14
1e-14
1e-14
1e-14
1e-14
1e-14
1e-14
1e-14
1e-14
1e-14
1.00001e-14
1.00029e-14
1.00005e-14
1e-14
1e-14
1e-14
1e-14
1e-14
1e-14
1e-14
1e-14
1e-14
1e-14
1e-14
1.00622e-14
1.00057e-14
1e-14
1e-14
1e-14
1e-14
1e-14
1e-14
1e-14
1e-14
1e-14
1e-14
1.00025e-14
1.00043e-14
1.00004e-14
1e-14
1e-14
1e-14
1e-14
1e-14
1e-14
1e-14
1e-14
1e-14
1.00057e-14
1.00012e-14
1.00006e-14
1e-14
1e-14
1e-14
1e-14
1e-14
1e-14
1e-14
1e-14
1.00025e-14
1.00012e-14
1.00003e-14
1e-14
1e-14
1e-14
1e-14
1e-14
1e-14
1.00001e-14
1.00622e-14
1.00043e-14
1.00007e-14
1e-14
1e-14
1e-14
1.00019e-14
1.00068e-14
1.00432e-14
1.00029e-14
1.00057e-14
1.00004e-14
1.00631e-14
1.00994e-14
1.00015e-14
1.0002e-14
1.00004e-14
1.00045e-14
1.00005e-14
1.00062e-14
1.00106e-14
1.00033e-14
1.00001e-14
1.00001e-14
1e-14
1e-14
1.00001e-14
1.00001e-14
1e-14
1.00001e-14
1e-14
1e-14
1e-14
1e-14
1e-14
1e-14
1e-14
1.00151e-14
1.0001e-14
1e-14
1.00001e-14
1.00001e-14
1.00001e-14
1e-14
1e-14
1e-14
1e-14
1e-14
1e-14
1e-14
1e-14
1e-14
1.00241e-14
1.00023e-14
1.00001e-14
1.00001e-14
1.00001e-14
1e-14
1e-14
1e-14
1e-14
1e-14
1e-14
1e-14
1e-14
1e-14
1e-14
1.00004e-14
1.00001e-14
1.00001e-14
1.00001e-14
1e-14
1e-14
1e-14
1e-14
1e-14
1e-14
1e-14
1e-14
1e-14
1e-14
1.00005e-14
1.00003e-14
1e-14
1e-14
1e-14
1e-14
1e-14
1e-14
1e-14
1e-14
1e-14
1e-14
1e-14
1e-14
1e-14
1.00015e-14
1e-14
1e-14
1.00001e-14
1e-14
1e-14
1e-14
1e-14
1e-14
1e-14
1e-14
1e-14
1e-14
1e-14
1e-14
1.00086e-14
1.00009e-14
1e-14
1e-14
1e-14
1e-14
1e-14
1e-14
1e-14
1e-14
1e-14
1e-14
1e-14
1e-14
1.00005e-14
1e-14
1e-14
1e-14
1e-14
1e-14
1e-14
1e-14
1e-14
1e-14
1e-14
1e-14
1e-14
1.00121e-14
1.00014e-14
1e-14
1e-14
1e-14
1e-14
1e-14
1e-14
1e-14
1e-14
1e-14
1e-14
1.00003e-14
1.00007e-14
1e-14
1e-14
1e-14
1e-14
1e-14
1e-14
1e-14
1e-14
1e-14
1e-14
1.00012e-14
1.00002e-14
1.00003e-14
1e-14
1e-14
1e-14
1e-14
1e-14
1e-14
1e-14
1e-14
1.00003e-14
1.00002e-14
1e-14
1e-14
1e-14
1e-14
1e-14
1e-14
1e-14
1e-14
1.00121e-14
1.00007e-14
1.00003e-14
1e-14
1e-14
1e-14
1.00005e-14
1.00015e-14
1.00086e-14
1.00005e-14
1.00014e-14
1e-14
1.00151e-14
1.00241e-14
1.00004e-14
1.00003e-14
1e-14
1.00009e-14
1e-14
1.00011e-14
1.00023e-14
1.00001e-14
1e-14
1e-14
1.00002e-14
1.00002e-14
1.00001e-14
1e-14
1e-14
1e-14
1e-14
1e-14
1e-14
1e-14
1e-14
1e-14
1e-14
1.00032e-14
1e-14
1.00002e-14
1.00002e-14
1.00001e-14
1.00001e-14
1e-14
1e-14
1e-14
1e-14
1e-14
1.00001e-14
1e-14
1e-14
1e-14
1.00053e-14
1.00004e-14
1.00001e-14
1.00001e-14
1.00001e-14
1e-14
1e-14
1e-14
1e-14
1e-14
1e-14
1e-14
1e-14
1e-14
1e-14
1.00001e-14
1e-14
1e-14
1.00001e-14
1e-14
1e-14
1e-14
1e-14
1e-14
1e-14
1e-14
1e-14
1e-14
1e-14
1.00001e-14
1e-14
1e-14
1e-14
1e-14
1e-14
1e-14
1e-14
1e-14
1e-14
1e-14
1e-14
1e-14
1e-14
1e-14
1.00003e-14
1e-14
1.00002e-14
1e-14
1e-14
1e-14
1e-14
1e-14
1e-14
1e-14
1e-14
1e-14
1e-14
1e-14
1e-14
1.00015e-14
1.00005e-14
1e-14
1e-14
1e-14
1e-14
1e-14
1e-14
1e-14
1e-14
1e-14
1e-14
1e-14
1e-14
1e-14
1.00001e-14
1e-14
1e-14
1e-14
1e-14
1e-14
1e-14
1e-14
1e-14
1e-14
1e-14
1e-14
1.0002e-14
1.00003e-14
1e-14
1e-14
1e-14
1e-14
1e-14
1e-14
1e-14
1e-14
1e-14
1e-14
1e-14
1.00002e-14
1.00001e-14
1e-14
1.00001e-14
1e-14
1e-14
1e-14
1e-14
1e-14
1e-14
1e-14
1.00002e-14
1.00001e-14
1.00003e-14
1e-14
1e-14
1e-14
1e-14
1e-14
1e-14
1e-14
1e-14
1e-14
1.00001e-14
1e-14
1.00001e-14
1e-14
1e-14
1e-14
1e-14
1e-14
1e-14
1.0002e-14
1.00001e-14
1.00003e-14
1e-14
1e-14
1e-14
1.00001e-14
1.00003e-14
1.00015e-14
1e-14
1.00003e-14
1.00001e-14
1.00032e-14
1.00053e-14
1.00001e-14
1e-14
1e-14
1.00005e-14
1.00001e-14
1e-14
1.00004e-14
1e-14
1e-14
1.00002e-14
1e-14
1.00002e-14
1.00001e-14
1.00001e-14
1e-14
1e-14
1e-14
1e-14
1.00001e-14
1.00001e-14
1.00002e-14
1.00001e-14
1e-14
1.00006e-14
1.00001e-14
1.00002e-14
1.00001e-14
1.00001e-14
1e-14
1e-14
1e-14
1e-14
1e-14
1.00001e-14
1.00001e-14
1e-14
1e-14
1e-14
1.00011e-14
1e-14
1.00001e-14
1.00001e-14
1e-14
1e-14
1e-14
1e-14
1e-14
1e-14
1.00001e-14
1e-14
1e-14
1e-14
1e-14
1e-14
1.00001e-14
1.00001e-14
1e-14
1e-14
1e-14
1e-14
1e-14
1e-14
1.00001e-14
1e-14
1e-14
1e-14
1e-14
1e-14
1e-14
1e-14
1e-14
1e-14
1e-14
1e-14
1e-14
1e-14
1e-14
1e-14
1e-14
1e-14
1e-14
1e-14
1e-14
1e-14
1.00002e-14
1e-14
1e-14
1e-14
1e-14
1e-14
1e-14
1e-14
1e-14
1e-14
1e-14
1e-14
1e-14
1.00002e-14
1.00005e-14
1e-14
1e-14
1e-14
1e-14
1e-14
1e-14
1e-14
1e-14
1e-14
1.00001e-14
1e-14
1e-14
1.00004e-14
1.00001e-14
1e-14
1e-14
1e-14
1.00001e-14
1e-14
1e-14
1e-14
1e-14
1e-14
1e-14
1e-14
1.00002e-14
1.00005e-14
1.00001e-14
1.00001e-14
1.00001e-14
1e-14
1e-14
1e-14
1e-14
1e-14
1e-14
1e-14
1e-14
1e-14
1e-14
1.00001e-14
1.00001e-14
1e-14
1e-14
1e-14
1e-14
1.00001e-14
1e-14
1e-14
1e-14
1.00001e-14
1.00004e-14
1.00002e-14
1e-14
1e-14
1e-14
1e-14
1e-14
1e-14
1e-14
1e-14
1.00001e-14
1e-14
1.00001e-14
1e-14
1e-14
1e-14
1e-14
1e-14
1e-14
1.00002e-14
1e-14
1.00004e-14
1e-14
1e-14
1e-14
1e-14
1e-14
1.00002e-14
1.00004e-14
1.00005e-14
1e-14
1.00006e-14
1.00011e-14
1e-14
1e-14
1e-14
1.00005e-14
1e-14
1.00002e-14
1e-14
1e-14
1e-14
1.00002e-14
1e-14
1.00002e-14
1.00001e-14
1.00001e-14
1e-14
1e-14
1e-14
1e-14
1e-14
1.00001e-14
1.00001e-14
1e-14
1e-14
1.00001e-14
1e-14
1.00002e-14
1.00002e-14
1.00001e-14
1e-14
1e-14
1e-14
1e-14
1e-14
1.00001e-14
1e-14
1e-14
1e-14
1e-14
1.00002e-14
1.00001e-14
1.00001e-14
1.00001e-14
1e-14
1e-14
1e-14
1e-14
1.00001e-14
1.00001e-14
1.00001e-14
1e-14
1e-14
1e-14
1e-14
1e-14
1e-14
1.00001e-14
1e-14
1e-14
1e-14
1e-14
1.00001e-14
1.00001e-14
1e-14
1e-14
1e-14
1e-14
1e-14
1e-14
1e-14
1e-14
1e-14
1e-14
1e-14
1e-14
1.00001e-14
1e-14
1e-14
1e-14
1e-14
1e-14
1e-14
1e-14
1.00001e-14
1e-14
1e-14
1e-14
1e-14
1e-14
1.00001e-14
1e-14
1e-14
1e-14
1e-14
1e-14
1.00001e-14
1e-14
1e-14
1e-14
1.00006e-14
1e-14
1e-14
1.00001e-14
1.00001e-14
1e-14
1e-14
1e-14
1e-14
1e-14
1.00001e-14
1e-14
1.00001e-14
1e-14
1e-14
1e-14
1e-14
1.00001e-14
1e-14
1e-14
1e-14
1e-14
1e-14
1e-14
1e-14
1e-14
1.00001e-14
1.00003e-14
1e-14
1.00001e-14
1.00001e-14
1e-14
1e-14
1e-14
1e-14
1e-14
1e-14
1e-14
1.00001e-14
1e-14
1e-14
1.00001e-14
1e-14
1e-14
1e-14
1e-14
1.00001e-14
1.00001e-14
1e-14
1e-14
1e-14
1.00001e-14
1.00002e-14
1.00001e-14
1e-14
1e-14
1e-14
1e-14
1e-14
1e-14
1e-14
1.00001e-14
1.00001e-14
1.00001e-14
1e-14
1e-14
1e-14
1e-14
1e-14
1e-14
1.00001e-14
1.00001e-14
1e-14
1.00003e-14
1e-14
1e-14
1e-14
1e-14
1.00001e-14
1e-14
1e-14
1.00003e-14
1e-14
1.00001e-14
1.00002e-14
1e-14
1e-14
1e-14
1.00006e-14
1e-14
1e-14
1.00001e-14
1e-14
1e-14
1e-14
4.93977e-14
8.23855e-13
5.58559e-14
8.79518e-13
6.92959e-14
9.26923e-13
9.60034e-14
1.69231e-13
2.12317e-14
1.18834e-14
1.7409e-13
2.06374e-14
1.1709e-13
1.01146e-14
9.53871e-14
2.15824e-13
1.9114e-12
4.16888e-14
5.53457e-13
1.51261e-13
1.08295e-14
3.14568e-14
1.88602e-14
1.28768e-13
1.14372e-14
6.3108e-13
2.69568e-14
2.50036e-13
2.57195e-13
1.64889e-12
1.15924e-14
7.289e-14
3.90168e-14
6.85512e-13
1e-14
2.37996e-13
1.73172e-12
1.32512e-12
2.15498e-13
1.41311e-12
1.40997e-12
1.15903e-14
3.89985e-14
7.28767e-14
6.85593e-13
2.37768e-13
1.32434e-12
1.73156e-12
1.08293e-14
1.88548e-14
3.14546e-14
1.28755e-13
2.6946e-14
2.57147e-13
2.50022e-13
1e-14
2.06356e-14
1.01148e-14
1.17082e-13
9.53837e-14
4.16869e-14
1.51255e-13
5.53448e-13
1.14379e-14
6.31065e-13
1.64889e-12
4.93899e-14
5.57905e-14
8.24187e-13
8.7942e-13
6.9264e-14
9.60142e-14
9.26835e-13
1.69238e-13
2.12308e-14
1.18831e-14
1.74097e-13
2.15816e-13
1.91141e-12
5.19792e-13
2.91396e-14
5.36411e-13
4.574e-14
8.0872e-13
5.17708e-14
8.64006e-13
5.70368e-13
2.61425e-14
6.38432e-14
9.11483e-13
8.72974e-14
1e-14
1.54122e-13
1.86917e-14
1e-14
1.20922e-14
1.63004e-13
8.9783e-14
1.01828e-14
1e-14
1.77618e-14
1.06902e-13
1.01154e-14
8.81183e-14
1.60256e-12
2.07915e-13
1.89518e-12
3.55366e-13
6.38871e-14
3.87329e-14
5.47424e-13
1.42977e-13
1.05096e-14
1e-14
9.07599e-14
1.0516e-14
2.81027e-14
1.74042e-14
1.18488e-13
1e-14
1.26581e-14
6.40485e-13
1e-14
1.05484e-13
2.55553e-14
2.3764e-13
2.40633e-13
1.6395e-12
3.47494e-14
1.17643e-14
4.17977e-13
1.08867e-14
6.86777e-14
3.46542e-14
6.70978e-13
1e-14
1.15991e-12
1e-14
2.20419e-13
1.70607e-12
1.3659e-12
1.11135e-13
1.12531e-13
1.98268e-13
1.4465e-12
1.44289e-12
1.17814e-14
3.4746e-14
4.17984e-13
1.08845e-14
3.46257e-14
6.86682e-14
6.71024e-13
1e-14
1.16009e-12
2.20214e-13
1.36501e-12
1.70594e-12
1e-14
1.05099e-14
9.07537e-14
1.05159e-14
1.74023e-14
2.81015e-14
1.18479e-13
1.05513e-13
1e-14
2.55592e-14
2.40612e-13
2.37645e-13
1e-14
1.01826e-14
8.97808e-14
1e-14
1.77601e-14
1.01154e-14
1.06895e-13
8.81135e-14
6.3884e-14
3.55371e-13
3.87313e-14
1.42971e-13
5.47423e-13
1e-14
1.26577e-14
6.40491e-13
1.6395e-12
2.91177e-14
5.20149e-13
5.36604e-13
4.57357e-14
5.17135e-14
8.09063e-13
8.63936e-13
2.614e-14
5.7052e-13
6.38161e-14
8.73103e-14
9.11415e-13
1e-14
1.54128e-13
1.8691e-14
1e-14
1.20913e-14
1.63009e-13
1.60255e-12
2.07913e-13
1.89522e-12
5.19507e-13
2.86968e-14
5.3681e-13
4.5211e-14
8.0753e-13
5.12195e-14
8.62481e-13
5.72909e-13
2.47597e-14
6.3182e-14
9.10491e-13
8.58334e-14
1e-14
1.52311e-13
1.84149e-14
1e-14
1.19853e-14
1.6287e-13
8.7103e-14
1.03164e-14
1e-14
1.72269e-14
1.05394e-13
1.00688e-14
8.58868e-14
1.58995e-12
2.08758e-13
1.89625e-12
3.57417e-13
6.22507e-14
3.82803e-14
5.47605e-13
1.42682e-13
1.01497e-14
1e-14
8.98701e-14
1.04679e-14
2.81754e-14
1.69348e-14
1.1888e-13
1e-14
1.3605e-14
6.35825e-13
1e-14
1.09071e-13
2.52345e-14
2.41735e-13
2.40642e-13
1.63985e-12
3.38341e-14
1.10389e-14
4.21326e-13
1.0914e-14
6.931e-14
3.37915e-14
6.70825e-13
1e-14
1.16356e-12
3.06579e-14
2.18773e-13
1.70914e-12
1.35219e-12
1.54706e-13
1.56085e-13
1.97468e-13
1.43336e-12
1.42986e-12
1.10528e-14
3.38311e-14
4.21322e-13
1.09116e-14
3.37632e-14
6.93019e-14
6.70864e-13
3.24804e-14
1.16369e-12
2.18577e-13
1.35138e-12
1.70902e-12
1e-14
1.01501e-14
8.98659e-14
1.04677e-14
1.69329e-14
2.81741e-14
1.18872e-13
1.0907e-13
1e-14
2.52356e-14
2.40624e-13
2.41741e-13
1e-14
1.03162e-14
8.71021e-14
1e-14
1.72254e-14
1.00688e-14
1.05388e-13
8.58863e-14
6.22481e-14
3.57426e-13
3.8279e-14
1.42677e-13
5.47597e-13
1e-14
1.36043e-14
6.35833e-13
1.63988e-12
2.8678e-14
5.1986e-13
5.37003e-13
4.52096e-14
5.11755e-14
8.07866e-13
8.62447e-13
2.47582e-14
5.73048e-13
6.31629e-14
8.5851e-14
9.10455e-13
1e-14
1.52315e-13
1.84144e-14
1e-14
1.19848e-14
1.62876e-13
1.58996e-12
2.08757e-13
1.89623e-12
5.20163e-13
2.88066e-14
5.37318e-13
4.53093e-14
8.0741e-13
5.13478e-14
8.6239e-13
5.73878e-13
2.4559e-14
6.33584e-14
9.10587e-13
8.59092e-14
1e-14
1.52709e-13
1.83758e-14
1e-14
1.19469e-14
1.62709e-13
8.722e-14
1.03378e-14
1e-14
1.7171e-14
1.05526e-13
1.00561e-14
8.53364e-14
1.58487e-12
2.08987e-13
1.89667e-12
3.57681e-13
6.26846e-14
3.84024e-14
5.48182e-13
1.43135e-13
1.01665e-14
1e-14
9.06295e-14
1.04522e-14
2.83512e-14
1.68455e-14
1.19419e-13
1e-14
1.37373e-14
6.33766e-13
1e-14
1.10943e-13
2.52237e-14
2.43958e-13
2.40982e-13
1.63986e-12
3.39792e-14
1.07814e-14
4.22121e-13
1.09123e-14
6.9574e-14
3.37303e-14
6.70948e-13
1e-14
1.16256e-12
3.30513e-14
2.18832e-13
1.70954e-12
1.34906e-12
1.57658e-13
1.59054e-13
1.97617e-13
1.43015e-12
1.42664e-12
1.07955e-14
3.39771e-14
4.22109e-13
1.09098e-14
3.37021e-14
6.95662e-14
6.70983e-13
3.48777e-14
1.16269e-12
2.18636e-13
1.34823e-12
1.70941e-12
1e-14
1.01665e-14
9.06263e-14
1.0452e-14
1.68439e-14
2.83501e-14
1.19414e-13
1.10944e-13
1e-14
2.52235e-14
2.40968e-13
2.43966e-13
1e-14
1.03375e-14
8.72196e-14
1e-14
1.71693e-14
1.0056e-14
1.05519e-13
8.5335e-14
6.2682e-14
3.57687e-13
3.84012e-14
1.43131e-13
5.48179e-13
1e-14
1.37376e-14
6.33771e-13
1.63984e-12
2.87885e-14
5.2051e-13
5.37532e-13
4.5317e-14
5.13412e-14
8.07774e-13
8.62442e-13
2.45603e-14
5.7402e-13
6.33618e-14
8.59367e-14
9.10614e-13
1e-14
1.5271e-13
1.83759e-14
1e-14
1.19469e-14
1.62713e-13
1.58489e-12
2.08986e-13
1.89667e-12
5.19844e-13
2.87764e-14
5.37002e-13
4.54575e-14
8.07522e-13
5.15549e-14
8.62658e-13
5.73558e-13
2.42284e-14
6.36974e-14
9.10762e-13
8.64216e-14
1e-14
1.53498e-13
1.83626e-14
1e-14
1.19661e-14
1.62363e-13
8.74578e-14
1.03246e-14
1e-14
1.7142e-14
1.05785e-13
1.00444e-14
8.45659e-14
1.58344e-12
2.08869e-13
1.89677e-12
3.57784e-13
6.25481e-14
3.8526e-14
5.49137e-13
1.43415e-13
1.02298e-14
1e-14
9.08326e-14
1.04316e-14
2.84677e-14
1.67491e-14
1.19567e-13
1e-14
1.38559e-14
6.32144e-13
1e-14
1.11099e-13
2.52314e-14
2.45983e-13
2.40745e-13
1.64058e-12
3.40503e-14
1.0743e-14
4.22414e-13
1.08991e-14
6.9597e-14
3.37165e-14
6.70937e-13
1e-14