/*--------------------------------*- C++ -*----------------------------------*\
| =========                 |                                                 |
| \\      /  F ield         | OpenFOAM: The Open Source CFD Toolbox           |
|  \\    /   O peration     | Version:  2.1.1                                 |
|   \\  /    A nd           | Web:      www.OpenFOAM.org                      |
|    \\/     M anipulation  |                                                 |
\*---------------------------------------------------------------------------*/
FoamFile
{
    version     2.0;
    format      ascii;
    class       volVectorField;
    location    "0.005";
    object      U;
}
// * * * * * * * * * * * * * * * * * * * * * * * * * * * * * * * * * * * * * //

dimensions      [0 1 -1 0 0 0 0];

internalField   nonuniform List<vector> 
10314
(
(-2.15138e-05 -2.14789e-05 0.116088)
(-6.75307e-05 -2.13022e-05 0.116093)
(-0.000117409 -2.15302e-05 0.116118)
(-0.000171712 -2.07887e-05 0.116175)
(-0.000240982 -1.93559e-05 0.11627)
(-0.000315632 -1.75292e-05 0.116411)
(-0.000417569 -1.4283e-05 0.116596)
(-0.000508521 -8.65805e-06 0.116872)
(-0.000654219 -6.33114e-07 0.117176)
(-0.000747455 3.8876e-06 0.117584)
(-0.00101316 1.07557e-05 0.117781)
(-0.0010014 1.33022e-05 0.119499)
(-0.00110684 0.000166934 0.122425)
(-0.000325618 -0.000129378 0.0986326)
(0.00365996 0.000647249 0.0251579)
(-2.13224e-05 -6.75303e-05 0.116093)
(-6.6154e-05 -6.61459e-05 0.116104)
(-0.000115843 -6.84098e-05 0.116136)
(-0.000169999 -6.58936e-05 0.116193)
(-0.000237949 -7.2271e-05 0.11629)
(-0.000310208 -6.44733e-05 0.116428)
(-0.000408741 -8.39819e-05 0.116614)
(-0.000495676 -5.8246e-05 0.116878)
(-0.000642922 -0.000124662 0.117169)
(-0.000739187 -3.93933e-05 0.117566)
(-0.00102394 -0.000279413 0.11812)
(-0.000918688 6.81985e-05 0.120921)
(-0.00105539 -0.000262107 0.119672)
(-0.00013741 0.000639676 0.0786895)
(0.00345843 0.00210275 0.0256456)
(-2.15856e-05 -0.000117449 0.116119)
(-6.84111e-05 -0.000115878 0.116137)
(-0.000117176 -0.000117132 0.116178)
(-0.000175601 -0.000113868 0.11624)
(-0.000239568 -0.000115535 0.116345)
(-0.000327224 -0.000107999 0.116486)
(-0.000411331 -0.000115885 0.116695)
(-0.000551502 -8.91195e-05 0.116955)
(-0.000639907 -0.000120967 0.117319)
(-0.000898609 -2.74938e-05 0.117725)
(-0.000917532 -0.000213536 0.118876)
(-0.00112317 0.000148182 0.119777)
(0.000146993 -9.1397e-06 0.0952476)
(-0.00160565 -0.00173574 0.0337426)
(0.00649908 0.00627929 0.0182866)
(-2.08563e-05 -0.000171813 0.116175)
(-6.5825e-05 -0.000170115 0.116195)
(-0.000113843 -0.000175704 0.116241)
(-0.000168422 -0.000168612 0.116302)
(-0.000232019 -0.000172907 0.11641)
(-0.000310244 -0.00015807 0.116541)
(-0.000390133 -0.00016264 0.116745)
(-0.000505106 -0.00012626 0.116982)
(-0.00058432 -0.000119218 0.117304)
(-0.000795762 -4.65971e-05 0.117596)
(-0.000821139 -4.7326e-05 0.118813)
(-0.00102917 -7.52605e-05 0.120728)
(0.000155574 0.00025712 0.0959828)
(0.00209518 0.00133531 0.027177)
(5.31496e-05 -0.000156607 0.00415945)
(-1.95312e-05 -0.000241024 0.11627)
(-7.22631e-05 -0.000238141 0.11629)
(-0.000115656 -0.000239643 0.116346)
(-0.000172818 -0.000232298 0.11641)
(-0.00022888 -0.000229051 0.116527)
(-0.000316505 -0.000225442 0.116658)
(-0.000380515 -0.000210377 0.116877)
(-0.000515886 -0.00020509 0.117109)
(-0.000567189 -0.0001555 0.117428)
(-0.000776779 -0.000140673 0.117623)
(-0.000842097 -0.000105812 0.119195)
(-0.000998524 -0.000107169 0.12193)
(-6.85427e-05 9.58693e-05 0.0973369)
(0.00296406 -0.00181743 0.0304594)
(0.000252238 -0.00065589 0.00586469)
(-1.77981e-05 -0.000315786 0.116411)
(-6.44391e-05 -0.000310403 0.116428)
(-0.000108053 -0.000327495 0.116486)
(-0.000157986 -0.000310599 0.116542)
(-0.000225167 -0.000316941 0.116658)
(-0.000291494 -0.000292245 0.116787)
(-0.00037214 -0.000284055 0.117006)
(-0.000458927 -0.000231269 0.117211)
(-0.000521904 -0.000211929 0.117429)
(-0.000694719 -0.000164401 0.117838)
(-0.000706771 -1.62849e-05 0.120284)
(-0.000935374 -0.000200667 0.119301)
(-9.81899e-05 0.000661443 0.080419)
(0.00330089 0.00103132 0.0276815)
(-1.47129e-05 -0.000417503 0.116596)
(-8.40899e-05 -0.000409261 0.116615)
(-0.000116165 -0.00041155 0.116695)
(-0.000162722 -0.000390728 0.116745)
(-0.000210611 -0.000380886 0.116877)
(-0.000283623 -0.00037307 0.117006)
(-0.000321479 -0.000322222 0.117227)
(-0.000444551 -0.000350159 0.117346)
(-0.00048279 -0.000236222 0.117648)
(-0.00055921 -0.000404915 0.11893)
(-0.000889356 -8.77997e-05 0.120179)
(0.000364711 -4.60825e-05 0.0940954)
(-0.0024168 -0.00210564 0.0351927)
(0.000739617 0.000582024 -0.00304738)
(-9.40381e-06 -0.000508675 0.116872)
(-5.84938e-05 -0.00049609 0.116878)
(-8.92492e-05 -0.000552119 0.116955)
(-0.000126341 -0.000505785 0.116983)
(-0.000205173 -0.000516641 0.117109)
(-0.000230868 -0.000460074 0.117211)
(-0.000349156 -0.000446227 0.117346)
(-0.000362411 -0.000364716 0.117514)
(-0.000551183 -0.000520342 0.118695)
(-0.00058986 -0.000112591 0.121717)
(-0.000536117 -0.000611194 0.118724)
(-2.1008e-05 0.000488776 0.0811147)
(0.00275361 0.000540908 0.0253618)
(0.000495536 0.000193379 0.00363878)
(-1.43622e-06 -0.000653492 0.117177)
(-0.000125226 -0.000644196 0.117169)
(-0.000121511 -0.00064067 0.117319)
(-0.000119451 -0.000585736 0.117304)
(-0.000156227 -0.000568127 0.117429)
(-0.000212337 -0.000523326 0.117431)
(-0.000236454 -0.000484411 0.11765)
(-0.000518823 -0.000554101 0.1187)
(-0.000250603 -0.000252656 0.12174)
(-0.00062763 -0.000529259 0.116789)
(0.000379416 0.000471012 0.0761154)
(-0.00421838 -0.00267038 0.0396858)
(-0.00144269 -0.000502849 -0.000742483)
(2.97958e-06 -0.00074715 0.117584)
(-4.11154e-05 -0.000740057 0.117566)
(-2.77521e-05 -0.000899743 0.117724)
(-4.68456e-05 -0.000796841 0.117596)
(-0.000140735 -0.000778371 0.117623)
(-0.000164562 -0.000696352 0.11784)
(-0.000405498 -0.000561448 0.118934)
(-0.000112011 -0.000592517 0.121724)
(-0.000527272 -0.000630951 0.116796)
(0.000267328 0.000266316 0.0753487)
(-0.000762326 -0.000555471 0.0349139)
(0.00491267 0.00591728 0.0165699)
(9.67704e-06 -0.00101182 0.11778)
(-0.000281437 -0.00102636 0.118119)
(-0.000214287 -0.000918898 0.118874)
(-4.80419e-05 -0.000822563 0.118813)
(-0.000107048 -0.00084376 0.119196)
(-1.72704e-05 -0.00070821 0.120287)
(-8.93129e-05 -0.000891249 0.120186)
(-0.000611412 -0.000538789 0.118741)
(0.000472215 0.000376772 0.076138)
(-0.000556299 -0.000761171 0.0349262)
(0.0044905 0.00449048 0.0164749)
(1.22298e-05 -0.00100057 0.119495)
(6.36555e-05 -0.000920293 0.120919)
(0.000148911 -0.00112438 0.119773)
(-7.59316e-05 -0.0010299 0.120728)
(-0.000107346 -0.000999023 0.12193)
(-0.000200936 -0.000935957 0.119304)
(-4.75446e-05 0.000364338 0.0941008)
(0.000488652 -2.27968e-05 0.0811217)
(-0.00266846 -0.00421709 0.0396878)
(0.00591795 0.00491215 0.016576)
(0.000165145 -0.00110555 0.122419)
(-0.000266046 -0.001059 0.119666)
(-9.61978e-06 0.000145761 0.0952454)
(0.000256957 0.000155318 0.0959835)
(9.47067e-05 -6.887e-05 0.0973376)
(0.000662462 -9.80574e-05 0.0804202)
(-0.00210658 -0.00241665 0.0351902)
(0.000539015 0.0027543 0.0253571)
(-0.000501109 -0.00144233 -0.000742799)
(-0.000131687 -0.000325548 0.098622)
(0.000635989 -0.000137933 0.0786798)
(-0.00173403 -0.00160675 0.0337407)
(0.001337 0.00209445 0.0271757)
(-0.00181693 0.00296382 0.0304585)
(0.00103122 0.00330083 0.0276811)
(0.000581979 0.00073974 -0.00304735)
(0.000193028 0.000495844 0.00363839)
(0.000646041 0.00365995 0.025153)
(0.00210388 0.00345718 0.0256372)
(0.00627939 0.0064993 0.0182863)
(-0.000156513 5.30322e-05 0.00415913)
(-0.000656028 0.000252165 0.00586441)
(-4.97567e-06 -4.9105e-06 0.116129)
(-1.47005e-05 -5.05308e-06 0.116136)
(-2.75355e-05 -5.18267e-06 0.116166)
(-3.95878e-05 -5.52021e-06 0.116226)
(-5.78382e-05 -4.59955e-06 0.116328)
(-7.60539e-05 -5.21073e-06 0.116474)
(-0.000102689 -3.01225e-06 0.11667)
(-0.000122786 -3.48165e-06 0.116947)
(-0.000151044 2.29898e-06 0.117271)
(-0.000150828 1.08337e-06 0.117692)
(-0.000226736 4.79055e-07 0.117993)
(-0.000215746 -2.09882e-05 0.119668)
(-0.000443523 2.75057e-05 0.122497)
(0.000148859 -0.000295034 0.0986375)
(0.00274685 0.00058107 0.0277521)
(-5.0674e-06 -1.46973e-05 0.116137)
(-1.43585e-05 -1.43905e-05 0.116149)
(-2.72223e-05 -1.58142e-05 0.116184)
(-3.91851e-05 -1.46703e-05 0.116245)
(-5.75892e-05 -1.85e-05 0.116348)
(-7.42017e-05 -1.42811e-05 0.116492)
(-0.000100684 -2.56807e-05 0.116688)
(-0.000117397 -1.08788e-05 0.116956)
(-0.000146424 -4.8398e-05 0.117271)
(-0.000152896 7.95939e-06 0.117688)
(-0.000259452 -0.000141284 0.118339)
(-0.000247919 9.72791e-05 0.120997)
(-0.00060283 -0.000319599 0.119849)
(0.000283456 0.00064877 0.0788109)
(0.0025037 0.00193919 0.0282416)
(-5.25598e-06 -2.75194e-05 0.116167)
(-1.58187e-05 -2.72578e-05 0.116185)
(-2.78262e-05 -2.77924e-05 0.11623)
(-4.22949e-05 -2.80084e-05 0.116294)
(-5.7504e-05 -2.87069e-05 0.116406)
(-8.31954e-05 -2.83247e-05 0.116551)
(-9.88116e-05 -3.27002e-05 0.11677)
(-0.000145467 -2.57303e-05 0.117032)
(-0.000134921 -4.57294e-05 0.117415)
(-0.000247187 5.07317e-06 0.117838)
(-0.000160479 -0.000100188 0.118999)
(-0.000547546 0.000175548 0.119703)
(0.00051498 -9.78187e-05 0.0953235)
(-0.00192344 -0.00237426 0.0376962)
(0.0057849 0.00570469 0.0201645)
(-5.58303e-06 -3.96533e-05 0.116227)
(-1.46235e-05 -3.92729e-05 0.116246)
(-2.79761e-05 -4.2373e-05 0.116295)
(-4.01281e-05 -4.02704e-05 0.116359)
(-5.79592e-05 -4.37365e-05 0.116472)
(-7.79728e-05 -3.78835e-05 0.116609)
(-9.72882e-05 -4.42785e-05 0.116819)
(-0.000131379 -3.22405e-05 0.117059)
(-0.000122664 -3.68231e-05 0.117395)
(-0.00021035 -6.50052e-06 0.117726)
(-0.000118086 1.78733e-05 0.118963)
(-0.000513523 -5.0535e-05 0.120648)
(0.000575958 0.000204638 0.0960341)
(0.00170448 0.00106973 0.0296976)
(-5.2178e-05 -9.94615e-05 0.00456535)
(-4.75095e-06 -5.7853e-05 0.116328)
(-1.85112e-05 -5.7741e-05 0.116348)
(-2.87974e-05 -5.75668e-05 0.116407)
(-4.36653e-05 -5.81817e-05 0.116473)
(-5.50947e-05 -5.52112e-05 0.116597)
(-8.32193e-05 -6.09808e-05 0.116731)
(-9.20109e-05 -5.20352e-05 0.116956)
(-0.000140451 -6.81169e-05 0.117183)
(-0.00012152 -3.69282e-05 0.117512)
(-0.00019303 -6.01084e-05 0.117751)
(-0.000158621 -1.79109e-05 0.119359)
(-0.000435665 -0.000111385 0.121899)
(0.000338229 3.14707e-05 0.0973528)
(0.00225031 -0.00186782 0.0330332)
(0.000108133 -0.0006306 0.00614471)
(-5.43533e-06 -7.61942e-05 0.116475)
(-1.42808e-05 -7.43588e-05 0.116492)
(-2.83592e-05 -8.34475e-05 0.116551)
(-3.77967e-05 -7.8265e-05 0.116609)
(-6.0758e-05 -8.35358e-05 0.116731)
(-7.43037e-05 -7.48098e-05 0.116861)
(-0.000104047 -8.01724e-05 0.11708)
(-0.000120644 -5.50257e-05 0.117278)
(-0.000127464 -5.65929e-05 0.117513)
(-0.000195199 -3.76388e-05 0.117987)
(-0.000152328 5.7621e-05 0.120487)
(-0.000558544 -0.000280978 0.119415)
(0.000183578 0.000594397 0.0805815)
(0.00242276 0.000537033 0.0301374)
(-3.36894e-06 -0.000102615 0.116671)
(-2.58016e-05 -0.000101147 0.116689)
(-3.29259e-05 -9.9137e-05 0.11677)
(-4.42745e-05 -9.78413e-05 0.11682)
(-5.21362e-05 -9.23823e-05 0.116956)
(-7.98605e-05 -0.000104744 0.11708)
(-7.31094e-05 -7.37226e-05 0.117298)
(-0.000120826 -0.000109913 0.117423)
(-0.000107423 -1.14166e-06 0.117753)
(-9.46711e-05 -0.000165183 0.119113)
(-0.000442548 0.000108775 0.120239)
(0.000670289 -0.000108251 0.0941181)
(-0.00309499 -0.00256027 0.039318)
(1.73798e-05 -3.58617e-05 -0.0014185)
(-4.07063e-06 -0.000122936 0.116947)
(-1.1274e-05 -0.000117715 0.116957)
(-2.58537e-05 -0.000146067 0.117032)
(-3.2204e-05 -0.000132049 0.11706)
(-6.8062e-05 -0.000141171 0.117183)
(-5.47842e-05 -0.000121373 0.117278)
(-0.000109197 -0.000122046 0.117423)
(-4.67456e-05 -4.80918e-05 0.117612)
(-0.000177006 -0.000195023 0.118866)
(-0.000135698 0.000188181 0.121854)
(-0.000320556 -0.000626818 0.118703)
(9.40822e-05 0.000604698 0.0813145)
(0.00203975 -8.3124e-05 0.0281389)
(0.000550787 0.000143717 0.00356973)
(1.61384e-06 -0.000150561 0.117271)
(-4.89629e-05 -0.000147418 0.117271)
(-4.63058e-05 -0.000135566 0.117415)
(-3.69487e-05 -0.000123886 0.117396)
(-3.71295e-05 -0.000122385 0.117513)
(-5.6778e-05 -0.000128695 0.117515)
(-9.68021e-07 -0.000108744 0.117756)
(-0.000193666 -0.000180244 0.11887)
(0.000138357 0.000136447 0.121886)
(-0.000409734 -0.000411712 0.116877)
(0.000643695 0.000598126 0.0761692)
(-0.0051023 -0.0034123 0.0438942)
(-0.0021791 -0.00108705 0.000994326)
(2.57851e-07 -0.00015055 0.117692)
(6.45497e-06 -0.000153582 0.117688)
(4.73737e-06 -0.000248268 0.117838)
(-6.67233e-06 -0.000211215 0.117726)
(-6.0066e-05 -0.000194255 0.117752)
(-3.77873e-05 -0.000196669 0.117989)
(-0.000166256 -9.63655e-05 0.119117)
(0.000188885 -0.000138353 0.121862)
(-0.000408881 -0.000413218 0.116883)
(0.000457088 0.000456757 0.0753618)
(-0.00120612 -0.00109073 0.0387671)
(0.00442287 0.00541439 0.0182153)
(-4.72433e-07 -0.000225936 0.117992)
(-0.000143185 -0.000261468 0.118338)
(-0.000100912 -0.000162161 0.118998)
(1.76248e-05 -0.000119392 0.118963)
(-1.8692e-05 -0.000160114 0.11936)
(5.70129e-05 -0.000153554 0.12049)
(0.000107803 -0.000444049 0.120246)
(-0.000627661 -0.000321699 0.118718)
(0.000599175 0.000641936 0.0761918)
(-0.00109148 -0.00120399 0.0387813)
(0.00406125 0.00406464 0.0182206)
(-2.1716e-05 -0.000215741 0.119664)
(9.3253e-05 -0.000249415 0.120995)
(0.000175913 -0.000548809 0.1197)
(-5.05493e-05 -0.00051427 0.120647)
(-0.000111322 -0.000436415 0.1219)
(-0.000281239 -0.000559278 0.119417)
(-0.00010932 0.000670035 0.0941236)
(0.000604763 9.39395e-05 0.081321)
(-0.00340908 -0.00510068 0.0438966)
(0.00541417 0.00442116 0.0182211)
(2.50496e-05 -0.000444153 0.122491)
(-0.00032281 -0.000607254 0.119842)
(-9.86391e-05 0.00051369 0.0953224)
(0.000204614 0.000575849 0.0960341)
(3.06181e-05 0.000338017 0.0973533)
(0.00059476 0.000183646 0.0805829)
(-0.00256031 -0.0030947 0.0393169)
(-8.37134e-05 0.00203955 0.0281378)
(-0.00108712 -0.00217875 0.000995007)
(-0.000299924 0.000148139 0.0986269)
(0.000645656 0.000282078 0.0787991)
(-0.00237274 -0.0019244 0.0376951)
(0.00107082 0.00170388 0.0296967)
(-0.00186751 0.00225023 0.0330325)
(0.000536911 0.00242264 0.0301369)
(-3.60842e-05 1.74516e-05 -0.00141843)
(0.000143536 0.000550934 0.00356964)
(0.000579497 0.00274619 0.0277458)
(0.00193963 0.00250243 0.028234)
(0.00570451 0.00578528 0.0201641)
(-9.94103e-05 -5.2263e-05 0.00456519)
(-0.000630699 0.000108171 0.0061445)
(1.14878e-05 1.15963e-05 0.11612)
(3.86944e-05 1.13464e-05 0.116127)
(6.37548e-05 1.1286e-05 0.116157)
(9.46355e-05 9.88384e-06 0.116216)
(0.000127198 1.01458e-05 0.116317)
(0.000166238 7.0895e-06 0.116462)
(0.000212441 7.86281e-06 0.116658)
(0.000261706 1.68178e-06 0.116926)
(0.000328792 5.02121e-06 0.117244)
(0.000390661 -5.37855e-06 0.117648)
(0.000469043 3.66526e-06 0.117987)
(0.000478236 -3.35869e-05 0.119714)
(0.000306437 5.79357e-05 0.122469)
(0.000114102 -0.000331565 0.0986817)
(0.00257634 0.000565458 0.0285282)
(1.13264e-05 3.87005e-05 0.116128)
(3.84167e-05 3.83457e-05 0.116139)
(6.27959e-05 3.80329e-05 0.116174)
(9.3609e-05 3.74597e-05 0.116235)
(0.000124541 3.6133e-05 0.116337)
(0.000164042 3.6207e-05 0.116479)
(0.000207221 3.25383e-05 0.116675)
(0.000259116 3.5263e-05 0.116935)
(0.00032259 2.42801e-05 0.117248)
(0.000392505 4.12948e-05 0.117653)
(0.000439824 -1.19673e-05 0.118361)
(0.000496592 0.000109362 0.121008)
(0.000107346 -5.95574e-05 0.119843)
(0.000315281 0.000430318 0.078941)
(0.00235015 0.00189078 0.0288863)
(1.11988e-05 6.38185e-05 0.116158)
(3.80272e-05 6.27652e-05 0.116176)
(6.28678e-05 6.29081e-05 0.11622)
(9.27391e-05 5.87772e-05 0.116284)
(0.0001259 5.87e-05 0.116396)
(0.000162542 5.14784e-05 0.116538)
(0.000211665 4.98423e-05 0.116757)
(0.000254535 3.73986e-05 0.11701)
(0.00033669 2.43195e-05 0.117396)
(0.000357609 1.77988e-05 0.117803)
(0.000513993 -4.38999e-05 0.119032)
(0.000239644 0.000112566 0.11961)
(0.000730025 4.39855e-05 0.0954659)
(-0.00186894 -0.00258382 0.0384528)
(0.00565592 0.00567166 0.0206009)
(9.83507e-06 9.45978e-05 0.116217)
(3.75076e-05 9.35343e-05 0.116236)
(5.88097e-05 9.26859e-05 0.116285)
(8.93978e-05 8.92827e-05 0.116348)
(0.000117154 8.65527e-05 0.116461)
(0.000155092 8.25921e-05 0.116596)
(0.000193622 7.46285e-05 0.116806)
(0.000235119 6.49126e-05 0.117037)
(0.000302775 4.58974e-05 0.117371)
(0.000316804 1.82841e-05 0.117693)
(0.000448593 1.37723e-05 0.119003)
(0.000121162 -0.000115324 0.120552)
(0.000630983 0.000132542 0.0961222)
(0.00166673 0.000922509 0.0303634)
(-9.63157e-05 -9.4125e-05 0.00464642)
(1.00116e-05 0.000127217 0.116318)
(3.61148e-05 0.000124424 0.116338)
(5.86214e-05 0.000125858 0.116397)
(8.66033e-05 0.000116976 0.116461)
(0.000119121 0.00011904 0.116587)
(0.000150631 0.000103458 0.116719)
(0.000195025 0.000107803 0.116946)
(0.000227695 7.29334e-05 0.117161)
(0.000287972 8.3113e-05 0.117486)
(0.000319913 1.05862e-05 0.117715)
(0.00036887 2.13348e-05 0.119408)
(0.00016554 -7.70158e-05 0.121845)
(0.000279349 -1.59441e-05 0.0974442)
(0.00213479 -0.00192917 0.0336787)
(6.91138e-05 -0.000628303 0.00622921)
(6.89732e-06 0.000166126 0.116462)
(3.61973e-05 0.000163925 0.116479)
(5.14522e-05 0.000162367 0.116539)
(8.26701e-05 0.000154862 0.116596)
(0.000103638 0.000150403 0.116719)
(0.000144065 0.000143715 0.11685)
(0.000164255 0.000125699 0.117068)
(0.000211911 0.000123365 0.117256)
(0.000237876 8.0523e-05 0.117485)
(0.000245973 6.60772e-05 0.117964)
(0.00032797 5.85671e-05 0.120543)
(-0.000114115 -0.000195856 0.119412)
(0.000114768 0.000276052 0.0806469)
(0.00231178 0.000405976 0.0306988)
(7.53341e-06 0.00021246 0.116659)
(3.24594e-05 0.000206885 0.116675)
(4.96512e-05 0.000211454 0.116758)
(7.46283e-05 0.000193155 0.116806)
(0.000107768 0.000194675 0.116946)
(0.000125928 0.000163648 0.117068)
(0.000175067 0.000174516 0.117282)
(0.000182345 0.000112602 0.117399)
(0.000228546 0.000187048 0.117728)
(0.000268244 -2.18772e-06 0.119125)
(2.16713e-07 0.000215231 0.120224)
(0.000702796 3.12327e-05 0.09413)
(-0.00304255 -0.00272457 0.0400399)
(-0.00013168 -9.93663e-05 -0.00120947)
(1.16774e-06 0.000261544 0.116927)
(3.50278e-05 0.000258857 0.116936)
(3.72434e-05 0.000254203 0.11701)
(6.48566e-05 0.000234617 0.117038)
(7.29699e-05 0.000227105 0.117162)
(0.000123491 0.000211213 0.117256)
(0.000113187 0.000181481 0.117399)
(0.00022375 0.000222921 0.117592)
(0.0001151 4.74601e-05 0.118873)
(0.000188948 0.000370873 0.121898)
(-1.66774e-05 -0.000538228 0.11864)
(-1.85735e-05 0.000450806 0.0813706)
(0.00200475 -0.000201922 0.0286999)
(0.000583821 0.000163606 0.00355422)
(4.34143e-06 0.000328967 0.117244)
(2.40344e-05 0.000321858 0.117249)
(2.38838e-05 0.000336244 0.117396)
(4.56372e-05 0.00030179 0.117373)
(8.2858e-05 0.000287168 0.117488)
(8.04417e-05 0.000236849 0.117487)
(0.000187497 0.000227618 0.117731)
(4.84476e-05 0.000113345 0.118877)
(0.000382824 0.000381076 0.121926)
(-0.000199425 -0.000290369 0.11682)
(0.000650597 0.000499872 0.0762551)
(-0.00515587 -0.00359799 0.0445425)
(-0.00230839 -0.00120113 0.00123831)
(-6.30528e-06 0.000390933 0.117647)
(4.04517e-05 0.000392027 0.117653)
(1.73939e-05 0.000356559 0.117804)
(1.78754e-05 0.000315963 0.117694)
(1.05659e-05 0.000318889 0.117716)
(6.60729e-05 0.000245014 0.117967)
(-2.17824e-06 0.00026709 0.119129)
(0.000371268 0.000187312 0.121906)
(-0.000288495 -0.000201853 0.116826)
(0.000402435 0.0004023 0.0754577)
(-0.00130108 -0.00123666 0.039395)
(0.00434297 0.0053596 0.0186142)
(2.52225e-06 0.000469404 0.117987)
(-1.34987e-05 0.000438821 0.11836)
(-4.4659e-05 0.000511704 0.119032)
(1.35725e-05 0.000447385 0.119003)
(2.0975e-05 0.00036757 0.119409)
(5.83755e-05 0.000326914 0.120547)
(0.000215108 -8.86384e-07 0.120232)
(-0.000538595 -1.7955e-05 0.118654)
(0.000500516 0.000649608 0.0762771)
(-0.00123738 -0.00129924 0.0394094)
(0.00399559 0.00399937 0.018627)
(-3.48202e-05 0.000477895 0.119711)
(0.000105913 0.000494943 0.121006)
(0.000112014 0.00023806 0.119609)
(-0.000114679 0.000120498 0.120552)
(-7.68729e-05 0.000164668 0.121846)
(-0.000195753 -0.000114835 0.119414)
(3.08464e-05 0.000702469 0.0941356)
(0.000451056 -1.86265e-05 0.0813764)
(-0.00359471 -0.00515458 0.044545)
(0.00535946 0.00434141 0.01862)
(5.44111e-05 0.000304281 0.122466)
(-6.2346e-05 0.000100397 0.119837)
(4.33553e-05 0.000728181 0.0954649)
(0.000132804 0.000630673 0.0961223)
(-1.63963e-05 0.000279121 0.0974447)
(0.000276364 0.000114852 0.0806482)
(-0.00272444 -0.00304231 0.0400392)
(-0.000202156 0.00200465 0.0286994)
(-0.00120107 -0.00230807 0.00123903)
(-0.000340241 0.00011178 0.0986726)
(0.000427083 0.000312095 0.0789292)
(-0.00258265 -0.00186953 0.0384514)
(0.000923228 0.00166609 0.0303626)
(-0.00192908 0.00213485 0.0336781)
(0.000405822 0.00231172 0.0306984)
(-9.95719e-05 -0.000131673 -0.00120936)
(0.000163413 0.000583974 0.00355417)
(0.000565584 0.00257485 0.0285209)
(0.0018878 0.0023469 0.0288791)
(0.00567062 0.0056556 0.0206004)
(-9.41588e-05 -9.64163e-05 0.00464625)
(-0.000628323 6.90815e-05 0.00622908)
(2.7715e-05 2.78673e-05 0.116059)
(9.09499e-05 2.75401e-05 0.116065)
(0.000152968 2.73817e-05 0.116093)
(0.000226174 2.50067e-05 0.116148)
(0.000308257 2.46504e-05 0.116245)
(0.000403719 1.916e-05 0.116383)
(0.000522017 1.8538e-05 0.116573)
(0.000645419 6.81378e-06 0.116835)
(0.000813893 8.58026e-06 0.117148)
(0.000937453 -1.34448e-05 0.117551)
(0.0011586 5.36593e-06 0.117909)
(0.001133 -4.91946e-05 0.119747)
(0.0011538 0.000118058 0.122562)
(0.000212564 -0.000279953 0.0990042)
(0.00254168 0.000580212 0.0287235)
(2.7516e-05 9.09539e-05 0.116066)
(9.01501e-05 9.00465e-05 0.116076)
(0.0001508 9.09572e-05 0.116109)
(0.000223537 8.86523e-05 0.116166)
(0.00030259 8.99427e-05 0.116263)
(0.000397716 8.59064e-05 0.116399)
(0.000509879 9.10353e-05 0.11659)
(0.000635304 8.18746e-05 0.116843)
(0.000793896 0.000103414 0.117154)
(0.000939328 7.09183e-05 0.117561)
(0.00112917 0.000124347 0.118302)
(0.00122453 7.06972e-05 0.121065)
(0.000991108 0.000324224 0.119961)
(0.000483758 0.00034446 0.0793625)
(0.00231103 0.0019003 0.0290819)
(2.72894e-05 0.00015307 0.116094)
(9.09559e-05 0.000150777 0.11611)
(0.000151579 0.000151637 0.116153)
(0.000225183 0.000143806 0.116213)
(0.000305523 0.000144647 0.11632)
(0.000404752 0.000130229 0.116457)
(0.000517772 0.000132004 0.116673)
(0.000658265 0.000101563 0.11692)
(0.000806209 0.000101264 0.117317)
(0.000971063 3.24381e-05 0.117724)
(0.00115092 8.2891e-06 0.119073)
(0.00110413 -2.80298e-05 0.119694)
(0.00111598 0.000217226 0.0958913)
(-0.00173343 -0.00282667 0.0387297)
(0.00563225 0.00571355 0.0207599)
(2.49752e-05 0.000226162 0.116149)
(8.87142e-05 0.000223463 0.116167)
(0.000143835 0.000225153 0.116214)
(0.000216574 0.000216475 0.116274)
(0.000288999 0.000214905 0.116382)
(0.000384934 0.000201353 0.116512)
(0.000480963 0.000192507 0.116719)
(0.00060551 0.000164024 0.116946)
(0.00072881 0.000136816 0.117288)
(0.000852695 5.78959e-05 0.117604)
(0.000984036 1.06313e-05 0.119005)
(0.000820888 -0.00021092 0.120594)
(0.000831116 2.93964e-05 0.0963546)
(0.00173514 0.000807104 0.0305571)
(-0.000113951 -0.000105489 0.00466926)
(2.45332e-05 0.000308311 0.116245)
(8.99249e-05 0.000302499 0.116264)
(0.000144571 0.000305502 0.116321)
(0.000214935 0.000288849 0.116382)
(0.000290345 0.000290273 0.116504)
(0.000382105 0.000265801 0.116633)
(0.000480265 0.000267371 0.116859)
(0.000603768 0.000219838 0.117071)
(0.000704051 0.000216436 0.117407)
(0.000855588 0.000100242 0.117628)
(0.0008755 6.65905e-05 0.119436)
(0.000846205 -6.45108e-05 0.121904)
(0.000363701 -7.70187e-05 0.0977133)
(0.0021497 -0.00196582 0.033865)
(5.80942e-05 -0.000623156 0.00625579)
(1.90015e-05 0.000403658 0.116383)
(8.58972e-05 0.000397629 0.1164)
(0.000130203 0.000404631 0.116457)
(0.000201406 0.000384758 0.116513)
(0.000265952 0.000381934 0.116632)
(0.00036191 0.000361641 0.116763)
(0.000435152 0.000334814 0.116982)
(0.000556595 0.000314925 0.117171)
(0.000614702 0.000230338 0.117409)
(0.000712288 0.000182754 0.117888)
(0.000791393 2.30369e-05 0.120576)
(0.000397631 -0.000115702 0.119442)
(0.000180557 2.89672e-05 0.0807761)
(0.00229798 0.000360712 0.0308225)
(1.82413e-05 0.000522029 0.116574)
(9.09617e-05 0.000509636 0.11659)
(0.00013184 0.000517632 0.116673)
(0.000192494 0.000480554 0.11672)
(0.00026736 0.000479945 0.116859)
(0.000334988 0.000434608 0.116982)
(0.000434 0.000433417 0.117198)
(0.000501738 0.000356307 0.117317)
(0.000578418 0.000382709 0.117663)
(0.000631866 0.000170853 0.119085)
(0.000430624 0.000267356 0.120285)
(0.000843709 0.000165942 0.0941685)
(-0.00286327 -0.00287455 0.0401646)
(-0.000173803 -8.47384e-05 -0.00120182)
(6.3509e-06 0.000645323 0.116836)
(8.17173e-05 0.00063515 0.116844)
(0.000101375 0.000658029 0.11692)
(0.000163909 0.000605096 0.116947)
(0.000219872 0.000603301 0.117072)
(0.000314935 0.000556044 0.117171)
(0.000356833 0.000501056 0.117317)
(0.000507395 0.000506728 0.117531)
(0.000424654 0.000296103 0.118829)
(0.000508349 0.000519261 0.121943)
(0.000308627 -0.000401074 0.118702)
(5.85486e-06 0.000398515 0.0814469)
(0.00203618 -0.000223049 0.0287692)
(0.000581982 0.000179842 0.0035485)
(7.90044e-06 0.000814087 0.117149)
(0.000103205 0.000793286 0.117155)
(0.000100836 0.000805856 0.117318)
(0.000136574 0.000727924 0.117289)
(0.000216291 0.000703352 0.117409)
(0.000230283 0.000613817 0.117411)
(0.000383144 0.000577556 0.117666)
(0.000296831 0.000423415 0.118832)
(0.00059364 0.000591951 0.121966)
(2.80009e-05 -0.000141561 0.116876)
(0.000715145 0.000469565 0.0763533)
(-0.00510634 -0.00367875 0.0446328)
(-0.00232148 -0.00121765 0.00124093)
(-1.44506e-05 0.0009376 0.117551)
(7.02196e-05 0.000938997 0.117562)
(3.19632e-05 0.000970393 0.117725)
(5.74283e-05 0.000851991 0.117604)
(0.000100269 0.000854755 0.11763)
(0.000182579 0.000711607 0.117891)
(0.000171062 0.000631127 0.119089)
(0.000519398 0.000507525 0.12195)
(-0.000140152 2.66747e-05 0.116882)
(0.000425811 0.000426078 0.0755438)
(-0.00130936 -0.00129649 0.0395003)
(0.00433281 0.00536304 0.0186924)
(4.07746e-06 0.00115886 0.117909)
(0.000123349 0.00112794 0.118302)
(7.51674e-06 0.00114931 0.119074)
(1.02453e-05 0.000983102 0.119005)
(6.64666e-05 0.000874445 0.119438)
(2.30743e-05 0.000790585 0.120579)
(0.000267689 0.000430029 0.120292)
(-0.000400999 0.0003077 0.118716)
(0.000469953 0.000714716 0.0763747)
(-0.00129709 -0.00130769 0.0395149)
(0.00399441 0.00399814 0.0187073)
(-5.13176e-05 0.00113375 0.119746)
(6.82287e-05 0.00122277 0.121063)
(-2.81034e-05 0.00110184 0.119694)
(-0.00021073 0.000820475 0.120593)
(-6.43168e-05 0.000845222 0.121905)
(-0.000115452 0.000396966 0.119445)
(0.000165857 0.000843375 0.0941737)
(0.000398892 5.74147e-06 0.081452)
(-0.00367543 -0.00510522 0.0446353)
(0.00536291 0.00433153 0.0186984)
(0.000114803 0.00115215 0.122561)
(0.000320277 0.00098383 0.119958)
(0.000217065 0.00111336 0.0958907)
(3.02282e-05 0.000830721 0.0963546)
(-7.7334e-05 0.000363439 0.0977139)
(2.94703e-05 0.000180637 0.0807772)
(-0.00287432 -0.00286301 0.0401642)
(-0.000223149 0.00203607 0.0287689)
(-0.00121751 -0.00232125 0.0012418)
(-0.000290295 0.000210375 0.099)
(0.000340388 0.000479296 0.0793543)
(-0.00282563 -0.00173323 0.0387279)
(0.000807452 0.00173451 0.0305563)
(-0.00196588 0.00214971 0.0338644)
(0.000360549 0.00229778 0.0308221)
(-8.48523e-05 -0.000173732 -0.00120169)
(0.000179769 0.000582132 0.0035485)
(0.000584158 0.00254226 0.0287206)
(0.00189317 0.00230399 0.0290759)
(0.00571155 0.00563057 0.0207591)
(-0.000105532 -0.000114049 0.00466905)
(-0.00062315 5.80385e-05 0.00625563)
(4.31829e-05 4.33679e-05 0.115949)
(0.000139988 4.28421e-05 0.115953)
(0.000237247 4.26179e-05 0.115975)
(0.000350861 3.92931e-05 0.116024)
(0.000480547 3.83749e-05 0.116111)
(0.000630983 3.08535e-05 0.116239)
(0.000822221 2.94674e-05 0.116415)
(0.00102522 1.27526e-05 0.116668)
(0.0013159 1.38812e-05 0.116973)
(0.00152678 -1.97226e-05 0.117392)
(0.0019538 9.99776e-06 0.117756)
(0.00191323 -5.52275e-05 0.119757)
(0.0023272 0.000211032 0.122635)
(0.000459541 -4.90725e-05 0.0997037)
(0.00253701 0.000656182 0.0288818)
(4.28158e-05 0.000139986 0.115953)
(0.000138943 0.000138811 0.115962)
(0.000234068 0.000141031 0.11599)
(0.000346745 0.000137218 0.11604)
(0.000472256 0.000141448 0.116128)
(0.000622227 0.000134223 0.116254)
(0.000804314 0.000150294 0.116432)
(0.00100927 0.000131346 0.116678)
(0.00128285 0.000197246 0.116982)
(0.00152804 0.000119377 0.117404)
(0.00193029 0.000344838 0.11816)
(0.00210722 8.71697e-05 0.121103)
(0.00236516 0.00103285 0.120091)
(0.000858545 0.000474378 0.0803871)
(0.00229883 0.00198342 0.0293271)
(4.25327e-05 0.000237387 0.115976)
(0.000141039 0.00023405 0.115991)
(0.000235664 0.000235747 0.116028)
(0.000351303 0.000224842 0.116082)
(0.000477593 0.000227157 0.116181)
(0.000639911 0.00020684 0.116308)
(0.000819196 0.000213768 0.116514)
(0.00107209 0.000166885 0.116759)
(0.00130604 0.000189762 0.117172)
(0.00169207 5.93488e-05 0.117608)
(0.00193241 0.000108562 0.119127)
(0.00234368 -0.000183866 0.119896)
(0.00193237 0.000522037 0.0968453)
(-0.00152225 -0.00314448 0.0391463)
(0.00565621 0.00585457 0.020995)
(3.9279e-05 0.00035088 0.116025)
(0.000137299 0.000346661 0.116041)
(0.000224871 0.000351297 0.116083)
(0.00033819 0.000338094 0.116138)
(0.000454296 0.000338316 0.116237)
(0.000608874 0.000316504 0.11636)
(0.000764006 0.000307675 0.116558)
(0.000985033 0.000261209 0.116782)
(0.00117847 0.000230744 0.117135)
(0.00146226 0.00010373 0.117458)
(0.0016202 7.66881e-06 0.118964)
(0.0017672 -0.000339311 0.120634)
(0.00133668 -0.000169729 0.0968138)
(0.00195118 0.000592523 0.0308225)
(-0.000121816 -0.000121964 0.00473365)
(3.82754e-05 0.000480646 0.116111)
(0.00014143 0.000472189 0.116129)
(0.000227075 0.000477595 0.116181)
(0.000338327 0.000454168 0.116238)
(0.00045602 0.000455919 0.116349)
(0.00060916 0.000424886 0.116471)
(0.000763229 0.000425272 0.116689)
(0.000994167 0.000370599 0.116902)
(0.00115072 0.000361027 0.117254)
(0.00148784 0.000213238 0.117484)
(0.00149976 0.000149245 0.119431)
(0.00180046 -4.61788e-05 0.121986)
(0.000666889 -0.000118142 0.0982759)
(0.00225991 -0.00204535 0.0341554)
(4.80445e-05 -0.000614146 0.00631103)
(3.07293e-05 0.000630987 0.116239)
(0.00013421 0.000622165 0.116254)
(0.000206816 0.000639833 0.116308)
(0.000316506 0.000608757 0.11636)