/*--------------------------------*- C++ -*----------------------------------*\
| =========                 |                                                 |
| \\      /  F ield         | OpenFOAM: The Open Source CFD Toolbox           |
|  \\    /   O peration     | Version:  2.1.1                                 |
|   \\  /    A nd           | Web:      www.OpenFOAM.org                      |
|    \\/     M anipulation  |                                                 |
\*---------------------------------------------------------------------------*/
FoamFile
{
    version     2.0;
    format      ascii;
    class       volScalarField;
    location    "0.004";
    object      Th;
}
// * * * * * * * * * * * * * * * * * * * * * * * * * * * * * * * * * * * * * //

dimensions      [0 0 0 0 0 0 0];

internalField   nonuniform List<scalar> 
10260
(
4.42344e-13
4.90236e-13
1.10829e-14
1.28373e-14
1e-14
1.38523e-14
5.17809e-14
3.04151e-13
1.00045e-14
1.00121e-14
1e-14
1.00691e-14
1.01328e-14
1.37245e-14
1.11273e-14
1e-14
1.00001e-14
1.00001e-14
1e-14
1.00001e-14
1.00003e-14
1.00104e-14
1.01132e-14
1.66788e-14
2.35494e-14
9.92357e-13
1.00001e-14
1.00001e-14
1e-14
1e-14
1e-14
1e-14
1e-14
1.00123e-14
1.06637e-14
1e-14
3.44054e-13
1.00001e-14
1e-14
1e-14
1e-14
1e-14
1e-14
1e-14
1e-14
1.0001e-14
1.07102e-14
1e-14
2.62065e-13
1.00002e-14
1e-14
1e-14
1e-14
1e-14
1e-14
1e-14
1e-14
1.00001e-14
1.00011e-14
1.06652e-14
1.35501e-14
1.00002e-14
1e-14
1e-14
1e-14
1e-14
1e-14
1e-14
1e-14
1e-14
1.00001e-14
1.00124e-14
1.66794e-14
5.0125e-14
1.00002e-14
1e-14
1e-14
1e-14
1.00001e-14
1.00002e-14
1.00001e-14
1e-14
1e-14
1e-14
1.00001e-14
1.01137e-14
1e-14
8.55858e-14
1.00001e-14
1e-14
1e-14
1e-14
1.00001e-14
1.00001e-14
1e-14
1.00001e-14
1e-14
1e-14
1e-14
1.00111e-14
1.37806e-14
3.57957e-14
1e-14
1e-14
1e-14
1.00001e-14
1.00001e-14
1e-14
1e-14
1.00001e-14
1e-14
1e-14
1e-14
1.00003e-14
1.01345e-14
1.02936e-14
1.31855e-12
1.00001e-14
1e-14
1.00001e-14
1.00001e-14
1.00001e-14
1e-14
1e-14
1.00001e-14
1.00001e-14
1e-14
1e-14
1.00002e-14
1.00696e-14
1e-14
1e-14
1.00001e-14
1.00001e-14
1e-14
1e-14
1.00001e-14
1.00001e-14
1.00001e-14
1.00001e-14
1.00001e-14
1e-14
1e-14
1.00001e-14
1e-14
1e-14
1e-14
1.00002e-14
1.00001e-14
1e-14
1e-14
1.00002e-14
1e-14
1e-14
1e-14
1e-14
1e-14
1e-14
1.00001e-14
1.00125e-14
1.28772e-14
1.76101e-14
1.00001e-14
1e-14
1.00002e-14
1.00002e-14
1.00001e-14
1.00001e-14
1.00002e-14
1.00001e-14
1.00001e-14
1.00001e-14
1e-14
1.00001e-14
1.00052e-14
1.11391e-14
2.09177e-14
4.47113e-13
4.98124e-13
1.09645e-14
1.25973e-14
1e-14
1.35882e-14
5.04608e-14
3.08128e-13
1.00019e-14
1.00062e-14
1e-14
1.00582e-14
1.01118e-14
1.35239e-14
1.09391e-14
1e-14
1.00001e-14
1.00001e-14
1e-14
1.00001e-14
1.00001e-14
1.00058e-14
1.01005e-14
1.6244e-14
2.32122e-14
9.94903e-13
1.00002e-14
1.00001e-14
1e-14
1e-14
1e-14
1e-14
1e-14
1.00068e-14
1.05987e-14
1e-14
3.72373e-13
1.00002e-14
1e-14
1e-14
1e-14
1e-14
1e-14
1e-14
1e-14
1.00001e-14
1.06466e-14
1e-14
2.89111e-13
1.00003e-14
1e-14
1e-14
1e-14
1e-14
1e-14
1e-14
1e-14
1e-14
1.00002e-14
1.05999e-14
1.31141e-14
1.00003e-14
1e-14
1e-14
1e-14
1e-14
1e-14
1e-14
1e-14
1e-14
1e-14
1.00069e-14
1.6246e-14
5.32089e-14
1.00003e-14
1e-14
1e-14
1e-14
1e-14
1.00001e-14
1e-14
1e-14
1e-14
1e-14
1e-14
1.01008e-14
1e-14
9.58624e-14
1.00001e-14
1e-14
1e-14
1e-14
1.00001e-14
1.00001e-14
1e-14
1e-14
1e-14
1e-14
1e-14
1.0006e-14
1.35321e-14
3.51934e-14
1e-14
1e-14
1e-14
1.00001e-14
1.00001e-14
1e-14
1e-14
1.00001e-14
1e-14
1e-14
1e-14
1.00001e-14
1.01129e-14
1.03285e-14
1.31077e-12
1e-14
1e-14
1.00001e-14
1.00001e-14
1e-14
1e-14
1e-14
1.00001e-14
1.00001e-14
1e-14
1e-14
1.00001e-14
1.00588e-14
1e-14
1e-14
1.00001e-14
1e-14
1e-14
1e-14
1e-14
1.00001e-14
1e-14
1.00001e-14
1.00001e-14
1e-14
1e-14
1.00001e-14
1e-14
1e-14
1e-14
1.00003e-14
1e-14
1e-14
1e-14
1.00001e-14
1e-14
1e-14
1e-14
1e-14
1e-14
1e-14
1e-14
1.00063e-14
1.26049e-14
1.72068e-14
1e-14
1e-14
1.00002e-14
1.00001e-14
1e-14
1.00001e-14
1.00001e-14
1e-14
1e-14
1e-14
1e-14
1e-14
1.00024e-14
1.09805e-14
2.07467e-14
4.47646e-13
4.98806e-13
1.09335e-14
1.25272e-14
1e-14
1.36056e-14
5.08359e-14
3.08348e-13
1e-14
1.00007e-14
1e-14
1.00548e-14
1.0108e-14
1.3457e-14
1.0968e-14
1e-14
1.00002e-14
1.00001e-14
1e-14
1e-14
1e-14
1.00028e-14
1.00971e-14
1.60946e-14
2.33165e-14
9.94343e-13
1.00002e-14
1.00001e-14
1e-14
1e-14
1e-14
1e-14
1e-14
1.0004e-14
1.05855e-14
1e-14
3.73313e-13
1.00002e-14
1e-14
1e-14
1e-14
1e-14
1e-14
1e-14
1e-14
1e-14
1.06315e-14
1e-14
2.89675e-13
1.00002e-14
1e-14
1e-14
1e-14
1e-14
1e-14
1e-14
1e-14
1.00001e-14
1e-14
1.05866e-14
1.30237e-14
1.00002e-14
1e-14
1e-14
1e-14
1e-14
1e-14
1e-14
1e-14
1e-14
1e-14
1.00041e-14
1.60968e-14
5.41033e-14
1.00002e-14
1e-14
1e-14
1e-14
1e-14
1.00001e-14
1.00001e-14
1e-14
1e-14
1e-14
1e-14
1.00973e-14
1e-14
9.55927e-14
1e-14
1e-14
1e-14
1e-14
1.00001e-14
1.00001e-14
1e-14
1e-14
1e-14
1e-14
1e-14
1.0003e-14
1.346e-14
3.54525e-14
1e-14
1e-14
1e-14
1.00001e-14
1e-14
1e-14
1e-14
1.00001e-14
1e-14
1e-14
1e-14
1e-14
1.01084e-14
1.03376e-14
1.30767e-12
1e-14
1e-14
1.00001e-14
1.00001e-14
1e-14
1e-14
1e-14
1.00001e-14
1e-14
1e-14
1e-14
1.00001e-14
1.00551e-14
1e-14
1e-14
1e-14
1e-14
1e-14
1e-14
1e-14
1e-14
1e-14
1.00001e-14
1e-14
1e-14
1e-14
1.00001e-14
1e-14
1e-14
1e-14
1.00002e-14
1e-14
1e-14
1e-14
1e-14
1e-14
1e-14
1e-14
1e-14
1e-14
1e-14
1e-14
1.00008e-14
1.25299e-14
1.71747e-14
1.00002e-14
1e-14
1.00002e-14
1.00002e-14
1.00001e-14
1e-14
1.00001e-14
1e-14
1.00001e-14
1.00001e-14
1.00001e-14
1e-14
1.00002e-14
1.09382e-14
2.08336e-14
4.47585e-13
4.98618e-13
1.08891e-14
1.24908e-14
1e-14
1.36111e-14
5.10121e-14
3.08428e-13
1e-14
1e-14
1e-14
1.00533e-14
1.01052e-14
1.34238e-14
1.10017e-14
1e-14
1.00001e-14
1e-14
1e-14
1e-14
1e-14
1e-14
1.00942e-14
1.60917e-14
2.33513e-14
9.94364e-13
1.00002e-14
1e-14
1e-14
1e-14
1e-14
1e-14
1e-14
1e-14
1.05858e-14
1e-14
3.73013e-13
1.00001e-14
1e-14
1e-14
1e-14
1e-14
1e-14
1e-14
1e-14
1e-14
1.06298e-14
1e-14
2.89245e-13
1.00001e-14
1e-14
1e-14
1e-14
1e-14
1e-14
1e-14
1e-14
1e-14
1e-14
1.05869e-14
1.301e-14
1.00002e-14
1.00001e-14
1e-14
1e-14
1e-14
1e-14
1e-14
1e-14
1e-14
1e-14
1e-14
1.60934e-14
5.4071e-14
1.00003e-14
1e-14
1e-14
1e-14
1e-14
1e-14
1e-14
1e-14
1e-14
1e-14
1e-14
1.00945e-14
1e-14
9.50993e-14
1.00001e-14
1e-14
1e-14
1e-14
1.00001e-14
1.00001e-14
1e-14
1e-14
1e-14
1e-14
1e-14
1e-14
1.3425e-14
3.53499e-14
1e-14
1e-14
1e-14
1e-14
1e-14
1e-14
1e-14
1.00001e-14
1e-14
1e-14
1e-14
1e-14
1.01053e-14
1.03342e-14
1.30672e-12
1e-14
1e-14
1e-14
1e-14
1e-14
1e-14
1e-14
1e-14
1e-14
1e-14
1e-14
1e-14
1.00534e-14
1e-14
1e-14
1e-14
1e-14
1e-14
1e-14
1e-14
1e-14
1e-14
1e-14
1e-14
1e-14
1e-14
1e-14
1e-14
1e-14
1e-14
1.00002e-14
1e-14
1e-14
1e-14
1e-14
1e-14
1e-14
1e-14
1e-14
1.00001e-14
1e-14
1e-14
1e-14
1.2492e-14
1.70384e-14
1.00001e-14
1e-14
1.00001e-14
1.00001e-14
1e-14
1e-14
1.00001e-14
1.00001e-14
1.00001e-14
1.00001e-14
1.00001e-14
1e-14
1e-14
1.08899e-14
2.08367e-14
4.46627e-13
4.9734e-13
1.10401e-14
1.26732e-14
1e-14
1.3629e-14
5.1393e-14
3.08357e-13
1e-14
1e-14
1e-14
1.00539e-14
1.01211e-14
1.35328e-14
1.10577e-14
1e-14
1.00001e-14
1e-14
1e-14
1e-14
1e-14
1e-14
1.00919e-14
1.59383e-14
2.32923e-14
9.94179e-13
1.00001e-14
1e-14
1e-14
1e-14
1e-14
1e-14
1e-14
1e-14
1.05692e-14
1e-14
3.72791e-13
1.00001e-14
1e-14
1e-14
1e-14
1e-14
1e-14
1e-14
1e-14
1e-14
1.06214e-14
1e-14
2.88855e-13
1.00001e-14
1e-14
1e-14
1e-14
1e-14
1e-14
1e-14
1e-14
1e-14
1e-14
1.05705e-14
1.29842e-14
1.00002e-14
1e-14
1e-14
1e-14
1e-14
1e-14
1e-14
1e-14
1e-14
1e-14
1e-14
1.59389e-14
5.36587e-14
1.00002e-14
1e-14
1e-14
1e-14
1e-14
1e-14
1e-14
1e-14
1e-14
1e-14
1e-14
1.00921e-14
1e-14
9.38235e-14
1.00001e-14
1e-14
1e-14
1e-14
1e-14
1e-14
1e-14
1e-14
1e-14
1e-14
1e-14
1e-14
1.35336e-14
3.50524e-14
1.00001e-14
1e-14
1e-14
1e-14
1e-14
1.00001e-14
1e-14
1e-14
1e-14
1e-14
1.00001e-14
1e-14
1.01212e-14
1.03229e-14
1.30511e-12
1e-14
1e-14
1e-14
1e-14
1.00001e-14
1e-14
1e-14
1e-14
1e-14
1e-14
1.00001e-14
1e-14
1.0054e-14
1e-14
1e-14
1.00001e-14
1e-14
1e-14
1e-14
1e-14
1e-14
1e-14
1e-14
1e-14
1.00001e-14
1e-14
1e-14
1e-14
1e-14
1e-14
1.00001e-14
1e-14
1e-14
1e-14
1e-14
1e-14
1e-14
1e-14
1.00001e-14
1.00001e-14
1e-14
1e-14
1e-14
1.26733e-14
1.67742e-14
1.00002e-14
1e-14
1e-14
1e-14
1e-14
1e-14
1.00001e-14
1.00001e-14
1e-14
1e-14
1e-14
1e-14
1e-14
1.10398e-14
2.08108e-14
4.43186e-13
4.928e-13
1.06173e-14
1.22537e-14
1e-14
1.36657e-14
5.24663e-14
3.07546e-13
1e-14
1e-14
1e-14
1.00473e-14
1.00759e-14
1.31377e-14
1.10727e-14
1e-14
1e-14
1e-14
1e-14
1e-14
1e-14
1e-14
1.00818e-14
1.61731e-14
2.29363e-14
9.92745e-13
1e-14
1e-14
1e-14
1e-14
1e-14
1e-14
1e-14
1e-14
1.06533e-14
1e-14
3.71547e-13
1.00001e-14
1e-14
1e-14
1e-14
1e-14
1e-14
1e-14
1e-14
1e-14
1.06624e-14
1e-14
2.87283e-13
1.00001e-14
1e-14
1e-14
1e-14
1e-14
1e-14
1e-14
1e-14
1e-14
1e-14
1.06546e-14
1.28736e-14
1.00002e-14
1.00001e-14
1e-14
1e-14
1e-14
1e-14
1e-14
1e-14
1e-14
1e-14
1e-14
1.61745e-14
5.23022e-14
1.00001e-14
1e-14
1e-14
1e-14
1e-14
1e-14
1e-14
1e-14
1e-14
1e-14
1e-14
1.00819e-14
1e-14
8.96214e-14
1e-14
1e-14
1e-14
1e-14
1e-14
1.00001e-14
1e-14
1e-14
1e-14
1.00001e-14
1.00001e-14
1e-14
1.31381e-14
3.43299e-14
1e-14
1e-14
1e-14
1e-14
1.00001e-14
1e-14
1e-14
1e-14
1e-14
1.00001e-14
1.00001e-14
1e-14
1.00759e-14
1.02728e-14
1.29984e-12
1e-14
1e-14
1e-14
1e-14
1e-14
1e-14
1e-14
1e-14
1e-14
1.00001e-14
1e-14
1e-14
1.00474e-14
1e-14
1e-14
1e-14
1e-14
1e-14
1e-14
1e-14
1e-14
1e-14
1.00001e-14
1.00001e-14
1e-14
1e-14
1e-14
1e-14
1e-14
1e-14
1e-14
1e-14
1e-14
1e-14
1e-14
1e-14
1e-14
1.00001e-14
1e-14
1e-14
1e-14
1e-14
1e-14
1.22546e-14
1.59365e-14
1.00003e-14
1e-14
1e-14
1e-14
1.00002e-14
1.00002e-14
1.00001e-14
1.00001e-14
1e-14
1e-14
1e-14
1e-14
1e-14
1.06156e-14
2.0208e-14
4.22721e-13
4.71406e-13
1.21708e-14
1.45389e-14
1e-14
1.20131e-14
4.92204e-14
3.00831e-13
1e-14
1e-14
1e-14
1.00686e-14
1.02477e-14
1.49407e-14
1.18385e-14
1e-14
1e-14
1e-14
1e-14
1e-14
1e-14
1e-14
1.00752e-14
1.65253e-14
2.26423e-14
9.89196e-13
1e-14
1e-14
1e-14
1e-14
1e-14
1e-14
1e-14
1e-14
1.04098e-14
1e-14
3.70555e-13
1e-14
1e-14
1e-14
1e-14
1e-14
1e-14
1e-14
1e-14
1e-14
1.05058e-14
1e-14
2.8115e-13
1.00001e-14
1e-14
1e-14
1e-14
1e-14
1e-14
1e-14
1e-14
1e-14
1e-14
1.04129e-14
1.36523e-14
1.00001e-14
1e-14
1e-14
1e-14
1e-14
1e-14
1e-14
1e-14
1e-14
1e-14
1e-14
1.65258e-14
6.65552e-14
1e-14
1e-14
1e-14
1.00001e-14
1e-14
1e-14
1e-14
1e-14
1e-14
1e-14
1e-14
1.00756e-14
1e-14
6.24807e-14
1e-14
1e-14
1e-14
1.00001e-14
1e-14
1e-14
1e-14
1e-14
1e-14
1.00001e-14
1.00001e-14
1e-14
1.49421e-14
3.13469e-14
1e-14
1e-14
1e-14
1.00001e-14
1e-14
1e-14
1e-14
1e-14
1.00001e-14
1.00001e-14
1.00001e-14
1e-14
1.02479e-14
1.01598e-14
1.3043e-12
1e-14
1e-14
1e-14
1e-14
1e-14
1e-14
1e-14
1e-14
1.00001e-14
1e-14
1e-14
1e-14
1.00687e-14
1e-14
1e-14
1e-14
1e-14
1e-14
1e-14
1e-14
1e-14
1.00001e-14
1.00001e-14
1e-14
1e-14
1e-14
1e-14
1e-14
1e-14
1e-14
1e-14
1e-14
1e-14
1e-14
1e-14
1.00001e-14
1.00001e-14
1e-14
1e-14
1e-14
1.00001e-14
1.00001e-14
1e-14
1.45333e-14
1.44343e-14
1.00002e-14
1e-14
1e-14
1e-14
1.00001e-14
1.00001e-14
1.00001e-14
1e-14
1e-14
1.00001e-14
1.00001e-14
1e-14
1e-14
1.2171e-14
1.3187e-14
7.58462e-14
6.31973e-14
1.07886e-14
1.12319e-14
1e-14
1.21946e-14
2.94534e-14
6.87243e-14
1e-14
1e-14
1.00001e-14
1.00184e-14
1.00785e-14
1.0957e-14
1.13017e-14
4.43662e-14
1e-14
1e-14
1e-14
1e-14
1e-14
1e-14
1.0012e-14
1.12992e-14
1.69316e-14
1e-14
1e-14
1e-14
1e-14
1e-14
1e-14
1e-14
1e-14
1e-14
1.00721e-14
1e-14
1e-14
1.00001e-14
1e-14
1e-14
1e-14
1e-14
1e-14
1e-14
1.00001e-14
1e-14
1.00997e-14
1e-14
1e-14
1.00001e-14
1e-14
1e-14
1.00001e-14
1e-14
1e-14
1e-14
1e-14
1e-14
1e-14
1.00726e-14
1e-14
1.00001e-14
1e-14
1.00001e-14
1e-14
1e-14
1e-14
1e-14
1e-14
1e-14
1e-14
1e-14
1.12993e-14
3.1983e-14
1e-14
1e-14
1e-14
1e-14
1e-14
1e-14
1e-14
1e-14
1e-14
1e-14
1e-14
1.00122e-14
1.0117e-14
1e-14
1e-14
1e-14
1e-14
1e-14
1e-14
1e-14
1e-14
1e-14
1.00001e-14
1.00001e-14
1e-14
1e-14
1.09575e-14
2.89279e-14
1e-14
1e-14
1e-14
1e-14
1e-14
1e-14
1e-14
1.00001e-14
1.00001e-14
1e-14
1e-14
1e-14
1.00786e-14
1e-14
1e-14
1e-14
1e-14
1e-14
1e-14
1e-14
1e-14
1.00001e-14
1.00001e-14
1e-14
1e-14
1e-14
1e-14
1.00185e-14
1.00248e-14
8.51548e-14
1e-14
1e-14
1e-14
1e-14
1e-14
1.00001e-14
1.00001e-14
1e-14
1e-14
1e-14
1e-14
1.00001e-14
1.00001e-14
1e-14
1.86226e-14
1e-14
1e-14
1e-14
1.00001e-14
1.00001e-14
1.00001e-14
1e-14
1e-14
1e-14
1e-14
1.00001e-14
1.00001e-14
1e-14
1.12299e-14
2.24164e-14
1e-14
1e-14
1.00001e-14
1.00001e-14
1.00002e-14
1.00001e-14
1.00001e-14
1e-14
1e-14
1.00002e-14
1.00001e-14
1e-14
1e-14
1.07889e-14
1.0145e-14
1.17831e-14
1.08156e-14
1.00797e-14
1.02245e-14
1.03423e-14
1e-14
1.00191e-14
1.04927e-14
1.09713e-14
1e-14
1e-14
1e-14
1.00047e-14
1.00221e-14
1.02196e-14
1.00661e-14
1.02926e-14
1e-14
1e-14
1e-14
1e-14
1e-14
1e-14
1.00017e-14
1.02959e-14
1.03327e-14
1.00154e-14
1e-14
1e-14
1e-14
1e-14
1e-14
1e-14
1e-14
1e-14
1.00099e-14
1e-14
1.00034e-14
1e-14
1e-14
1e-14
1e-14
1e-14
1e-14
1e-14
1.00001e-14
1e-14
1.00176e-14
1e-14
1.00126e-14
1e-14
1e-14
1e-14
1e-14
1e-14
1e-14
1e-14
1e-14
1e-14
1e-14
1.001e-14
1e-14
1e-14
1e-14
1e-14
1e-14
1e-14
1e-14
1e-14
1e-14
1e-14
1e-14
1e-14
1.02959e-14
1.07543e-14
1e-14
1e-14
1e-14
1e-14
1e-14
1e-14
1e-14
1e-14
1e-14
1e-14
1e-14
1.00017e-14
1e-14
1.00031e-14
1e-14
1e-14
1e-14
1e-14
1e-14
1e-14
1e-14
1e-14
1.00001e-14
1e-14
1e-14
1e-14
1.02198e-14
1.06981e-14
1e-14
1e-14
1e-14
1e-14
1e-14
1e-14
1e-14
1.00001e-14
1e-14
1e-14
1e-14
1e-14
1.00223e-14
1e-14
1e-14
1e-14
1e-14
1e-14
1e-14
1e-14
1.00001e-14
1e-14
1e-14
1e-14
1.00001e-14
1e-14
1.00048e-14
1.00193e-14
1.11852e-14
1e-14
1e-14
1e-14
1e-14
1e-14
1e-14
1e-14
1e-14
1e-14
1e-14
1.00001e-14
1.00001e-14
1.00001e-14
1e-14
1.01854e-14
1e-14
1e-14
1e-14
1e-14
1e-14
1.00001e-14
1e-14
1e-14
1e-14
1e-14
1.00001e-14
1.00001e-14
1e-14
1.03416e-14
1.06191e-14
1.00001e-14
1e-14
1e-14
1.00001e-14
1.00001e-14
1e-14
1e-14
1e-14
1e-14
1.00002e-14
1.00001e-14
1e-14
1e-14
1.02248e-14
1e-14
1.00359e-14
1.00129e-14
1.00006e-14
1.00542e-14
1.00846e-14
1.00007e-14
1.00016e-14
1.00095e-14
1.00108e-14
1e-14
1e-14
1e-14
1.00012e-14
1.00051e-14
1.00448e-14
1.0004e-14
1.00034e-14
1e-14
1e-14
1e-14
1e-14
1e-14
1e-14
1.00003e-14
1.00591e-14
1.0011e-14
1.00002e-14
1e-14
1e-14
1e-14
1e-14
1e-14
1e-14
1e-14
1e-14
1.00011e-14
1.00012e-14
1e-14
1e-14
1e-14
1e-14
1e-14
1e-14
1e-14
1e-14
1.00001e-14
1e-14
1.00028e-14
1.00013e-14
1e-14
1e-14
1e-14
1e-14
1e-14
1e-14
1e-14
1e-14
1e-14
1e-14
1e-14
1.00012e-14
1.00003e-14
1e-14
1e-14
1e-14
1e-14
1e-14
1e-14
1e-14
1e-14
1e-14
1e-14
1e-14
1.00593e-14
1.00172e-14
1e-14
1e-14
1e-14
1e-14
1e-14
1e-14
1e-14
1e-14
1e-14
1e-14
1e-14
1.00003e-14
1e-14
1e-14
1e-14
1e-14
1e-14
1e-14
1e-14
1e-14
1e-14
1e-14
1e-14
1e-14
1e-14
1e-14
1.00449e-14
1.00195e-14
1e-14
1e-14
1e-14
1e-14
1e-14
1e-14
1e-14
1e-14
1e-14
1e-14
1.00001e-14
1e-14
1.00051e-14
1.00003e-14
1e-14
1e-14
1e-14
1e-14
1e-14
1e-14
1e-14
1e-14
1e-14
1e-14
1e-14
1e-14
1.00012e-14
1.00016e-14
1.00214e-14
1e-14
1e-14
1e-14
1e-14
1e-14
1e-14
1e-14
1e-14
1e-14
1e-14
1.00001e-14
1.00001e-14
1.00001e-14
1.00007e-14
1.00032e-14
1e-14
1e-14
1e-14
1e-14
1e-14
1e-14
1e-14
1e-14
1e-14
1e-14
1e-14
1e-14
1e-14
1.00843e-14
1.0021e-14
1.00002e-14
1e-14
1e-14
1e-14
1.00001e-14
1e-14
1e-14
1e-14
1e-14
1.00001e-14
1e-14
1e-14
1e-14
1.00543e-14
1.00037e-14
1.00011e-14
1.00004e-14
1e-14
1.00116e-14
1.00183e-14
1.00002e-14
1.00001e-14
1.00001e-14
1.00001e-14
1e-14
1e-14
1e-14
1.00002e-14
1.0001e-14
1.0008e-14
1.00006e-14
1.00001e-14
1e-14
1e-14
1e-14
1e-14
1e-14
1e-14
1.00001e-14
1.00101e-14
1.00006e-14
1e-14
1e-14
1e-14
1e-14
1e-14
1e-14
1e-14
1e-14
1e-14
1.00001e-14
1.00001e-14
1e-14
1e-14
1e-14
1e-14
1e-14
1e-14
1e-14
1e-14
1e-14
1e-14
1.00004e-14
1.00002e-14
1e-14
1e-14
1e-14
1e-14
1e-14
1e-14
1e-14
1e-14
1e-14
1e-14
1e-14
1.00002e-14
1.00001e-14
1e-14
1e-14
1e-14
1e-14
1e-14
1e-14
1e-14
1e-14
1e-14
1e-14
1e-14
1.00102e-14
1.00006e-14
1e-14
1e-14
1e-14
1e-14
1e-14
1e-14
1e-14
1e-14
1e-14
1e-14
1e-14
1.00001e-14
1e-14
1e-14
1e-14
1e-14
1e-14
1e-14
1e-14
1e-14
1e-14
1e-14
1e-14
1e-14
1e-14
1e-14
1.0008e-14
1.00005e-14
1e-14
1e-14
1e-14
1e-14
1e-14
1e-14
1e-14
1e-14
1e-14
1e-14
1e-14
1e-14
1.0001e-14
1.00001e-14
1e-14
1e-14
1e-14
1e-14
1e-14
1e-14
1e-14
1e-14
1e-14
1e-14
1e-14
1e-14
1.00003e-14
1.00002e-14
1.00001e-14
1e-14
1e-14
1e-14
1e-14
1e-14
1e-14
1e-14
1e-14
1e-14
1e-14
1e-14
1e-14
1e-14
1.00002e-14
1e-14
1e-14
1e-14
1e-14
1e-14
1e-14
1e-14
1e-14
1e-14
1e-14
1e-14
1e-14
1e-14
1e-14
1.00183e-14
1.00015e-14
1.00002e-14
1e-14
1.00001e-14
1.00001e-14
1e-14
1e-14
1e-14
1e-14
1e-14
1e-14
1e-14
1e-14
1e-14
1.00117e-14
1.00009e-14
1e-14
1.00001e-14
1e-14
1.00023e-14
1.00036e-14
1e-14
1e-14
1e-14
1e-14
1e-14
1e-14
1e-14
1e-14
1.00002e-14
1.00013e-14
1.00002e-14
1.00003e-14
1e-14
1e-14
1e-14
1e-14
1e-14
1e-14
1e-14
1.00015e-14
1.00001e-14
1.00001e-14
1e-14
1e-14
1e-14
1e-14
1e-14
1e-14
1.00001e-14
1.00001e-14
1e-14
1.00001e-14
1e-14
1e-14
1e-14
1e-14
1e-14
1e-14
1e-14
1.00001e-14
1e-14
1e-14
1.00001e-14
1.00001e-14
1e-14
1e-14
1e-14
1e-14
1e-14
1e-14
1.00001e-14
1e-14
1e-14
1e-14
1e-14
1.00001e-14
1e-14
1e-14
1e-14
1e-14
1e-14
1e-14
1e-14
1e-14
1e-14
1.00001e-14
1e-14
1e-14
1.00016e-14
1e-14
1e-14
1e-14
1e-14
1e-14
1e-14
1e-14
1e-14
1e-14
1e-14
1e-14
1e-14
1.00001e-14
1e-14
1e-14
1e-14
1e-14
1e-14
1e-14
1e-14
1e-14
1e-14
1e-14
1e-14
1e-14
1e-14
1e-14
1.00013e-14
1e-14
1e-14
1e-14
1e-14
1e-14
1e-14
1e-14
1e-14
1e-14
1e-14
1e-14
1e-14
1e-14
1.00002e-14
1e-14
1e-14
1.00001e-14
1e-14
1e-14
1e-14
1e-14
1e-14
1e-14
1e-14
1e-14
1e-14
1e-14
1e-14
1.00001e-14
1e-14
1.00001e-14
1.00001e-14
1e-14
1e-14
1e-14
1e-14
1e-14
1e-14
1e-14
1e-14
1e-14
1e-14
1e-14
1e-14
1.00002e-14
1.00001e-14
1e-14
1e-14
1e-14
1e-14
1e-14
1e-14
1e-14
1e-14
1e-14
1e-14
1e-14
1e-14
1.00036e-14
1.00002e-14
1.00002e-14
1.00001e-14
1.00001e-14
1e-14
1e-14
1e-14
1.00001e-14
1.00001e-14
1e-14
1e-14
1e-14
1e-14
1e-14
1.00023e-14
1.00001e-14
1e-14
1e-14
1e-14
1.00004e-14
1.00006e-14
1e-14
1e-14
1e-14
1e-14
1e-14
1e-14
1e-14
1e-14
1e-14
1.00002e-14
1e-14
1e-14
1e-14
1e-14
1e-14
1e-14
1e-14
1e-14
1.00001e-14
1.00002e-14
1e-14
1e-14
1e-14
1e-14
1e-14
1e-14
1e-14
1.00001e-14
1.00001e-14
1.00001e-14
1e-14
1e-14
1e-14
1e-14
1e-14
1e-14
1e-14
1.00001e-14
1.00001e-14
1.00001e-14
1e-14
1e-14
1.00001e-14
1.00001e-14
1e-14
1.00001e-14
1.00001e-14
1e-14
1e-14
1e-14
1e-14
1e-14
1e-14
1e-14
1e-14
1e-14
1e-14
1e-14
1e-14
1e-14
1e-14
1e-14
1e-14
1e-14
1e-14
1e-14
1.00001e-14
1e-14
1.00003e-14
1.00001e-14
1e-14
1e-14
1e-14
1e-14
1e-14
1e-14
1e-14
1e-14
1e-14
1e-14
1e-14
1e-14
1.00002e-14
1.00001e-14
1e-14
1e-14
1e-14
1e-14
1e-14
1e-14
1e-14
1e-14
1e-14
1e-14
1e-14
1e-14
1.00002e-14
1e-14
1.00001e-14
1.00001e-14
1.00001e-14
1e-14
1e-14
1e-14
1e-14
1e-14
1e-14
1e-14
1e-14
1e-14
1e-14
1e-14
1.00001e-14
1.00001e-14
1e-14
1e-14
1e-14
1e-14
1e-14
1e-14
1e-14
1e-14
1e-14
1e-14
1e-14
1e-14
1e-14
1.00002e-14
1e-14
1e-14
1e-14
1e-14
1e-14
1e-14
1e-14
1e-14
1e-14
1e-14
1e-14
1e-14
1e-14
1.00002e-14
1.00001e-14
1e-14
1e-14
1e-14
1e-14
1e-14
1e-14
1e-14
1e-14
1e-14
1e-14
1e-14
1.00001e-14
1.00006e-14
1e-14
1.00003e-14
1.00001e-14
1.00001e-14
1.00001e-14
1e-14
1e-14
1e-14
1e-14
1e-14
1.00001e-14
1.00001e-14
1.00001e-14
1e-14
1.00004e-14
1e-14
1e-14
1e-14
1e-14
1.00001e-14
1.00001e-14
1e-14
1e-14
1e-14
1e-14
1.00001e-14
1e-14
1e-14
1e-14
1e-14
1e-14
1.00001e-14
1e-14
1.00001e-14
1e-14
1e-14
1e-14
1e-14
1e-14
1e-14
1e-14
1e-14
1.00001e-14
1.00001e-14
1e-14
1e-14
1.00001e-14
1e-14
1.00001e-14
1e-14
1e-14
1e-14
1.00001e-14
1e-14
1.00001e-14
1.00001e-14
1e-14
1e-14
1.00001e-14
1e-14
1e-14
1e-14
1e-14
1.00001e-14
1.00001e-14
1e-14
1.00001e-14
1e-14
1e-14
1e-14
1.00001e-14
1e-14
1e-14
1.00001e-14
1.00001e-14
1e-14
1.00001e-14
1e-14
1.00001e-14
1e-14
1e-14
1e-14
1e-14
1e-14
1e-14
1.00001e-14
1.00001e-14
1.00001e-14
1.00001e-14
1.00001e-14
1e-14
1.00001e-14
1e-14
1e-14
1e-14
1e-14
1e-14
1.00001e-14
1.00001e-14
1.00001e-14
1e-14
1e-14
1e-14
1e-14
1.00002e-14
1.00001e-14
1e-14
1e-14
1e-14
1e-14
1e-14
1e-14
1e-14
1e-14
1e-14
1e-14
1e-14
1e-14
1e-14
1.00001e-14
1.00001e-14
1.00001e-14
1e-14
1e-14
1e-14
1e-14
1e-14
1e-14
1e-14
1e-14
1e-14
1e-14
1e-14
1.00001e-14
1e-14
1e-14
1e-14
1e-14
1e-14
1e-14
1e-14
1e-14
1e-14
1e-14
1e-14
1e-14
1e-14
1e-14
1.00001e-14
1e-14
1e-14
1e-14
1e-14
1e-14
1e-14
1e-14
1e-14
1e-14
1e-14
1.00001e-14
1.00001e-14
1e-14
1e-14
1.00002e-14
1e-14
1e-14
1e-14
1e-14
1e-14
1e-14
1e-14
1e-14
1e-14
1.00001e-14
1.00001e-14
1.00001e-14
1.00002e-14
1e-14
1.00006e-14
1.00001e-14
1.00001e-14
1e-14
1e-14
1e-14
1e-14
1e-14
1e-14
1.00002e-14
1.00001e-14
1e-14
1e-14
1.00002e-14
1e-14
1.00003e-14
1e-14
1e-14
1.00001e-14
1e-14
1e-14
1e-14
1.00001e-14
1e-14
1.00002e-14
1e-14
1.00001e-14
1e-14
1e-14
1e-14
1e-14
1e-14
1e-14
1e-14
1e-14
1e-14
1.00001e-14
1.00001e-14
1e-14
1e-14
1e-14
1.00001e-14
1e-14
1e-14
1e-14
1e-14
1.00001e-14
1.00001e-14
1.00001e-14
1e-14
1e-14
1.00001e-14
1e-14
1e-14
1e-14
1e-14
1e-14
1.00001e-14
1.00001e-14
1e-14
1.00001e-14
1.00001e-14
1.00001e-14
1.00001e-14
1.00001e-14
1e-14
1e-14
1e-14
1e-14
1e-14
1.00001e-14
1e-14
1.00001e-14
1.00001e-14
1.00001e-14
1.00001e-14
1e-14
1e-14
1e-14
1e-14
1e-14
1e-14
1e-14
1.00001e-14
1.00001e-14
1.00001e-14
1.00001e-14
1e-14
1e-14
1e-14
1.00001e-14
1e-14
1e-14
1e-14
1e-14
1e-14
1e-14
1.00001e-14
1.00001e-14
1e-14
1e-14
1e-14
1e-14
1.00001e-14
1.00001e-14
1e-14
1e-14
1e-14
1e-14
1e-14
1e-14
1e-14
1e-14
1e-14
1e-14
1e-14
1e-14
1e-14
1e-14
1e-14
1e-14
1e-14
1e-14
1e-14
1e-14
1e-14
1e-14
1e-14
1e-14
1e-14
1e-14
1e-14
1e-14
1e-14
1e-14
1e-14
1e-14
1e-14
1e-14
1e-14
1e-14
1e-14
1e-14
1e-14
1e-14
1e-14
1e-14
1e-14
1e-14
1.00001e-14
1e-14
1e-14
1e-14
1e-14
1.00001e-14
1.00001e-14
1e-14
1e-14
1e-14
1e-14
1e-14
1e-14
1e-14
1e-14
1.00001e-14
1e-14
1e-14
1e-14
1e-14
1e-14
1e-14
1e-14
1e-14
1e-14
1e-14
1e-14
1e-14
1.00005e-14
1.00002e-14
1.00002e-14
1.00002e-14
1e-14
1e-14
1e-14
1e-14
1e-14
1e-14
1e-14
1e-14
1e-14
1e-14
1.00001e-14
6.44701e-13
6.88093e-13
3.19712e-14
3.52454e-14
7.26976e-13
4.2504e-14
6.00141e-14
1.06149e-13
1.57745e-14
1.1567e-14
1.24824e-13
1.68962e-13
1.51587e-12
7.17219e-14
6.66418e-14
1.49087e-14
1.01696e-14
4.34962e-13
2.72819e-14
9.6689e-14
1.09817e-14
5.49868e-13
1.30613e-12
2.09596e-14
7.62515e-14
1.03257e-14
1.39256e-14
1.77944e-13
1.92683e-14
1.63992e-13
1e-14
4.63101e-14
5.50069e-13
1.07593e-14
2.4184e-14
1.35752e-12
1.41439e-13
1.23608e-12
1.27503e-12
1.28613e-13
1.27899e-12
1.23784e-12
1.41537e-13
1.35772e-12
2.42016e-14
5.50026e-13
1.07626e-14
4.63171e-14
1e-14
1.64024e-13
1.92959e-14
1.78559e-13
1.30462e-12
1.39542e-14
7.68203e-14
1.03589e-14
2.15256e-14
5.50142e-13
1.20005e-14
9.3773e-14
2.73108e-14
4.36215e-13
1.02338e-14
6.64979e-14
1.47114e-14
6.97287e-14
1.51627e-12
1.5346e-13
1.2228e-13
1.10496e-14
1.6086e-14
1.06302e-13
5.89137e-14
4.21121e-14
7.30158e-13
3.5018e-14
6.90874e-13
3.15895e-14
6.46919e-13
4.59741e-13
1.93078e-14
2.08381e-14
6.35501e-13
6.7965e-13
2.902e-14
3.22063e-14
2.83056e-14
1.75414e-14
7.18979e-13
3.84038e-14
5.26483e-14
4.55389e-14
1e-14
9.39706e-14
1.46444e-14
1.041e-14
1e-14
1.11824e-14
1.13249e-13
1e-14
1.30756e-12
1.45613e-13
1.50483e-12
1e-14
1e-14
1.02736e-14
6.22521e-14
6.17986e-14
1.32942e-14
1.0238e-14
2.01537e-14
3.62156e-14
4.31609e-13
2.51852e-14
8.64815e-14
1.03205e-14
8.28736e-14
1.28668e-14
5.52146e-13
9.14064e-13
1.29721e-12
5.14538e-14
1.03222e-14
1e-14
1.96842e-14
6.97729e-14
1.02088e-14
1.32242e-14
1.60529e-14
5.01832e-14
1.69664e-13
1.83483e-14
1.50529e-13
1e-14
1e-14
3.73344e-13
1.02621e-14
1.35471e-14
4.35758e-14
5.40069e-13
1.04372e-14
2.17893e-14
4.3661e-14
2.62779e-13
1.34114e-12
1.28098e-13
1.25417e-12
3.45219e-14
3.44297e-13
1.28832e-12
1.15625e-13
1.29251e-12
4.36767e-14
9.92343e-13
1.25578e-12
1.28213e-13
1.34114e-12
3.73271e-13
1.0262e-14
2.35501e-14
2.18058e-14
5.40069e-13
1.04402e-14
4.35741e-14
1e-14
1e-14
1.60459e-14
1e-14
1.50537e-13
1.83383e-14
1.69338e-13
9.14846e-13
1.29738e-12
5.16918e-14
1.03293e-14
1.11909e-14
1.32522e-14
6.99741e-14
1.02138e-14
1.97705e-14
1.00919e-14
5.52371e-13
1.2847e-14
2.02741e-14
3.06548e-13
8.69654e-14
2.53868e-14
4.32047e-13
1e-14
1e-14
5.19721e-14
1.02298e-14
6.18577e-14
1.3375e-14
6.29567e-14
1e-14
1.50538e-12
1.4679e-13
1.04767e-14
1.14163e-13
1.11564e-14
4.69731e-14
1.47185e-14
9.49853e-14
2.82864e-14
4.96237e-13
5.30664e-14
3.85891e-14
7.19435e-13
4.65141e-13
1.93643e-14
4.47422e-13
3.23746e-14
6.80131e-13
2.92157e-14
6.36516e-13
4.65519e-13
1.91662e-14
2.0688e-14
6.35414e-13
6.79276e-13
2.88892e-14
3.20727e-14
2.75627e-14
1.71139e-14
7.19152e-13
3.82483e-14
5.21275e-14
4.80051e-14
1e-14
9.3427e-14
1.45623e-14
1.03769e-14
1e-14
1.10846e-14
1.13822e-13
1e-14
1.31095e-12
1.47039e-13
1.50557e-12
1e-14
1e-14
1.03306e-14
6.19942e-14
6.04216e-14
1.31266e-14
1.02081e-14
1.98689e-14
3.49721e-14
4.32212e-13
2.51223e-14
8.6605e-14
1e-14
9.6075e-14
1.34423e-14
5.49641e-13
9.23855e-13
1.29799e-12
5.15935e-14
1.02895e-14
1e-14
1.97961e-14
7.0083e-14
1.01988e-14
1.30332e-14
1.57551e-14
5.32056e-14
1.72204e-13
1.81664e-14
1.49533e-13
1e-14
1e-14
3.75422e-13
1.02706e-14
1.31125e-14
4.3952e-14
5.40344e-13
1.04529e-14
2.13551e-14
4.626e-14
2.89722e-13
1.34316e-12
1.26102e-13
1.24714e-12
3.64745e-14
3.72607e-13
1.28158e-12
1.14168e-13
1.28569e-12
4.62733e-14
9.94832e-13
1.24869e-12
1.26209e-13
1.34311e-12
3.75406e-13
1.02704e-14
2.32129e-14
2.1371e-14
5.40348e-13
1.04545e-14
4.3947e-14
1e-14
1e-14
1.5754e-14
1e-14
1.49569e-13
1.81693e-14
1.72146e-13
9.239e-13
1.29832e-12
5.16868e-14
1.029e-14
1.09603e-14
1.3036e-14
7.01161e-14
1.02001e-14
1.98081e-14
1e-14
5.49681e-13
1.34347e-14
1.99408e-14
3.08082e-13
8.6711e-14
2.51572e-14
4.32207e-13
1e-14
1e-14
5.07415e-14
1.02065e-14
6.0398e-14
1.3135e-14
6.21227e-14
1e-14
1.50619e-12
1.47136e-13
1.03867e-14
1.13917e-13
1.10873e-14
4.83273e-14
1.45782e-14
9.35649e-14
2.76251e-14
4.98217e-13
5.21922e-14
3.82731e-14
7.19003e-13
4.65703e-13
1.92332e-14
4.47611e-13
3.20801e-14
6.79305e-13
2.89303e-14
6.35835e-13
4.66102e-13
1.93053e-14
2.08297e-14
6.35559e-13
6.79276e-13
2.89581e-14
3.21572e-14
2.76585e-14
1.71526e-14
7.19156e-13
3.83649e-14
5.21733e-14
4.8962e-14
1e-14
9.36955e-14
1.45527e-14
1.0377e-14
1e-14
1.10735e-14
1.1378e-13
1e-14
1.30777e-12
1.4734e-13
1.50577e-12
1e-14
1e-14
1.03377e-14
6.21572e-14
6.01241e-14
1.31068e-14
1.02025e-14
1.99653e-14
3.54247e-14
4.32574e-13
2.52069e-14
8.68447e-14
1e-14
9.56917e-14
1.35549e-14
5.48475e-13
9.25132e-13
1.29849e-12
5.21365e-14
1.02796e-14
1e-14
1.98816e-14
7.03334e-14
1.01918e-14
1.29892e-14
1.57238e-14
5.40972e-14
1.73756e-13
1.81517e-14
1.49464e-13
1e-14
1e-14
3.75902e-13
1.02693e-14
1.30215e-14
4.40749e-14
5.40509e-13
1.04453e-14
2.13254e-14
4.7174e-14
2.90393e-13
1.34344e-12
1.25874e-13
1.24552e-12
3.71623e-14
3.73492e-13
1.27997e-12
1.14023e-13
1.2841e-12
4.71855e-14
9.94287e-13
1.24714e-12
1.25977e-13
1.34354e-12
3.75857e-13
1.02688e-14
2.33121e-14
2.13415e-14
5.40492e-13
1.04468e-14
4.40765e-14
1e-14
1e-14
1.57241e-14
1e-14
1.49489e-13
1.81553e-14
1.73736e-13
9.25331e-13
1.29854e-12
5.21583e-14
1.02801e-14
1.09707e-14
1.2991e-14
7.03445e-14
1.01928e-14
1.98855e-14
1e-14
5.48473e-13
1.3551e-14
1.99736e-14
3.08345e-13
8.68678e-14
2.52133e-14
4.32573e-13
1e-14
1e-14
5.08796e-14
1.0202e-14
6.01167e-14
1.31091e-14
6.21833e-14
1e-14
1.50594e-12
1.47353e-13
1.03817e-14
1.13806e-13
1.10702e-14
4.90158e-14
1.45541e-14
9.37313e-14
2.767e-14
4.98914e-13
5.2205e-14
3.83649e-14
7.19137e-13
4.66136e-13
1.93173e-14
4.48063e-13
3.21397e-14
6.79244e-13
2.89767e-14
6.35772e-13
4.65822e-13
1.93124e-14
2.08414e-14
6.35467e-13
6.79485e-13
2.90417e-14
3.22749e-14
2.76812e-14
1.70323e-14
7.19435e-13
3.8562e-14
5.24937e-14
4.9284e-14
1e-14
9.42464e-14
1.45464e-14
1.03743e-14
1e-14
1.10855e-14
1.13612e-13
1e-14
1.30669e-12
1.47406e-13
1.5056e-12
1e-14
1e-14
1.03346e-14
6.2338e-14
5.96923e-14
1.3097e-14
1.01982e-14
1.99822e-14
3.5325e-14
4.33123e-13
2.52666e-14
8.69836e-14
1e-14
9.51255e-14
1.36488e-14
5.47484e-13
9.25574e-13
1.29869e-12
5.22124e-14
1.02738e-14
1e-14
1.99314e-14
7.03887e-14
1.01818e-14
1.29463e-14
1.57021e-14
5.40628e-14
1.75155e-13
1.81397e-14
1.49236e-13
1e-14
1e-14
3.76072e-13
1.02649e-14
1.30085e-14
4.40747e-14
5.40482e-13
1.04356e-14
2.13119e-14
4.72632e-14
2.899e-13
1.34342e-12
1.25879e-13
1.24529e-12
3.72355e-14
3.73227e-13
1.27961e-12
1.14058e-13
1.28372e-12
4.72894e-14
9.94288e-13
1.24685e-12
1.25988e-13
1.34351e-12
3.76032e-13
1.02647e-14
2.33506e-14
2.13297e-14
5.40496e-13
1.04368e-14
4.40762e-14
1e-14
1e-14
1.57031e-14
1e-14
1.49255e-13
1.81428e-14
1.75151e-13
9.25367e-13
1.29867e-12
5.22191e-14
1.0274e-14
1.10026e-14
1.29479e-14
7.04012e-14
1.01822e-14
1.99341e-14
1e-14
5.4746e-13
1.36468e-14
1.9984e-14
3.08425e-13
8.69991e-14
2.52692e-14
4.33141e-13
1e-14
1e-14
5.10235e-14
1.01982e-14
5.97008e-14
1.3097e-14
6.23424e-14
1e-14
1.50551e-12
1.4737e-13
1.0375e-14
1.13606e-13
1.10842e-14
4.92869e-14
1.45493e-14
9.42544e-14
2.76789e-14
4.98725e-13
5.25032e-14
3.85522e-14
7.19302e-13
4.65931e-13
1.9318e-14
4.47885e-13
3.2248e-14
6.79418e-13
2.90538e-14
6.35895e-13
4.65011e-13
1.9283e-14
2.08187e-14
6.35665e-13
6.80033e-13
2.92183e-14
3.25656e-14
2.7697e-14
1.67718e-14
7.19394e-13
3.91157e-14
5.35485e-14
4.98838e-14
1e-14
9.53807e-14
1.4652e-14
1.03574e-14
1e-14
1.12193e-14
1.13589e-13
1e-14
1.30506e-12
1.48035e-13
1.50515e-12
1e-14
1e-14
1.03227e-14
6.29984e-14
5.86409e-14
1.30769e-14
1.01903e-14
1.99676e-14
3.50451e-14
4.34617e-13
2.53886e-14
8.73782e-14
1e-14
9.38505e-14
1.37814e-14
5.46052e-13
9.25532e-13
1.29883e-12
5.2208e-14
1.02749e-14
1e-14
1.99956e-14
7.06055e-14
1.01681e-14
1.29027e-14
1.56147e-14
5.36421e-14
1.77061e-13
1.81815e-14
1.49218e-13
1e-14
1e-14
3.7626e-13
1.02403e-14
1.2983e-14
4.4126e-14
5.4039e-13
1.04287e-14
2.1343e-14
4.71858e-14
2.8966e-13
1.34345e-12
1.26386e-13
1.24457e-12
3.7207e-14
3.72992e-13
1.27896e-12
1.14351e-13
1.28307e-12
4.72077e-14
9.9412e-13
1.24615e-12
1.26501e-13
1.34338e-12
3.76222e-13
1.024e-14
2.32936e-14
2.13623e-14
5.40432e-13
1.04293e-14
4.41251e-14
1e-14
1e-14
1.5615e-14
1e-14
1.49239e-13
1.81834e-14
1.77042e-13
9.2541e-13
1.29886e-12
5.22154e-14
1.02748e-14
1.10573e-14
1.29041e-14
7.06183e-14
1.01681e-14