/*--------------------------------*- C++ -*----------------------------------*\
| =========                 |                                                 |
| \\      /  F ield         | OpenFOAM: The Open Source CFD Toolbox           |
|  \\    /   O peration     | Version:  2.1.1                                 |
|   \\  /    A nd           | Web:      www.OpenFOAM.org                      |
|    \\/     M anipulation  |                                                 |
\*---------------------------------------------------------------------------*/
FoamFile
{
    version     2.0;
    format      ascii;
    class       volVectorField;
    location    "0.004";
    object      U;
}
// * * * * * * * * * * * * * * * * * * * * * * * * * * * * * * * * * * * * * //

dimensions      [0 1 -1 0 0 0 0];

internalField   nonuniform List<vector> 
10260
(
(2.26157e-05 -0.00175609 0.00804553)
(-0.000466206 -0.0015734 0.00790397)
(-0.000125886 0.000345889 0.0988287)
(0.000636683 0.00017662 0.0788544)
(0.00341305 -0.010262 0.0306807)
(0.00184674 -0.00694466 0.0248358)
(-0.000304547 -0.00582064 0.0203839)
(0.000246234 -0.0021467 0.00865274)
(0.000167044 0.00110387 0.122364)
(-0.000263556 0.00104775 0.119633)
(4.75217e-06 -0.000161078 0.0952686)
(0.000264124 -0.000170308 0.096025)
(8.23164e-05 4.02359e-05 0.0974049)
(0.000652423 8.31984e-05 0.0805158)
(0.0017095 -0.0097976 0.0229522)
(0.000741532 -0.00350013 0.0068886)
(1.45154e-05 0.000981791 0.119522)
(7.7223e-05 0.000894904 0.12095)
(0.000161432 0.00109623 0.119805)
(-5.99024e-05 0.0009932 0.12075)
(-8.48052e-05 0.000973617 0.121928)
(-0.00018689 0.00091987 0.119281)
(-5.49204e-05 -0.000338759 0.0941158)
(0.000476115 2.5726e-05 0.081117)
(0.00241623 -0.00770675 0.0183403)
(-0.000864576 -0.00118579 0.00599787)
(9.72286e-06 0.00101672 0.117782)
(-0.000284247 0.00102631 0.11812)
(-0.000216675 0.00091325 0.118886)
(-5.06001e-05 0.000814803 0.118821)
(-0.000109293 0.000831143 0.119204)
(-2.31689e-05 0.000689488 0.120297)
(-9.17316e-05 0.000874622 0.120203)
(-0.000606954 0.000531723 0.118749)
(0.000470705 -0.000378695 0.0761427)
(0.00227075 -0.00852913 0.031368)
(-0.005919 0.00249397 0.00274398)
(4.65016e-06 0.000736819 0.117598)
(-3.68775e-05 0.000729244 0.117576)
(-2.3496e-05 0.00089091 0.117734)
(-4.31525e-05 0.000788558 0.117603)
(-0.000135817 0.000772766 0.11763)
(-0.000164109 0.000692256 0.117842)
(-0.000407147 0.000562014 0.118938)
(-0.000113589 0.000591098 0.121722)
(-0.000530225 0.000630256 0.116806)
(0.000265194 -0.000265384 0.0753569)
(0.0020985 -0.00830032 0.0321731)
(-0.00623599 0.00255138 0.00276386)
(-1.1449e-06 0.000655778 0.117179)
(-0.000126922 0.000643825 0.117171)
(-0.00012245 0.000639132 0.117324)
(-0.000122337 0.000582878 0.11731)
(-0.000158417 0.000564853 0.117436)
(-0.000213266 0.000518194 0.117437)
(-0.000235072 0.000481146 0.117654)
(-0.00051713 0.0005493 0.118695)
(-0.000252073 0.00025098 0.121741)
(-0.000629876 0.000526506 0.116798)
(0.000376285 -0.000471287 0.0761232)
(0.00237156 -0.00765901 0.0233946)
(-7.93225e-06 0.000506693 0.116876)
(-5.82451e-05 0.000494048 0.116881)
(-8.78642e-05 0.000550477 0.116959)
(-0.00012567 0.000504126 0.116985)
(-0.000204622 0.000516444 0.117111)
(-0.00023148 0.000459981 0.117213)
(-0.000349117 0.000446329 0.11735)
(-0.000361884 0.000361763 0.117515)
(-0.000552968 0.000517626 0.118692)
(-0.000591891 0.000111645 0.121715)
(-0.000539062 0.000611682 0.118738)
(-2.33286e-05 -0.000487116 0.0811262)
(0.00226769 -0.00457312 0.0208842)
(-1.39066e-05 0.00041855 0.116599)
(-8.52338e-05 0.000410005 0.116616)
(-0.000116203 0.000412076 0.116696)
(-0.000163399 0.000390478 0.116747)
(-0.000211055 0.00038085 0.116878)
(-0.000285048 0.000372644 0.117006)
(-0.000323184 0.000322591 0.117228)
(-0.000445733 0.000348252 0.117348)
(-0.000484298 0.000234053 0.117648)
(-0.000559971 0.000404601 0.118926)
(-0.000890767 9.0505e-05 0.120183)
(0.000363937 4.83693e-05 0.094106)
(0.000651161 -0.00343761 0.0273945)
(-0.00262126 -0.00102423 0.00561363)
(-1.71092e-05 0.000314451 0.116412)
(-6.46391e-05 0.000309847 0.116429)
(-0.00010743 0.000327035 0.116487)
(-0.00015728 0.000310376 0.116542)
(-0.000224177 0.000316931 0.116659)
(-0.000291711 0.000292358 0.116788)
(-0.000373504 0.000285397 0.117005)
(-0.00046033 0.00023267 0.117211)
(-0.000523279 0.000212854 0.117431)
(-0.000694499 0.000165393 0.117837)
(-0.000707836 1.78968e-05 0.12028)
(-0.00093526 0.000201114 0.119306)
(-9.85509e-05 -0.00066092 0.0804269)
(0.00314547 -0.00675187 0.023943)
(-1.91531e-05 0.000241544 0.116271)
(-7.25719e-05 0.000238631 0.11629)
(-0.000115421 0.000240235 0.116346)
(-0.000173016 0.000232634 0.11641)
(-0.000228838 0.000228988 0.116527)
(-0.000316592 0.000224622 0.116659)
(-0.000380903 0.00021076 0.116877)
(-0.000516439 0.000206229 0.117108)
(-0.000567351 0.000157514 0.117429)
(-0.000775581 0.000140633 0.117623)
(-0.000843747 0.000105251 0.119185)
(-0.000999178 0.000106519 0.121928)
(-6.91362e-05 -9.50642e-05 0.0973495)
(0.00363972 0.0010489 0.0235745)
(0.00042915 -0.00105706 0.0058626)
(-2.07006e-05 0.000172133 0.116175)
(-6.59702e-05 0.000170236 0.116193)
(-0.000113412 0.000175842 0.11624)
(-0.000168423 0.000168754 0.116302)
(-0.000232181 0.000173385 0.116409)
(-0.000310174 0.000158234 0.116541)
(-0.000390172 0.000163201 0.116744)
(-0.000505011 0.000127178 0.116981)
(-0.000584406 0.000120889 0.117304)
(-0.000794098 4.63724e-05 0.117596)
(-0.000822227 4.60195e-05 0.118805)
(-0.00102928 7.63839e-05 0.120728)
(0.000155171 -0.00025606 0.0959959)
(0.00281494 0.000159139 0.027626)
(0.000603191 -0.000732321 0.00469573)
(-2.14109e-05 0.000118088 0.116118)
(-6.88889e-05 0.000116629 0.116135)
(-0.000116924 0.000117514 0.116178)
(-0.00017548 0.000114029 0.11624)
(-0.000239459 0.000115801 0.116345)
(-0.000327267 0.000108173 0.116485)
(-0.000411572 0.000115995 0.116694)
(-0.000551672 8.90672e-05 0.116955)
(-0.000639661 0.000121274 0.117319)
(-0.000897132 2.69129e-05 0.117724)
(-0.000918737 0.00021273 0.11887)
(-0.00112424 -0.000147527 0.119774)
(0.000146517 9.55656e-06 0.0952541)
(0.00069522 -0.00449711 0.0237382)
(-0.000753386 -0.00104395 0.00191158)
(-2.1416e-05 6.7469e-05 0.116092)
(-6.65623e-05 6.66465e-05 0.116103)
(-0.000116018 6.96575e-05 0.116136)
(-0.000170112 6.70519e-05 0.116193)
(-0.000238042 7.28549e-05 0.116289)
(-0.00031023 6.5189e-05 0.116427)
(-0.000409244 8.49347e-05 0.116613)
(-0.000495882 5.88639e-05 0.116876)
(-0.000642913 0.000125284 0.117167)
(-0.000737276 4.02748e-05 0.117566)
(-0.00102556 0.000281197 0.118116)
(-0.000920383 -6.31236e-05 0.120916)
(-0.00105766 0.000264839 0.119671)
(-0.000136532 -0.000636931 0.0786901)
(0.00461447 -0.00617395 0.0311381)
(-2.15035e-05 2.14692e-05 0.116086)
(-6.67003e-05 2.19381e-05 0.116092)
(-0.000116507 2.11239e-05 0.11612)
(-0.000172249 2.06353e-05 0.116176)
(-0.000241304 1.96768e-05 0.116269)
(-0.000315267 1.77193e-05 0.11641)
(-0.000417982 1.44469e-05 0.116596)
(-0.000509237 9.31517e-06 0.11687)
(-0.000653434 1.45135e-06 0.117175)
(-0.000744184 -3.27726e-06 0.117586)
(-0.00101096 -9.52497e-06 0.11778)
(-0.00100166 -1.11569e-05 0.119485)
(-0.00110475 -0.000166013 0.122414)
(-0.000325169 0.000130265 0.0986337)
(0.00346178 -0.0016445 0.0253884)
(2.1119e-05 -0.00185456 0.00829837)
(-0.000456037 -0.00168855 0.0081099)
(-0.000289895 -0.000110091 0.0986202)
(0.000652029 -0.00025319 0.0787832)
(0.00268839 -0.00976815 0.0335189)
(0.00155361 -0.0062933 0.025897)
(-0.000449617 -0.0051978 0.0212402)
(0.000194512 -0.00229705 0.00880788)
(2.95673e-05 0.000422878 0.122464)
(-0.00030655 0.000576281 0.11983)
(-8.42566e-05 -0.000534809 0.0953303)
(0.000210812 -0.000598529 0.0960352)
(4.04219e-05 -0.000342393 0.0973495)
(0.000592958 -0.000164187 0.0805587)
(0.00131008 -0.00915942 0.0256541)
(0.000501096 -0.00347794 0.0071771)
(-2.13088e-05 0.000210102 0.119677)
(0.000100164 0.000239369 0.121008)
(0.00017891 0.000528753 0.119713)
(-4.78932e-05 0.000490643 0.120655)
(-0.000108046 0.000417464 0.121895)
(-0.00027353 0.000540307 0.119402)
(-0.000108761 -0.000669125 0.0941209)
(0.000600082 -9.58758e-05 0.0813243)
(0.00195989 -0.00709899 0.0208346)
(-0.000774593 -0.00129037 0.00589713)
(2.20166e-07 0.000220125 0.117991)
(-0.000142172 0.000253166 0.118335)
(-9.98316e-05 0.000152461 0.118997)
(1.6059e-05 0.000109811 0.118961)
(-2.14596e-05 0.00015121 0.119359)
(5.0247e-05 0.000145512 0.120492)
(0.00010286 0.000430822 0.120256)
(-0.000626351 0.000318304 0.118726)
(0.000597389 -0.000642959 0.0761938)
(0.00168078 -0.00813276 0.0343634)
(-0.00615851 0.00249361 0.00305571)
(1.54621e-06 0.000145088 0.117699)
(9.20707e-06 0.000147075 0.117694)
(6.53709e-06 0.000241382 0.117842)
(-5.85654e-06 0.000203617 0.117731)
(-5.86199e-05 0.000187664 0.117755)
(-3.687e-05 0.000190606 0.117988)
(-0.000166269 9.46154e-05 0.119115)
(0.000186512 0.000135992 0.121859)
(-0.000412205 0.00041115 0.116894)
(0.000455525 -0.000456849 0.0753708)
(0.00158869 -0.0078723 0.0350794)
(-0.00650145 0.00253218 0.00311346)
(1.96904e-06 0.00015222 0.117269)
(-4.97022e-05 0.000146945 0.117271)
(-4.67459e-05 0.000134661 0.117416)
(-3.9132e-05 0.000122206 0.117398)
(-3.89457e-05 0.000120446 0.117517)
(-5.80308e-05 0.000125649 0.117517)
(-1.64069e-06 0.000105592 0.117756)
(-0.000193925 0.000176013 0.118866)
(0.000136632 -0.000138659 0.121887)
(-0.000411802 0.000408089 0.116885)
(0.000642566 -0.000598737 0.0761768)
(0.00178786 -0.00722903 0.0261011)
(-3.05716e-06 0.000121612 0.116949)
(-1.07734e-05 0.000116003 0.116959)
(-2.46294e-05 0.000144522 0.117034)
(-3.12509e-05 0.0001305 0.117061)
(-6.69763e-05 0.000140425 0.117184)
(-5.51971e-05 0.00012072 0.117279)
(-0.000110697 0.000122083 0.117425)
(-4.78771e-05 4.70678e-05 0.117612)
(-0.000179857 0.000193276 0.118863)
(-0.000137992 -0.000189279 0.121853)
(-0.000321323 0.000627058 0.118716)
(9.40426e-05 -0.000604253 0.0813267)
(0.00177407 -0.0040491 0.0230183)
(-2.96596e-06 0.000102936 0.116671)
(-2.65787e-05 0.000101078 0.116689)
(-3.27616e-05 9.89392e-05 0.116771)
(-4.4589e-05 9.7256e-05 0.116821)
(-5.18699e-05 9.16322e-05 0.116957)
(-8.03032e-05 0.000103601 0.11708)
(-7.48221e-05 7.36238e-05 0.117299)
(-0.000122617 0.000109716 0.117424)
(-0.000109278 2.635e-07 0.117751)
(-9.56761e-05 0.00016531 0.119108)
(-0.000443011 -0.00010705 0.120242)
(0.000670715 0.00010953 0.0941285)
(7.09359e-05 -0.00329206 0.0305797)
(-0.00281168 -0.000954799 0.00603302)
(-5.05614e-06 7.49321e-05 0.116475)
(-1.43686e-05 7.36396e-05 0.116493)
(-2.77717e-05 8.27293e-05 0.116552)
(-3.73434e-05 7.77122e-05 0.116609)
(-5.99068e-05 8.31031e-05 0.116732)
(-7.39107e-05 7.41251e-05 0.116862)
(-0.000104614 8.02356e-05 0.11708)
(-0.00012164 5.60569e-05 0.117277)
(-0.000128966 5.76554e-05 0.117512)
(-0.000195038 3.90304e-05 0.117984)
(-0.000151689 -5.56237e-05 0.120484)
(-0.000557454 0.000282044 0.119421)
(0.000183147 -0.0005941 0.0805898)
(0.00252832 -0.00597136 0.026291)
(-4.4755e-06 5.80372e-05 0.116328)
(-1.87903e-05 5.80661e-05 0.116348)
(-2.85938e-05 5.78067e-05 0.116406)
(-4.38811e-05 5.81326e-05 0.116472)
(-5.50451e-05 5.50092e-05 0.116597)
(-8.31838e-05 6.01138e-05 0.116732)
(-9.22351e-05 5.15018e-05 0.116956)
(-0.000141262 6.78748e-05 0.117181)
(-0.000122277 3.80784e-05 0.117512)
(-0.000191699 6.12753e-05 0.117751)
(-0.000157673 1.85652e-05 0.119352)
(-0.000434881 0.000110854 0.121899)
(0.000338411 -3.13534e-05 0.0973658)
(0.00294198 0.000980886 0.0259234)
(0.000498908 -0.00103301 0.00576624)
(-5.34271e-06 3.95324e-05 0.116226)
(-1.4648e-05 3.93378e-05 0.116245)
(-2.77692e-05 4.24987e-05 0.116294)
(-4.01643e-05 4.0378e-05 0.116359)
(-5.7922e-05 4.4021e-05 0.116472)
(-7.78299e-05 3.79304e-05 0.116609)
(-9.7598e-05 4.43628e-05 0.116819)
(-0.000131955 3.23246e-05 0.117058)
(-0.000123462 3.82488e-05 0.117395)
(-0.000208672 7.4425e-06 0.117726)
(-0.000116366 -1.85515e-05 0.118957)
(-0.000512304 4.99427e-05 0.120646)
(0.00057715 -0.000204479 0.0960463)
(0.0022419 8.85184e-05 0.0301648)
(0.000440802 -0.000742337 0.0051522)
(-4.95963e-06 2.78618e-05 0.116165)
(-1.58385e-05 2.76229e-05 0.116183)
(-2.75715e-05 2.78491e-05 0.116229)
(-4.23617e-05 2.79944e-05 0.116295)
(-5.74689e-05 2.87063e-05 0.116406)
(-8.31754e-05 2.81821e-05 0.11655)
(-9.90691e-05 3.24647e-05 0.116769)
(-0.000146043 2.56917e-05 0.117031)
(-0.000135767 4.62545e-05 0.117413)
(-0.000246021 -4.74752e-06 0.117837)
(-0.000158789 9.88145e-05 0.118995)
(-0.000546787 -0.000176595 0.119701)
(0.000515858 9.81768e-05 0.0953311)
(0.000322938 -0.00427129 0.0266706)
(-0.000847551 -0.00109778 0.00225021)
(-5.23464e-06 1.49614e-05 0.116135)
(-1.46702e-05 1.46325e-05 0.116148)
(-2.73985e-05 1.63877e-05 0.116184)
(-3.92882e-05 1.53372e-05 0.116245)
(-5.76682e-05 1.89273e-05 0.116347)
(-7.41656e-05 1.47991e-05 0.116491)
(-0.00010078 2.63751e-05 0.116687)
(-0.000117688 1.15941e-05 0.116955)
(-0.000147374 4.91196e-05 0.117269)
(-0.000151932 -7.31667e-06 0.117687)
(-0.000258317 0.000141114 0.118335)
(-0.000247228 -9.57673e-05 0.120992)
(-0.000603468 0.000321158 0.119848)
(0.000283788 -0.000647892 0.078811)
(0.00374675 -0.00577451 0.0336471)
(-4.78056e-06 4.70982e-06 0.116128)
(-1.44133e-05 5.57402e-06 0.116136)
(-2.68591e-05 5.00652e-06 0.116166)
(-3.98049e-05 5.48792e-06 0.116226)
(-5.79594e-05 4.78468e-06 0.116327)
(-7.57162e-05 5.29998e-06 0.116474)
(-0.000102677 3.01463e-06 0.11667)
(-0.000123542 3.52313e-06 0.116946)
(-0.000152277 -1.92424e-06 0.117268)
(-0.000150092 -1.00329e-06 0.117692)
(-0.000224012 -4.28697e-07 0.117992)
(-0.00021412 2.19843e-05 0.119658)
(-0.000441559 -2.7027e-05 0.122488)
(0.000148923 0.00029438 0.09864)
(0.00254693 -0.00157177 0.0278861)
(2.11774e-05 -0.00190002 0.00833258)
(-0.000457416 -0.0017251 0.00812696)
(-0.000330634 -0.000112696 0.0986698)
(0.000433852 -0.000315326 0.0789274)
(0.00254271 -0.00977484 0.0341278)
(0.00138899 -0.00619652 0.0262275)
(-0.000516831 -0.00511638 0.021427)
(0.000195569 -0.00235929 0.00884504)
(5.63086e-05 -0.000323044 0.122468)
(-5.97365e-05 -0.000121767 0.119849)
(4.37347e-05 -0.000734016 0.095472)
(0.000132804 -0.000637188 0.0961297)
(-1.36755e-05 -0.000280304 0.0974475)
(0.000275741 -0.000110441 0.0806355)
(0.00121821 -0.0090834 0.0261312)
(0.000448207 -0.00345891 0.00726862)
(-3.44378e-05 -0.000485222 0.119711)
(0.000108262 -0.000501692 0.121006)
(0.000112117 -0.000244093 0.119609)
(-0.000114365 -0.000127609 0.120552)
(-7.74026e-05 -0.000172617 0.121846)
(-0.000195376 0.000104917 0.119418)
(2.92593e-05 -0.000705702 0.0941394)
(0.000448917 1.73493e-05 0.0813826)
(0.00189031 -0.0070828 0.0212566)
(-0.000747328 -0.00134386 0.00587774)
(3.36644e-06 -0.0004731 0.117985)
(-1.28411e-05 -0.000443412 0.118357)
(-4.46246e-05 -0.000516344 0.119027)
(1.21059e-05 -0.000451705 0.118997)
(1.94806e-05 -0.000372936 0.119404)
(5.446e-05 -0.000332143 0.120543)
(0.00021188 -6.19553e-06 0.120236)
(-0.000538301 1.51252e-05 0.11866)
(0.000499358 -0.000649766 0.0762796)
(0.00158822 -0.0081002 0.0349355)
(-0.0062554 0.00252512 0.00311885)
(-5.16638e-06 -0.000392606 0.11765)
(4.16362e-05 -0.000394666 0.117656)
(1.80733e-05 -0.000359625 0.117806)
(1.84905e-05 -0.000319159 0.117696)
(1.16563e-05 -0.000322328 0.117717)
(6.76199e-05 -0.000248731 0.117964)
(-2.0949e-06 -0.000268936 0.119125)
(0.000369663 -0.000189911 0.121903)
(-0.000290848 0.000199153 0.116838)
(0.000400828 -0.000402575 0.0754672)
(0.00153714 -0.00781608 0.0356421)
(-0.00660694 0.00256466 0.00318512)
(4.84166e-06 -0.000328762 0.117243)
(2.3621e-05 -0.000322799 0.117249)
(2.3896e-05 -0.000336955 0.117397)
(4.51996e-05 -0.000302965 0.117373)
(8.30401e-05 -0.000288565 0.11749)
(8.01103e-05 -0.000239035 0.117489)
(0.000185941 -0.000230386 0.11773)
(4.68211e-05 -0.000116169 0.118872)
(0.000380253 -0.000383662 0.121926)
(-0.000201185 0.000287854 0.116827)
(0.000650427 -0.000500411 0.076262)
(0.00171927 -0.00722438 0.0266139)
(1.99298e-06 -0.000263283 0.116928)
(3.55907e-05 -0.000260889 0.116938)
(3.82332e-05 -0.000255861 0.117012)
(6.60146e-05 -0.000236268 0.117039)
(7.45258e-05 -0.000228485 0.117163)
(0.000124198 -0.000213062 0.117257)
(0.000112154 -0.000182523 0.117401)
(0.000222227 -0.000223455 0.117591)
(0.000113081 -4.80035e-05 0.118869)
(0.000187641 -0.000370852 0.121897)
(-1.65493e-05 0.000538112 0.118652)
(-1.82286e-05 -0.000450741 0.0813822)
(0.00168683 -0.00397876 0.0233974)
(7.74654e-06 -0.000212598 0.116658)
(3.20219e-05 -0.000207573 0.116676)
(4.98852e-05 -0.000212095 0.116758)
(7.44901e-05 -0.000194052 0.116807)
(0.00010809 -0.000195819 0.116947)
(0.000126171 -0.000165478 0.117069)
(0.000174555 -0.000176008 0.117283)
(0.000181375 -0.00011317 0.1174)
(0.00022731 -0.000187314 0.117726)
(0.000267519 1.92779e-06 0.119119)
(3.45085e-07 -0.000215028 0.120226)
(0.000704457 -3.1219e-05 0.0941397)
(9.84286e-05 -0.00327946 0.031206)
(-0.00287536 -0.000923745 0.00613815)
(7.06268e-06 -0.000167025 0.116463)
(3.61531e-05 -0.000164658 0.11648)
(5.19925e-05 -0.000163106 0.116539)
(8.29539e-05 -0.000155554 0.116596)
(0.000104018 -0.000150959 0.116719)
(0.000144447 -0.000144621 0.11685)
(0.00016443 -0.000126524 0.117069)
(0.000211838 -0.000123648 0.117256)
(0.000237033 -8.02521e-05 0.117485)
(0.000245705 -6.54601e-05 0.11796)
(0.00032844 -5.73737e-05 0.120539)
(-0.000112654 0.000196549 0.119419)
(0.00011471 -0.000276882 0.0806546)
(0.00241437 -0.0058482 0.0267984)
(1.01628e-05 -0.000127177 0.116317)
(3.58488e-05 -0.000124299 0.116337)
(5.88789e-05 -0.000125943 0.116396)
(8.65344e-05 -0.00011734 0.116461)
(0.000119093 -0.000119307 0.116586)
(0.000150603 -0.000104062 0.116719)
(0.000195048 -0.000108489 0.116946)
(0.000227413 -7.3995e-05 0.117161)
(0.000287098 -8.32858e-05 0.117486)
(0.000319624 -1.0181e-05 0.117713)
(0.000369136 -2.04743e-05 0.119401)
(0.000166579 7.7058e-05 0.121845)
(0.000279844 1.53592e-05 0.097457)
(0.00285959 0.0010046 0.0265838)
(0.000538464 -0.00102705 0.00578061)
(9.90475e-06 -9.47095e-05 0.116216)
(3.73617e-05 -9.34589e-05 0.116234)
(5.8897e-05 -9.26817e-05 0.116283)
(8.95142e-05 -8.9374e-05 0.116348)
(0.000117298 -8.64999e-05 0.11646)
(0.000155201 -8.25935e-05 0.116595)
(0.000193561 -7.46214e-05 0.116805)
(0.000235082 -6.52148e-05 0.117036)
(0.000301768 -4.55722e-05 0.117371)
(0.000316321 -1.74811e-05 0.117693)
(0.00044934 -1.30873e-05 0.118997)
(0.000122224 0.000115266 0.120551)
(0.000632605 -0.000132677 0.0961338)
(0.0021833 0.000119367 0.030814)
(0.000391071 -0.0007414 0.00526605)
(1.14317e-05 -6.3679e-05 0.116156)
(3.78821e-05 -6.25524e-05 0.116174)
(6.29695e-05 -6.2887e-05 0.11622)
(9.27148e-05 -5.89186e-05 0.116284)
(0.000125946 -5.89424e-05 0.116396)
(0.000162587 -5.18446e-05 0.116537)
(0.000211755 -5.0212e-05 0.116756)
(0.000254476 -3.77396e-05 0.117009)
(0.000335583 -2.44754e-05 0.117394)
(0.0003569 -1.7042e-05 0.117802)
(0.000514759 4.3735e-05 0.119027)
(0.000240697 -0.000113632 0.119607)
(0.000731071 -4.39289e-05 0.0954738)
(0.000361489 -0.00426742 0.0272836)
(-0.000910941 -0.00108127 0.00235779)
(1.10541e-05 -3.83267e-05 0.116126)
(3.81517e-05 -3.82451e-05 0.116139)
(6.25334e-05 -3.76949e-05 0.116175)
(9.34546e-05 -3.70345e-05 0.116235)
(0.000124424 -3.56924e-05 0.116336)
(0.000164042 -3.57369e-05 0.116478)
(0.000207423 -3.19983e-05 0.116674)
(0.000259404 -3.47485e-05 0.116934)
(0.000322037 -2.38496e-05 0.117247)
(0.000391758 -4.07885e-05 0.117652)
(0.000439785 1.15e-05 0.118357)
(0.000497481 -0.000110341 0.121002)
(0.000107782 5.92187e-05 0.119843)
(0.000316056 -0.000431214 0.0789405)
(0.00357579 -0.00571495 0.0342618)
(1.20685e-05 -1.21995e-05 0.11612)
(3.85141e-05 -1.11521e-05 0.116127)
(6.41825e-05 -1.14566e-05 0.116157)
(9.47125e-05 -9.91809e-06 0.116216)
(0.000127269 -1.02494e-05 0.116317)
(0.000166376 -7.19157e-06 0.116461)
(0.00021269 -8.06264e-06 0.116657)
(0.000261636 -2.09384e-06 0.116926)
(0.000327346 -5.11479e-06 0.117242)
(0.000388759 5.18609e-06 0.117646)
(0.000468513 -4.04435e-06 0.117985)
(0.000478901 3.36857e-05 0.119704)
(0.000307027 -5.81185e-05 0.122463)
(0.000114153 0.000330844 0.0986835)
(0.00239019 -0.00155309 0.0286112)
(2.03656e-05 -0.00190892 0.00834908)
(-0.000457819 -0.00173022 0.00814713)
(-0.000281094 -0.000214781 0.0990101)
(0.000344255 -0.000485159 0.0793656)
(0.00242929 -0.00989347 0.0343587)
(0.00127773 -0.00626518 0.0263977)
(-0.000557388 -0.00514906 0.0215499)
(0.000191789 -0.00237109 0.00886542)
(0.000117044 -0.00116207 0.122558)
(0.000322201 -0.000996253 0.119965)
(0.000216147 -0.00111531 0.0958973)
(2.93938e-05 -0.000831524 0.0963644)
(-7.69613e-05 -0.000364573 0.0977233)
(2.83256e-05 -0.000180452 0.0807787)
(0.00114705 -0.00910688 0.0262247)
(0.000434289 -0.00345233 0.00727808)
(-4.92261e-05 -0.00113567 0.11974)
(7.03815e-05 -0.0012266 0.12106)
(-2.81462e-05 -0.00110462 0.119692)
(-0.000209861 -0.000822727 0.120592)
(-6.40221e-05 -0.000849822 0.121904)
(-0.000115083 -0.000402623 0.119449)
(0.000166017 -0.000845509 0.0941801)
(0.000398535 -7.16306e-06 0.0814584)
(0.00186639 -0.00710013 0.0212957)
(-0.000752965 -0.00135402 0.0058775)
(5.34663e-06 -0.00115932 0.117906)
(0.000123868 -0.00113052 0.118298)
(7.75181e-06 -0.00115155 0.11907)
(9.90515e-06 -0.000985384 0.119)
(6.63622e-05 -0.000877797 0.119431)
(2.24817e-05 -0.000793979 0.120574)
(0.000267437 -0.000433896 0.120294)
(-0.000399552 -0.000310725 0.118722)
(0.000470781 -0.000715123 0.0763789)
(0.00155635 -0.0081105 0.0350265)
(-0.00627174 0.00253085 0.00312534)
(-1.31906e-05 -0.000939219 0.117554)
(7.13416e-05 -0.000941303 0.117564)
(3.29081e-05 -0.000972969 0.117727)
(5.87864e-05 -0.000854509 0.117605)
(0.000102154 -0.000857353 0.117629)
(0.000184903 -0.000714114 0.117889)
(0.00017216 -0.000633674 0.119086)
(0.000519725 -0.000511038 0.121949)
(-0.000141583 -3.10728e-05 0.116893)
(0.000424836 -0.000428543 0.0755536)
(0.00153881 -0.00780838 0.0357341)
(-0.00662608 0.00257402 0.00319359)
(8.52232e-06 -0.000815475 0.117148)
(0.000103136 -0.000795265 0.117155)
(0.000101325 -0.000807755 0.117318)
(0.000137111 -0.000729904 0.11729)
(0.000217359 -0.000705532 0.117411)
(0.00023075 -0.000616371 0.117414)
(0.000382378 -0.000580972 0.117666)
(0.00029578 -0.000427096 0.118827)
(0.000590356 -0.000596525 0.121965)
(2.61144e-05 0.000137937 0.116883)
(0.000715631 -0.000471504 0.0763589)
(0.00171958 -0.00721523 0.0266942)
(7.10045e-06 -0.00064742 0.116837)
(8.22049e-05 -0.000637162 0.116845)
(0.000102132 -0.000659882 0.116921)
(0.000164819 -0.000606953 0.116948)
(0.00022113 -0.000605271 0.117073)
(0.000316111 -0.000558425 0.117174)
(0.000356856 -0.000503149 0.11732)
(0.000506684 -0.000508369 0.117529)
(0.000423039 -0.000297491 0.118823)
(0.000507796 -0.000518881 0.12194)
(0.000309871 0.000400757 0.118713)
(5.53187e-06 -0.000398478 0.0814573)
(0.0016707 -0.00397842 0.0234329)
(1.8621e-05 -0.000522589 0.116573)
(9.0959e-05 -0.000510502 0.11659)
(0.00013215 -0.000518422 0.116673)
(0.000192361 -0.000481595 0.11672)
(0.000267413 -0.000481184 0.116859)
(0.000335297 -0.000436458 0.116982)
(0.000434089 -0.000435603 0.117199)
(0.000501446 -0.000357931 0.117319)
(0.000577507 -0.000383475 0.117661)
(0.000631565 -0.000170729 0.119079)
(0.000431118 -0.000267448 0.120287)
(0.000844746 -0.00016653 0.0941772)
(0.000183035 -0.00323196 0.0313059)
(-0.00288629 -0.000916083 0.00615055)
(1.9202e-05 -0.000404226 0.116383)
(8.61662e-05 -0.00039831 0.1164)
(0.000130758 -0.000405339 0.116457)
(0.000201691 -0.000385516 0.116512)
(0.000266149 -0.0003825 0.116632)
(0.000362074 -0.000362366 0.116762)
(0.000435377 -0.000335799 0.116982)
(0.000557071 -0.000315831 0.117172)
(0.000614811 -0.000230636 0.11741)
(0.000712504 -0.00018224 0.117884)
(0.000791781 -2.26097e-05 0.12057)
(0.000398377 0.00011622 0.119449)
(0.000180146 -2.90854e-05 0.0807823)
(0.0024056 -0.00582933 0.0268799)
(2.4628e-05 -0.000308131 0.116244)
(8.98279e-05 -0.00030253 0.116263)
(0.000144879 -0.000305796 0.11632)
(0.000215007 -0.000289383 0.116382)
(0.000290427 -0.000290756 0.116503)
(0.000382003 -0.000266433 0.116632)
(0.000480229 -0.000267968 0.116858)
(0.000604071 -0.000220894 0.117071)
(0.000704167 -0.000217356 0.117407)
(0.00085514 -0.000100687 0.117626)
(0.000875128 -6.67561e-05 0.119428)
(0.000847203 6.47042e-05 0.121904)
(0.000364109 7.62638e-05 0.0977249)
(0.00287622 0.0010101 0.0267353)
(0.000552651 -0.00101167 0.00579378)
(2.47924e-05 -0.000226068 0.116148)
(8.85159e-05 -0.000223462 0.116165)
(0.00014391 -0.000225205 0.116212)
(0.000216707 -0.000216678 0.116273)
(0.0002891 -0.000215052 0.116381)
(0.000384999 -0.000201545 0.116512)
(0.000481028 -0.000192389 0.116718)
(0.000606101 -0.000164179 0.116945)
(0.000729282 -0.00013725 0.117287)
(0.000852279 -5.83736e-05 0.117603)
(0.000983929 -1.01934e-05 0.118998)
(0.000821159 0.000211301 0.120592)
(0.000831605 -2.91507e-05 0.0963657)
(0.00225745 0.000142034 0.0309877)
(0.000385131 -0.000737712 0.00529148)
(2.74379e-05 -0.000153017 0.116092)
(9.07069e-05 -0.000150687 0.116108)
(0.000151686 -0.00015169 0.116152)
(0.000225161 -0.000144106 0.116213)
(0.00030558 -0.000145078 0.11632)
(0.000404854 -0.000130698 0.116456)
(0.000517965 -0.00013232 0.116672)
(0.000658555 -0.000101937 0.116919)
(0.000805961 -0.000101906 0.117316)
(0.000970339 -3.26028e-05 0.117723)
(0.00115075 -8.0912e-06 0.119068)
(0.0011053 2.82413e-05 0.119691)
(0.00111659 -0.000217016 0.0958996)
(0.000421365 -0.00420175 0.0274914)
(-0.000940843 -0.0010837 0.00238346)
(2.71864e-05 -9.04364e-05 0.116064)
(8.98451e-05 -8.99678e-05 0.116076)
(0.000150497 -9.06529e-05 0.116109)
(0.000223299 -8.83735e-05 0.116166)
(0.000302497 -8.95784e-05 0.116262)
(0.000397816 -8.55737e-05 0.116398)
(0.000510072 -9.0685e-05 0.116589)
(0.000635897 -8.14362e-05 0.116843)
(0.000794643 -0.000103407 0.117153)
(0.000939118 -7.08712e-05 0.117561)
(0.00112926 -0.000124499 0.118298)
(0.00122524 -7.24457e-05 0.121059)
(0.000992386 -0.00032647 0.119961)
(0.00048471 -0.000346464 0.0793632)
(0.00355227 -0.00577511 0.0344879)
(2.86995e-05 -2.88595e-05 0.116059)
(9.04926e-05 -2.75141e-05 0.116065)
(0.00015328 -2.76474e-05 0.116092)
(0.000226216 -2.5043e-05 0.116148)
(0.000308362 -2.47795e-05 0.116244)
(0.000403767 -1.93245e-05 0.116382)
(0.000522318 -1.89646e-05 0.116572)
(0.000645564 -7.52355e-06 0.116835)
(0.000813378 -9.13475e-06 0.117147)
(0.000936235 1.30684e-05 0.11755)
(0.00115631 -5.90887e-06 0.117906)
(0.00113181 4.87213e-05 0.119736)
(0.00115294 -0.000118852 0.122555)
(0.000213004 0.000279311 0.0990045)
(0.00235746 -0.00157261 0.0288135)
(2.00833e-05 -0.00191839 0.00838518)
(-0.000453192 -0.00173911 0.00818945)
(-5.01247e-05 -0.000458831 0.0997117)
(0.000473701 -0.000858554 0.0803921)
(0.00234915 -0.0101325 0.0347295)
(0.00113928 -0.00649135 0.0267078)
(-0.000636718 -0.00530205 0.0218097)
(0.000178484 -0.00238804 0.00890858)
(0.00021143 -0.00232975 0.122628)
(0.00103343 -0.00236653 0.120092)
(0.000522839 -0.00193184 0.0968514)
(-0.000168748 -0.00133688 0.0968239)
(-0.000117449 -0.000667052 0.0982869)
(-0.000224653 -0.000386592 0.0811674)
(0.00104981 -0.00917265 0.0263541)
(0.000417417 -0.00345328 0.00727759)
(-5.49086e-05 -0.00191345 0.119749)
(8.75342e-05 -0.00210816 0.121099)
(-0.00018357 -0.00234481 0.119895)
(-0.000338047 -0.00176912 0.120634)
(-4.52112e-05 -0.00180309 0.121986)
(4.6352e-07 -0.00113297 0.119493)
(0.000422772 -0.00114031 0.0942977)
(0.000484136 -0.000159394 0.0817813)
(0.00182693 -0.00713158 0.0213549)
(-0.00076172 -0.00135714 0.00588204)
(1.03382e-05 -0.00195519 0.117754)
(0.000345474 -0.0019322 0.118157)
(0.000109098 -0.00193403 0.119125)
(8.33838e-06 -0.0016222 0.11896)
(0.00015028 -0.00150225 0.119426)
(2.72178e-05 -0.00134924 0.120567)
(0.000358864 -0.00097616 0.120361)
(-0.000148887 -0.000781394 0.118868)
(0.000555745 -0.000882086 0.0767042)
(0.00152151 -0.00813812 0.0350728)
(-0.00627805 0.00253047 0.00312713)
(-1.93703e-05 -0.0015289 0.117395)
(0.000120204 -0.00153034 0.117406)
(6.00749e-05 -0.00169477 0.11761)
(0.000104609 -0.00146459 0.117459)
(0.000215615 -0.00149035 0.117486)
(0.000341394 -0.00127335 0.117757)
(0.000427028 -0.00110708 0.118995)
(0.000781643 -0.000930118 0.122)
(0.000121277 -0.00039347 0.117069)
(0.000543164 -0.000549565 0.075787)
(0.0015442 -0.00781562 0.0357751)
(-0.00663663 0.0025747 0.0031964)
(1.38962e-05 -0.00131755 0.116973)
(0.000197194 -0.00128425 0.116982)
(0.000190108 -0.00130801 0.117172)
(0.000231255 -0.00117974 0.117137)
(0.000361926 -0.00115234 0.117258)
(0.000407849 -0.00102792 0.117269)
(0.000625698 -0.000983857 0.117545)
(0.000639026 -0.000821518 0.118751)
(0.000919245 -0.000926834 0.122051)
(0.000383486 -0.000126103 0.117058)
(0.000880461 -0.000555909 0.0766801)
(0.00172655 -0.0072395 0.0267516)
(1.30172e-05 -0.00102677 0.116669)
(0.000131606 -0.00101046 0.116678)
(0.000167363 -0.00107332 0.116759)
(0.000261773 -0.00098627 0.116783)
(0.000371479 -0.000995652 0.116903)
(0.000520165 -0.000922291 0.117011)
(0.00063714 -0.000858513 0.117162)
(0.000844347 -0.000846737 0.117417)
(0.000816405 -0.000641265 0.118747)
(0.000925273 -0.000780924 0.121991)
(0.000780484 0.000153666 0.118856)
(0.000158161 -0.000483119 0.0817789)
(0.00166103 -0.00400948 0.0234749)
(2.97681e-05 -0.000823142 0.116414)
(0.000150548 -0.00080486 0.116432)
(0.000214036 -0.000819861 0.116514)
(0.000307724 -0.000764666 0.116558)
(0.000425381 -0.000764179 0.116689)
(0.000546959 -0.000710219 0.116811)
(0.000704505 -0.000706026 0.117029)
(0.000856312 -0.000638313 0.117162)
(0.000979644 -0.000626368 0.117541)
(0.00110426 -0.000424938 0.118987)
(0.000974116 -0.000356101 0.120355)
(0.00113964 -0.00042049 0.0942938)
(0.000327413 -0.00317369 0.0313951)
(-0.0028994 -0.00091644 0.00615823)
(3.11549e-05 -0.000631491 0.116238)
(0.000134813 -0.000622816 0.116254)
(0.000207323 -0.000640537 0.116308)
(0.000316891 -0.000609507 0.11636)
(0.000425307 -0.000609721 0.11647)
(0.000578263 -0.000578634 0.116597)
(0.000709053 -0.000547536 0.116811)
(0.000920701 -0.000519968 0.11701)
(0.00102604 -0.000407426 0.117265)
(0.00127223 -0.000337628 0.117752)
(0.00134963 -2.58659e-05 0.120563)
(0.00113142 2.573e-06 0.119494)
(0.000385355 0.00022583 0.0811687)
(0.00241944 -0.00585014 0.026953)
(3.86382e-05 -0.000480352 0.11611)
(0.000141599 -0.000472434 0.116128)
(0.000227416 -0.000477971 0.11618)
(0.000338503 -0.000454826 0.116237)
(0.000456195 -0.000456676 0.116348)
(0.000609149 -0.00042573 0.11647)