/*--------------------------------*- C++ -*----------------------------------*\
| =========                 |                                                 |
| \\      /  F ield         | OpenFOAM: The Open Source CFD Toolbox           |
|  \\    /   O peration     | Version:  2.1.1                                 |
|   \\  /    A nd           | Web:      www.OpenFOAM.org                      |
|    \\/     M anipulation  |                                                 |
\*---------------------------------------------------------------------------*/
FoamFile
{
    version     2.0;
    format      ascii;
    class       volScalarField;
    location    "0.0015";
    object      Th;
}
// * * * * * * * * * * * * * * * * * * * * * * * * * * * * * * * * * * * * * //

dimensions      [0 0 0 0 0 0 0];

internalField   nonuniform List<scalar> 
10260
(
1.99395e-13
2.24651e-13
1.0017e-14
1.00596e-14
1e-14
1.0204e-14
1.12154e-14
1.38637e-13
1e-14
1e-14
1e-14
1.00005e-14
1.00008e-14
1.01067e-14
1.01829e-14
1e-14
1.00001e-14
1e-14
1e-14
1e-14
1e-14
1.00001e-14
1.00007e-14
1.01082e-14
1.08365e-14
4.28355e-13
1.00001e-14
1e-14
1e-14
1e-14
1e-14
1e-14
1e-14
1e-14
1e-14
1.00318e-14
3.69541e-13
1.00001e-14
1e-14
1e-14
1e-14
1e-14
1e-14
1e-14
1e-14
1e-14
1e-14
1.00316e-14
3.62124e-13
1.00002e-14
1e-14
1e-14
1e-14
1e-14
1e-14
1e-14
1e-14
1e-14
1.00001e-14
1e-14
1.03485e-14
1.00002e-14
1e-14
1e-14
1e-14
1e-14
1e-14
1e-14
1e-14
1e-14
1e-14
1.00001e-14
1.01084e-14
1e-14
1.00001e-14
1e-14
1e-14
1e-14
1e-14
1e-14
1e-14
1e-14
1e-14
1e-14
1e-14
1.00008e-14
1e-14
1.35509e-13
1e-14
1e-14
1e-14
1e-14
1e-14
1e-14
1e-14
1e-14
1e-14
1e-14
1e-14
1e-14
1.01084e-14
1.0017e-14
1e-14
1e-14
1e-14
1e-14
1e-14
1e-14
1e-14
1e-14
1e-14
1e-14
1e-14
1e-14
1.00008e-14
1.00184e-14
5.27093e-13
1e-14
1e-14
1e-14
1.00001e-14
1e-14
1e-14
1e-14
1.00001e-14
1e-14
1e-14
1e-14
1.00001e-14
1.00006e-14
1e-14
1e-14
1.00001e-14
1e-14
1e-14
1e-14
1e-14
1.00001e-14
1e-14
1.00001e-14
1e-14
1e-14
1e-14
1e-14
1e-14
1e-14
1e-14
1.00002e-14
1e-14
1e-14
1e-14
1e-14
1e-14
1e-14
1e-14
1e-14
1e-14
1e-14
1e-14
1e-14
1.00606e-14
1e-14
1.00002e-14
1e-14
1.00002e-14
1.00001e-14
1e-14
1e-14
1.00001e-14
1e-14
1e-14
1e-14
1e-14
1e-14
1.00001e-14
1.0018e-14
1.07382e-14
2.00151e-13
2.25786e-13
1.00158e-14
1.00546e-14
1e-14
1.01965e-14
1.13972e-14
1.39224e-13
1e-14
1e-14
1e-14
1.00005e-14
1.00007e-14
1.0101e-14
1.01753e-14
1e-14
1.00001e-14
1e-14
1e-14
1e-14
1e-14
1e-14
1.00007e-14
1.00996e-14
1.08376e-14
4.28706e-13
1.00001e-14
1e-14
1e-14
1e-14
1e-14
1e-14
1e-14
1e-14
1e-14
1.00267e-14
3.72727e-13
1.00001e-14
1e-14
1e-14
1e-14
1e-14
1e-14
1e-14
1e-14
1e-14
1e-14
1.0027e-14
3.6525e-13
1.00001e-14
1e-14
1e-14
1e-14
1e-14
1e-14
1e-14
1e-14
1e-14
1e-14
1e-14
1.03404e-14
1.00001e-14
1e-14
1e-14
1e-14
1e-14
1e-14
1e-14
1e-14
1e-14
1e-14
1e-14
1.00997e-14
1e-14
1.00001e-14
1e-14
1e-14
1e-14
1e-14
1e-14
1e-14
1e-14
1e-14
1e-14
1e-14
1.00007e-14
1e-14
1.36824e-13
1e-14
1e-14
1e-14
1e-14
1e-14
1e-14
1e-14
1e-14
1e-14
1e-14
1e-14
1e-14
1.01013e-14
1.00639e-14
1e-14
1e-14
1e-14
1e-14
1e-14
1e-14
1e-14
1e-14
1e-14
1e-14
1e-14
1e-14
1.00007e-14
1.00189e-14
5.26119e-13
1e-14
1e-14
1e-14
1e-14
1e-14
1e-14
1e-14
1e-14
1e-14
1e-14
1e-14
1e-14
1.00005e-14
1e-14
1e-14
1e-14
1e-14
1e-14
1e-14
1e-14
1e-14
1e-14
1e-14
1e-14
1e-14
1e-14
1e-14
1.00001e-14
1e-14
1e-14
1.00001e-14
1e-14
1e-14
1e-14
1e-14
1e-14
1e-14
1e-14
1e-14
1e-14
1e-14
1e-14
1e-14
1.00546e-14
1e-14
1.00001e-14
1e-14
1.00001e-14
1.00001e-14
1e-14
1e-14
1e-14
1e-14
1e-14
1e-14
1e-14
1e-14
1e-14
1.00159e-14
1.07452e-14
2.00242e-13
2.25892e-13
1.00156e-14
1.00536e-14
1e-14
1.0198e-14
1.14322e-14
1.39265e-13
1e-14
1e-14
1e-14
1.00005e-14
1.00007e-14
1.01001e-14
1.01764e-14
1e-14
1e-14
1e-14
1e-14
1e-14
1e-14
1e-14
1.00006e-14
1.00985e-14
1.08422e-14
4.28628e-13
1e-14
1e-14
1e-14
1e-14
1e-14
1e-14
1e-14
1e-14
1e-14
1.00257e-14
3.72781e-13
1e-14
1e-14
1e-14
1e-14
1e-14
1e-14
1e-14
1e-14
1e-14
1e-14
1.00264e-14
3.65262e-13
1e-14
1e-14
1e-14
1e-14
1e-14
1e-14
1e-14
1e-14
1e-14
1e-14
1e-14
1.0341e-14
1e-14
1e-14
1e-14
1e-14
1e-14
1e-14
1e-14
1e-14
1e-14
1e-14
1e-14
1.00986e-14
1e-14
1.00001e-14
1e-14
1e-14
1e-14
1e-14
1e-14
1e-14
1e-14
1e-14
1e-14
1e-14
1.00006e-14
1e-14
1.36778e-13
1.00001e-14
1e-14
1e-14
1e-14
1e-14
1e-14
1e-14
1e-14
1e-14
1e-14
1e-14
1e-14
1.01002e-14
1.00677e-14
1e-14
1e-14
1e-14
1e-14
1e-14
1e-14
1e-14
1e-14
1e-14
1e-14
1e-14
1e-14
1.00007e-14
1.00192e-14
5.25711e-13
1e-14
1e-14
1e-14
1e-14
1e-14
1e-14
1e-14
1e-14
1e-14
1e-14
1e-14
1e-14
1.00005e-14
1e-14
1e-14
1e-14
1e-14
1e-14
1e-14
1e-14
1e-14
1e-14
1e-14
1e-14
1e-14
1e-14
1e-14
1e-14
1e-14
1e-14
1e-14
1e-14
1e-14
1e-14
1e-14
1e-14
1e-14
1e-14
1e-14
1e-14
1e-14
1e-14
1e-14
1.00536e-14
1e-14
1.00001e-14
1e-14
1e-14
1.00001e-14
1e-14
1e-14
1e-14
1.00001e-14
1.00001e-14
1.00001e-14
1e-14
1e-14
1e-14
1.00156e-14
1.07529e-14
2.00233e-13
2.25875e-13
1.00158e-14
1.00539e-14
1e-14
1.01979e-14
1.14365e-14
1.39293e-13
1e-14
1e-14
1e-14
1.00005e-14
1.00007e-14
1.00999e-14
1.01768e-14
1e-14
1e-14
1e-14
1e-14
1e-14
1e-14
1e-14
1.00006e-14
1.00981e-14
1.08433e-14
4.2863e-13
1e-14
1e-14
1e-14
1e-14
1e-14
1e-14
1e-14
1e-14
1e-14
1.00256e-14
3.72734e-13
1e-14
1e-14
1e-14
1e-14
1e-14
1e-14
1e-14
1e-14
1e-14
1e-14
1.00264e-14
3.65222e-13
1e-14
1e-14
1e-14
1e-14
1e-14
1e-14
1e-14
1e-14
1e-14
1e-14
1e-14
1.03404e-14
1.00001e-14
1e-14
1e-14
1e-14
1e-14
1e-14
1e-14
1e-14
1e-14
1e-14
1e-14
1.00982e-14
1e-14
1.00001e-14
1e-14
1e-14
1e-14
1e-14
1e-14
1e-14
1e-14
1e-14
1e-14
1e-14
1.00006e-14
1e-14
1.36677e-13
1.00001e-14
1e-14
1e-14
1e-14
1e-14
1e-14
1e-14
1e-14
1e-14
1e-14
1e-14
1e-14
1.01e-14
1.0061e-14
1e-14
1e-14
1e-14
1e-14
1e-14
1e-14
1e-14
1e-14
1e-14
1e-14
1e-14
1e-14
1.00007e-14
1.00191e-14
5.25593e-13
1e-14
1e-14
1e-14
1e-14
1e-14
1e-14
1e-14
1e-14
1e-14
1e-14
1e-14
1e-14
1.00005e-14
1e-14
1e-14
1e-14
1e-14
1e-14
1e-14
1e-14
1e-14
1e-14
1e-14
1e-14
1e-14
1e-14
1e-14
1e-14
1e-14
1e-14
1e-14
1e-14
1e-14
1e-14
1e-14
1e-14
1e-14
1e-14
1e-14
1e-14
1e-14
1e-14
1e-14
1.00539e-14
1e-14
1e-14
1e-14
1e-14
1e-14
1e-14
1e-14
1e-14
1.00001e-14
1e-14
1e-14
1e-14
1e-14
1e-14
1.00157e-14
1.07546e-14
2.00106e-13
2.25707e-13
1.00164e-14
1.0056e-14
1e-14
1.0199e-14
1.14442e-14
1.39324e-13
1e-14
1e-14
1e-14
1.00004e-14
1.00007e-14
1.01e-14
1.01775e-14
1e-14
1e-14
1e-14
1e-14
1e-14
1e-14
1e-14
1.00006e-14
1.00968e-14
1.08422e-14
4.28611e-13
1e-14
1e-14
1e-14
1e-14
1e-14
1e-14
1e-14
1e-14
1e-14
1.00256e-14
3.72693e-13
1e-14
1e-14
1e-14
1e-14
1e-14
1e-14
1e-14
1e-14
1e-14
1e-14
1.00265e-14
3.65181e-13
1e-14
1e-14
1e-14
1e-14
1e-14
1e-14
1e-14
1e-14
1e-14
1e-14
1e-14
1.03398e-14
1.00001e-14
1e-14
1e-14
1e-14
1e-14
1e-14
1e-14
1e-14
1e-14
1e-14
1e-14
1.00968e-14
1e-14
1e-14
1e-14
1e-14
1e-14
1e-14
1e-14
1e-14
1e-14
1e-14
1e-14
1e-14
1.00006e-14
1e-14
1.36452e-13
1e-14
1e-14
1e-14
1e-14
1e-14
1e-14
1e-14
1e-14
1e-14
1e-14
1e-14
1e-14
1.01001e-14
1.00497e-14
1e-14
1e-14
1e-14
1e-14
1e-14
1e-14
1e-14
1e-14
1e-14
1e-14
1e-14
1e-14
1.00007e-14
1.0019e-14
5.25401e-13
1e-14
1e-14
1e-14
1e-14
1e-14
1e-14
1e-14
1e-14
1e-14
1e-14
1e-14
1e-14
1.00005e-14
1e-14
1e-14
1e-14
1e-14
1e-14
1e-14
1e-14
1e-14
1e-14
1e-14
1e-14
1e-14
1e-14
1e-14
1e-14
1e-14
1e-14
1e-14
1e-14
1e-14
1e-14
1e-14
1e-14
1e-14
1e-14
1e-14
1e-14
1e-14
1e-14
1e-14
1.0056e-14
1e-14
1.00001e-14
1e-14
1e-14
1e-14
1e-14
1e-14
1.00001e-14
1e-14
1e-14
1e-14
1e-14
1e-14
1e-14
1.00164e-14
1.07569e-14
1.99656e-13
2.25103e-13
1.00144e-14
1.00598e-14
1e-14
1.0206e-14
1.1484e-14
1.39335e-13
1e-14
1e-14
1e-14
1.00004e-14
1.00007e-14
1.01011e-14
1.01789e-14
1e-14
1e-14
1e-14
1e-14
1e-14
1e-14
1e-14
1.00005e-14
1.01099e-14
1.08342e-14
4.28449e-13
1e-14
1e-14
1e-14
1e-14
1e-14
1e-14
1e-14
1e-14
1e-14
1.00254e-14
3.72515e-13
1e-14
1e-14
1e-14
1e-14
1e-14
1e-14
1e-14
1e-14
1e-14
1e-14
1.00266e-14
3.64983e-13
1e-14
1e-14
1e-14
1e-14
1e-14
1e-14
1e-14
1e-14
1e-14
1e-14
1e-14
1.03383e-14
1e-14
1e-14
1e-14
1e-14
1e-14
1e-14
1e-14
1e-14
1e-14
1e-14
1e-14
1.011e-14
1e-14
1e-14
1e-14
1e-14
1e-14
1e-14
1e-14
1e-14
1e-14
1e-14
1e-14
1e-14
1.00005e-14
1e-14
1.35799e-13
1e-14
1e-14
1e-14
1e-14
1e-14
1e-14
1e-14
1e-14
1e-14
1e-14
1e-14
1e-14
1.01011e-14
1.00317e-14
1e-14
1e-14
1e-14
1e-14
1e-14
1e-14
1e-14
1e-14
1e-14
1e-14
1e-14
1e-14
1.00007e-14
1.00188e-14
5.24779e-13
1e-14
1e-14
1e-14
1e-14
1e-14
1e-14
1e-14
1e-14
1e-14
1e-14
1e-14
1e-14
1.00005e-14
1e-14
1e-14
1e-14
1e-14
1e-14
1e-14
1e-14
1e-14
1e-14
1.00001e-14
1e-14
1e-14
1e-14
1e-14
1e-14
1e-14
1e-14
1e-14
1e-14
1e-14
1e-14
1e-14
1e-14
1e-14
1e-14
1e-14
1e-14
1e-14
1e-14
1e-14
1.00599e-14
1e-14
1.00001e-14
1e-14
1e-14
1e-14
1.00001e-14
1.00001e-14
1e-14
1e-14
1e-14
1e-14
1e-14
1e-14
1e-14
1.00144e-14
1.07553e-14
1.96763e-13
2.22185e-13
1.0039e-14
1.00978e-14
1e-14
1.01769e-14
1.14449e-14
1.38892e-13
1e-14
1e-14
1e-14
1.00005e-14
1.00019e-14
1.01104e-14
1.01949e-14
1e-14
1e-14
1e-14
1e-14
1e-14
1e-14
1e-14
1.00006e-14
1.00702e-14
1.1026e-14
4.27512e-13
1e-14
1e-14
1e-14
1e-14
1e-14
1e-14
1e-14
1e-14
1e-14
1.00272e-14
3.72305e-13
1e-14
1e-14
1e-14
1e-14
1e-14
1e-14
1e-14
1e-14
1e-14
1e-14
1.00282e-14
3.6432e-13
1e-14
1e-14
1e-14
1e-14
1e-14
1e-14
1e-14
1e-14
1e-14
1e-14
1e-14
1.03496e-14
1e-14
1e-14
1e-14
1e-14
1e-14
1e-14
1e-14
1e-14
1e-14
1e-14
1e-14
1.00703e-14
1e-14
1e-14
1e-14
1e-14
1e-14
1e-14
1e-14
1e-14
1e-14
1e-14
1e-14
1e-14
1.00006e-14
1e-14
1.32102e-13
1e-14
1e-14
1e-14
1e-14
1e-14
1e-14
1e-14
1e-14
1e-14
1e-14
1e-14
1e-14
1.01104e-14
1.00138e-14
1e-14
1e-14
1e-14
1e-14
1e-14
1e-14
1e-14
1e-14
1e-14
1e-14
1e-14
1e-14
1.00019e-14
1.00149e-14
5.24947e-13
1e-14
1e-14
1e-14
1e-14
1e-14
1e-14
1e-14
1e-14
1e-14
1e-14
1e-14
1e-14
1.00005e-14
1e-14
1e-14
1e-14
1e-14
1e-14
1e-14
1e-14
1e-14
1e-14
1e-14
1e-14
1e-14
1e-14
1e-14
1e-14
1e-14
1e-14
1e-14
1e-14
1e-14
1e-14
1e-14
1.00001e-14
1e-14
1e-14
1e-14
1e-14
1e-14
1e-14
1e-14
1.00977e-14
1e-14
1e-14
1e-14
1e-14
1e-14
1.00001e-14
1e-14
1e-14
1e-14
1e-14
1.00001e-14
1.00001e-14
1e-14
1e-14
1.00391e-14
1.0525e-14
1.7851e-14
1.60089e-14
1.0006e-14
1.00093e-14
1e-14
1.00548e-14
1.04097e-14
1.66101e-14
1e-14
1e-14
1e-14
1e-14
1.00002e-14
1.00069e-14
1.00336e-14
1.28572e-14
1e-14
1e-14
1e-14
1e-14
1e-14
1e-14
1.00001e-14
1.00037e-14
1.01764e-14
1e-14
1e-14
1e-14
1e-14
1e-14
1e-14
1e-14
1e-14
1e-14
1e-14
1e-14
1e-14
1e-14
1e-14
1e-14
1e-14
1e-14
1e-14
1e-14
1e-14
1e-14
1e-14
1e-14
1e-14
1e-14
1e-14
1e-14
1e-14
1e-14
1e-14
1e-14
1e-14
1e-14
1e-14
1e-14
1e-14
1e-14
1e-14
1e-14
1e-14
1e-14
1e-14
1e-14
1e-14
1e-14
1e-14
1e-14
1.00037e-14
1.0181e-14
1e-14
1e-14
1e-14
1e-14
1e-14
1e-14
1e-14
1e-14
1e-14
1e-14
1e-14
1e-14
1.00006e-14
1e-14
1e-14
1e-14
1e-14
1e-14
1e-14
1e-14
1e-14
1e-14
1e-14
1e-14
1e-14
1e-14
1.00069e-14
1.04094e-14
1e-14
1e-14
1e-14
1e-14
1e-14
1e-14
1e-14
1e-14
1e-14
1e-14
1e-14
1e-14
1.00003e-14
1e-14
1e-14
1e-14
1e-14
1e-14
1e-14
1e-14
1e-14
1e-14
1e-14
1e-14
1e-14
1e-14
1e-14
1.00001e-14
1.0001e-14
1.87811e-14
1e-14
1e-14
1e-14
1e-14
1e-14
1e-14
1e-14
1e-14
1e-14
1e-14
1e-14
1e-14
1e-14
1e-14
1.03936e-14
1e-14
1e-14
1e-14
1e-14
1e-14
1e-14
1e-14
1e-14
1e-14
1e-14
1e-14
1e-14
1e-14
1.00093e-14
1.03208e-14
1e-14
1e-14
1e-14
1.00001e-14
1.00001e-14
1e-14
1e-14
1e-14
1e-14
1.00001e-14
1e-14
1e-14
1e-14
1.0006e-14
1e-14
1.0028e-14
1.00114e-14
1.00002e-14
1.00007e-14
1.0001e-14
1e-14
1e-14
1.00012e-14
1.00132e-14
1e-14
1e-14
1e-14
1e-14
1e-14
1.00006e-14
1.00002e-14
1.00025e-14
1e-14
1e-14
1e-14
1e-14
1e-14
1e-14
1e-14
1.00004e-14
1.00011e-14
1e-14
1e-14
1e-14
1e-14
1e-14
1e-14
1e-14
1e-14
1e-14
1e-14
1e-14
1e-14
1e-14
1e-14
1e-14
1e-14
1e-14
1e-14
1e-14
1e-14
1e-14
1e-14
1e-14
1e-14
1e-14
1e-14
1e-14
1e-14
1e-14
1e-14
1e-14
1e-14
1e-14
1e-14
1e-14
1e-14
1e-14
1e-14
1e-14
1e-14
1e-14
1e-14
1e-14
1e-14
1e-14
1e-14
1e-14
1.00004e-14
1.00009e-14
1e-14
1e-14
1e-14
1e-14
1e-14
1e-14
1e-14
1e-14
1e-14
1e-14
1e-14
1e-14
1e-14
1e-14
1e-14
1e-14
1e-14
1e-14
1e-14
1e-14
1e-14
1e-14
1e-14
1e-14
1e-14
1e-14
1.00006e-14
1.00018e-14
1e-14
1e-14
1e-14
1e-14
1e-14
1e-14
1e-14
1e-14
1e-14
1e-14
1e-14
1e-14
1e-14
1e-14
1e-14
1e-14
1e-14
1e-14
1e-14
1e-14
1e-14
1e-14
1e-14
1e-14
1e-14
1e-14
1e-14
1e-14
1.00165e-14
1e-14
1e-14
1e-14
1e-14
1e-14
1e-14
1e-14
1e-14
1e-14
1e-14
1e-14
1e-14
1e-14
1e-14
1.00009e-14
1e-14
1e-14
1e-14
1e-14
1e-14
1e-14
1e-14
1e-14
1e-14
1e-14
1e-14
1e-14
1e-14
1.0001e-14
1.0002e-14
1.00001e-14
1e-14
1e-14
1e-14
1e-14
1e-14
1e-14
1e-14
1e-14
1e-14
1e-14
1e-14
1e-14
1.00007e-14
1e-14
1.00003e-14
1e-14
1e-14
1.00001e-14
1.00001e-14
1e-14
1e-14
1e-14
1e-14
1e-14
1e-14
1e-14
1e-14
1e-14
1e-14
1e-14
1e-14
1e-14
1e-14
1e-14
1e-14
1e-14
1e-14
1e-14
1.00001e-14
1e-14
1e-14
1e-14
1e-14
1e-14
1e-14
1e-14
1e-14
1e-14
1e-14
1e-14
1e-14
1e-14
1e-14
1e-14
1e-14
1e-14
1e-14
1e-14
1e-14
1e-14
1e-14
1e-14
1e-14
1e-14
1e-14
1e-14
1e-14
1e-14
1e-14
1e-14
1e-14
1e-14
1e-14
1e-14
1e-14
1e-14
1e-14
1e-14
1e-14
1e-14
1e-14
1e-14
1e-14
1e-14
1e-14
1e-14
1e-14
1.00001e-14
1e-14
1e-14
1e-14
1e-14
1e-14
1e-14
1e-14
1e-14
1e-14
1e-14
1e-14
1e-14
1e-14
1e-14
1e-14
1e-14
1e-14
1e-14
1e-14
1e-14
1e-14
1e-14
1e-14
1e-14
1e-14
1e-14
1e-14
1e-14
1e-14
1e-14
1e-14
1e-14
1e-14
1e-14
1e-14
1e-14
1e-14
1e-14
1e-14
1e-14
1e-14
1e-14
1e-14
1e-14
1e-14
1e-14
1e-14
1e-14
1e-14
1e-14
1e-14
1e-14
1e-14
1e-14
1e-14
1e-14
1e-14
1e-14
1e-14
1e-14
1e-14
1e-14
1e-14
1e-14
1e-14
1e-14
1e-14
1e-14
1e-14
1e-14
1e-14
1e-14
1e-14
1e-14
1e-14
1e-14
1e-14
1e-14
1e-14
1e-14
1e-14
1e-14
1e-14
1e-14
1e-14
1e-14
1.00001e-14
1e-14
1.00001e-14
1e-14
1e-14
1e-14
1e-14
1e-14
1e-14
1e-14
1e-14
1e-14
1e-14
1e-14
1e-14
1.00001e-14
1e-14
1.00002e-14
1e-14
1e-14
1e-14
1e-14
1e-14
1e-14
1e-14
1e-14
1e-14
1e-14
1e-14
1e-14
1e-14
1e-14
1e-14
1e-14
1e-14
1e-14
1e-14
1e-14
1e-14
1e-14
1e-14
1e-14
1e-14
1e-14
1e-14
1e-14
1e-14
1e-14
1e-14
1e-14
1e-14
1e-14
1e-14
1e-14
1e-14
1e-14
1e-14
1e-14
1e-14
1e-14
1e-14
1e-14
1e-14
1e-14
1e-14
1e-14
1e-14
1e-14
1e-14
1e-14
1e-14
1e-14
1e-14
1e-14
1e-14
1e-14
1e-14
1e-14
1e-14
1e-14
1e-14
1e-14
1e-14
1e-14
1e-14
1e-14
1e-14
1e-14
1e-14
1e-14
1e-14
1e-14
1e-14
1e-14
1e-14
1e-14
1e-14
1e-14
1e-14
1e-14
1e-14
1e-14
1e-14
1e-14
1e-14
1e-14
1e-14
1e-14
1e-14
1e-14
1e-14
1e-14
1e-14
1e-14
1e-14
1e-14
1e-14
1e-14
1e-14
1e-14
1e-14
1e-14
1e-14
1e-14
1e-14
1e-14
1e-14
1e-14
1e-14
1e-14
1e-14
1e-14
1e-14
1e-14
1e-14
1e-14
1e-14
1e-14
1e-14
1e-14
1e-14
1e-14
1e-14
1e-14
1e-14
1e-14
1e-14
1e-14
1e-14
1e-14
1e-14
1e-14
1e-14
1e-14
1e-14
1e-14
1e-14
1e-14
1e-14
1e-14
1e-14
1e-14
1e-14
1e-14
1.00001e-14
1e-14
1e-14
1e-14
1e-14
1e-14
1e-14
1e-14
1e-14
1e-14
1e-14
1e-14
1e-14
1e-14
1e-14
1.00001e-14
1e-14
1.00001e-14
1.00001e-14
1e-14
1e-14
1e-14
1e-14
1e-14
1e-14
1e-14
1e-14
1e-14
1e-14
1e-14
1e-14
1e-14
1e-14
1e-14
1e-14
1e-14
1e-14
1e-14
1e-14
1e-14
1e-14
1e-14
1e-14
1e-14
1e-14
1e-14
1e-14
1e-14
1e-14
1e-14
1e-14
1e-14
1e-14
1e-14
1e-14
1e-14
1e-14
1e-14
1e-14
1e-14
1e-14
1e-14
1e-14
1e-14
1e-14
1e-14
1e-14
1e-14
1e-14
1e-14
1e-14
1e-14
1e-14
1e-14
1e-14
1e-14
1e-14
1e-14
1e-14
1e-14
1e-14
1e-14
1e-14
1e-14
1e-14
1e-14
1e-14
1e-14
1e-14
1e-14
1e-14
1e-14
1e-14
1e-14
1e-14
1e-14
1e-14
1e-14
1e-14
1e-14
1e-14
1e-14
1e-14
1e-14
1e-14
1e-14
1e-14
1e-14
1e-14
1e-14
1e-14
1e-14
1e-14
1e-14
1e-14
1e-14
1e-14
1e-14
1e-14
1e-14
1e-14
1e-14
1e-14
1e-14
1e-14
1e-14
1e-14
1e-14
1e-14
1e-14
1e-14
1e-14
1e-14
1e-14
1e-14
1e-14
1e-14
1e-14
1e-14
1e-14
1e-14
1e-14
1e-14
1e-14
1e-14
1e-14
1e-14
1e-14
1.00001e-14
1e-14
1e-14
1e-14
1e-14
1e-14
1e-14
1e-14
1e-14
1e-14
1e-14
1e-14
1e-14
1e-14
1.00001e-14
1e-14
1e-14
1e-14
1e-14
1e-14
1e-14
1e-14
1e-14
1e-14
1e-14
1e-14
1e-14
1e-14
1.00001e-14
1.00001e-14
1e-14
1e-14
1e-14
1e-14
1e-14
1e-14
1e-14
1e-14
1e-14
1e-14
1e-14
1e-14
1e-14
1e-14
1.00001e-14
1.00001e-14
1e-14
1e-14
1e-14
1e-14
1e-14
1e-14
1e-14
1e-14
1e-14
1e-14
1e-14
1e-14
1e-14
1e-14
1e-14
1e-14
1e-14
1e-14
1e-14
1e-14
1e-14
1e-14
1e-14
1e-14
1e-14
1e-14
1e-14
1e-14
1e-14
1e-14
1e-14
1e-14
1e-14
1e-14
1e-14
1e-14
1e-14
1e-14
1e-14
1e-14
1e-14
1e-14
1e-14
1e-14
1e-14
1e-14
1e-14
1e-14
1e-14
1e-14
1e-14
1.00001e-14
1e-14
1e-14
1e-14
1e-14
1e-14
1e-14
1e-14
1e-14
1e-14
1e-14
1e-14
1.00001e-14
1e-14
1e-14
1e-14
1e-14
1e-14
1e-14
1e-14
1e-14
1e-14
1e-14
1e-14
1e-14
1e-14
1e-14
1e-14
1e-14
1e-14
1e-14
1e-14
1e-14
1e-14
1e-14
1e-14
1e-14
1e-14
1e-14
1e-14
1e-14
1e-14
1e-14
1e-14
1e-14
1e-14
1e-14
1e-14
1e-14
1e-14
1e-14
1.00001e-14
1e-14
1e-14
1e-14
1e-14
1e-14
1e-14
1e-14
1e-14
1e-14
1e-14
1e-14
1e-14
1e-14
1.00001e-14
1e-14
1e-14
1e-14
1e-14
1e-14
1e-14
1e-14
1e-14
1e-14
1e-14
1e-14
1e-14
1e-14
1.00001e-14
1e-14
1e-14
1e-14
1e-14
1e-14
1e-14
1e-14
1e-14
1e-14
1e-14
1e-14
1e-14
1e-14
1e-14
1e-14
1e-14
1e-14
1e-14
1e-14
1e-14
1e-14
1e-14
1e-14
1e-14
1e-14
1e-14
1e-14
1e-14
1.00001e-14
1e-14
1e-14
1e-14
1e-14
1e-14
1e-14
1e-14
1e-14
1e-14
1e-14
1e-14
1e-14
1e-14
1e-14
1e-14
1.00002e-14
1.00001e-14
1e-14
1e-14
1e-14
1e-14
1e-14
1e-14
1e-14
1.00001e-14
1.00001e-14
1e-14
1e-14
1e-14
1e-14
1e-14
1e-14
1e-14
1e-14
1e-14
1e-14
1e-14
1e-14
1e-14
1.00001e-14
1e-14
1e-14
1e-14
1e-14
1e-14
1.00001e-14
1e-14
1e-14
1e-14
1e-14
1e-14
1e-14
1e-14
1e-14
1e-14
1e-14
1e-14
1e-14
1e-14
1e-14
1e-14
1e-14
1e-14
1e-14
1e-14
1e-14
1e-14
1e-14
1e-14
1e-14
1e-14
1e-14
1e-14
1e-14
1e-14
1e-14
1e-14
1e-14
1e-14
1e-14
1e-14
1e-14
1e-14
1e-14
1e-14
1e-14
1e-14
1e-14
1e-14
1e-14
1e-14
1e-14
1e-14
1e-14
1e-14
1e-14
1e-14
1e-14
1e-14
1e-14
1e-14
1e-14
1e-14
1e-14
1e-14
1e-14
1e-14
1e-14
1e-14
1e-14
1e-14
1e-14
1e-14
1e-14
1e-14
1e-14
1e-14
1e-14
1e-14
1.00001e-14
1e-14
1e-14
1e-14
1e-14
1e-14
1e-14
1e-14
1e-14
1e-14
1e-14
1e-14
1e-14
1e-14
1e-14
1e-14
1e-14
1e-14
1e-14
1e-14
1e-14
1e-14
1e-14
1e-14
1e-14
1e-14
1e-14
1e-14
1e-14
1e-14
1e-14
1e-14
1e-14
1e-14
1e-14
1e-14
1e-14
1e-14
1e-14
1e-14
1e-14
1e-14
1e-14
1e-14
1e-14
1e-14
1e-14
1e-14
1e-14
1e-14
1e-14
1e-14
1e-14
1e-14
1e-14
1e-14
1e-14
1e-14
1e-14
1e-14
1e-14
1e-14
1e-14
1e-14
1e-14
1e-14
1e-14
1e-14
1e-14
1e-14
1e-14
1e-14
1e-14
1.00003e-14
1.00001e-14
1.00001e-14
1e-14
1e-14
1e-14
1e-14
1e-14
1e-14
1e-14
1e-14
1e-14
1e-14
1e-14
1e-14
1.00001e-14
1e-14
1e-14
1e-14
1e-14
1e-14
1e-14
1e-14
1e-14
1e-14
1e-14
1e-14
1e-14
1e-14
1e-14
1e-14
1e-14
1e-14
1e-14
1e-14
1e-14
1e-14
1e-14
1e-14
1e-14
1e-14
1e-14
1e-14
1e-14
1e-14
1e-14
1e-14
1e-14
1e-14
1e-14
1e-14
1e-14
1e-14
1e-14
1e-14
1e-14
1e-14
1e-14
1e-14
1e-14
1e-14
1e-14
1e-14
1e-14
1e-14
1e-14
1e-14
1e-14
1e-14
1e-14
1e-14
1e-14
1e-14
1e-14
1e-14
1e-14
1e-14
1e-14
1e-14
1e-14
1e-14
1e-14
1e-14
1e-14
1e-14
1e-14
1e-14
1e-14
1e-14
1e-14
1.00001e-14
1e-14
1e-14
1e-14
1e-14
1e-14
1e-14
1e-14
1e-14
1e-14
1e-14
1e-14
1e-14
1e-14
1e-14
1e-14
1e-14
1e-14
1e-14
1e-14
1e-14
1e-14
1e-14
1e-14
1e-14
1e-14
1e-14
1e-14
1e-14
1e-14
1e-14
1e-14
1e-14
1e-14
1e-14
1e-14
1e-14
1e-14
1e-14
1e-14
1e-14
1e-14
1e-14
1e-14
1e-14
1e-14
1e-14
1e-14
1e-14
1e-14
1e-14
1e-14
1e-14
1e-14
1e-14
1e-14
1e-14
1e-14
1e-14
1e-14
1e-14
1e-14
1e-14
1e-14
1e-14
1e-14
1e-14
1e-14
1e-14
1e-14
1e-14
1e-14
1e-14
1e-14
1e-14
1e-14
1e-14
1e-14
1e-14
1e-14
1e-14
1e-14
1e-14
1e-14
1e-14
1e-14
1e-14
1.00002e-14
1.00001e-14
1.00001e-14
1e-14
1e-14
1e-14
1e-14
1e-14
1e-14
1e-14
1e-14
1e-14
1e-14
1e-14
1e-14
2.29326e-13
2.44137e-13
1.12984e-14
1.14781e-14
2.59543e-13
1.18358e-14
1.33726e-14
1.95026e-14
1.03771e-14
1.00703e-14
2.8873e-14
3.52105e-14
5.55087e-13
1.36324e-14
1.9834e-14
1.01018e-14
1.00213e-14
1.57778e-13
1.10303e-14
1.68778e-14
1.07138e-14
2.12723e-13
4.68227e-13
1.05579e-14
1.41079e-14
1.00083e-14
1.00848e-14
3.96323e-14
1.04431e-14
1.89207e-14
1e-14
1.26953e-14
2.02816e-13
1.003e-14
1.03611e-14
4.78957e-13
1.41051e-14
5.26465e-13
5.2298e-13
1.28983e-14
5.2494e-13
5.27459e-13
1.41191e-14
4.78981e-13
1.03614e-14
2.02814e-13
1.00309e-14
1.26962e-14
1e-14
1.89234e-14
1.04442e-14
3.97578e-14
4.67734e-13
1.00853e-14
1.41269e-14
1.00092e-14
1.06005e-14
2.12658e-13
1.0762e-14
1.67525e-14
1.10601e-14
1.58007e-13
1.00234e-14
1.9798e-14
1.00993e-14
1.35638e-14
5.54937e-13
3.28891e-14
2.84897e-14
1.00422e-14
1.03982e-14
1.95783e-14
1.33291e-14
1.18554e-14
2.60145e-13
1.14928e-14
2.44554e-13
1.13009e-14
2.29608e-13
2.10246e-13
1.06188e-14
1.07286e-14
2.27727e-13
2.42734e-13
1.10965e-14
1.12708e-14
1.11124e-14
1e-14
2.5829e-13
1.15694e-14
1.27296e-14
1.01079e-14
1e-14
1.78082e-14
1.03075e-14
1.00176e-14
1e-14
1.0046e-14
2.6877e-14
1e-14
5.25757e-13
3.11982e-14
5.53198e-13
1e-14
1e-14
1.00182e-14
1.28029e-14
1.9127e-14
1.00609e-14
1.00209e-14
1.06574e-14
1.00042e-14
1.57274e-13
1.08905e-14
1.56294e-14
1e-14
1.35176e-13
1.07384e-14
2.11199e-13
4.12114e-13
4.66175e-13
1.10076e-14
1.00002e-14
1e-14
1.04933e-14
1.34122e-14
1.00059e-14
1.00629e-14
1.03772e-14
1e-14
3.80836e-14
1.03702e-14
1.69278e-14
1.35342e-14
1e-14
1.76226e-13
1e-14
1.03481e-14
1.24402e-14
2.01203e-13
1.00223e-14
1.03023e-14
1e-14
3.61641e-13
4.76608e-13
1.2797e-14
5.24999e-13
1e-14
3.70811e-13
5.21184e-13
1.18194e-14
5.23197e-13
1e-14
4.2835e-13
5.25951e-13
1.28056e-14
4.76605e-13
1.76215e-13
1e-14
1.08365e-14
1.03023e-14
2.01205e-13
1.00223e-14
1.244e-14
1.3532e-14
1e-14
1.03764e-14
1e-14
1.6931e-14
1.03702e-14
3.80382e-14
4.12113e-13
4.66201e-13
1.1046e-14
1.00002e-14
1.01857e-14
1.00639e-14
1.34346e-14
1.00061e-14
1.04983e-14
1e-14
2.11254e-13
1.07433e-14
1.06693e-14
1.38928e-13
1.56826e-14
1.09023e-14
1.57333e-13
1e-14
1e-14
1.13547e-14
1.00209e-14
1.91372e-14
1.0063e-14
1.28648e-14
1e-14
5.53261e-13
3.14135e-14
1.00179e-14
2.70316e-14
1.00452e-14
1.02494e-14
1.03127e-14
1.78743e-14
1.11211e-14
2.254e-13
1.27509e-14
1.15816e-14
2.58365e-13
2.10933e-13
1.06286e-14
2.00139e-13
1.12811e-14
2.42804e-13
1.11089e-14
2.27958e-13
2.11121e-13
1.06334e-14
1.07431e-14
2.27752e-13
2.42729e-13
1.10903e-14
1.12644e-14
1.11111e-14
1e-14
2.58403e-13
1.15673e-14
1.26041e-14
1.0587e-14
1e-14
1.74734e-14
1.03044e-14
1.0016e-14
1e-14
1.0041e-14
2.69452e-14
1e-14
5.26137e-13
3.14051e-14
5.53136e-13
1e-14
1e-14
1.00187e-14
1.27641e-14
1.89593e-14
1.00569e-14
1.00206e-14
1.06612e-14
1.00607e-14
1.57369e-13
1.08907e-14
1.55177e-14
1e-14
1.3684e-13
1.07854e-14
2.1099e-13
4.13048e-13
4.66446e-13
1.12052e-14
1.00002e-14
1e-14
1.04978e-14
1.33474e-14
1.00056e-14
1.00574e-14
1.03682e-14
1e-14
3.84906e-14
1.03698e-14
1.65195e-14
1.42877e-14
1e-14
1.76458e-13
1e-14
1.03401e-14
1.24558e-14
2.01381e-13
1.00221e-14
1.02996e-14
1e-14
3.64763e-13
4.76935e-13
1.24083e-14
5.24633e-13
1e-14
3.74008e-13
5.20857e-13
1.15307e-14
5.22863e-13
1e-14
4.28697e-13
5.25582e-13
1.24149e-14
4.76927e-13
1.76458e-13
1e-14
1.08377e-14
1.02999e-14
2.01384e-13
1.00221e-14
1.24555e-14
1.4287e-14
1e-14
1.03683e-14
1e-14
1.65231e-14
1.03702e-14
3.84796e-14
4.1307e-13
4.66504e-13
1.12106e-14
1.00003e-14
1.01761e-14
1.00577e-14
1.33494e-14
1.00059e-14
1.04988e-14
1e-14
2.11006e-13
1.0786e-14
1.06644e-14
1.39211e-13
1.55224e-14
1.0892e-14
1.57369e-13
1e-14
1e-14
1.14114e-14
1.00204e-14
1.89547e-14
1.0057e-14
1.27708e-14
1e-14
5.53229e-13
3.14263e-14
1.00169e-14
2.6962e-14
1.00412e-14
1.06e-14
1.03068e-14
1.74808e-14
1.1114e-14
2.25793e-13
1.26066e-14
1.1568e-14
2.58378e-13
2.11144e-13
1.06365e-14
2.00296e-13
1.12641e-14
2.42728e-13
1.10918e-14
2.27891e-13
2.11225e-13
1.0643e-14
1.07533e-14
2.27779e-13
2.42743e-13
1.10916e-14
1.12665e-14
1.11208e-14
1e-14
2.58421e-13
1.15714e-14
1.25862e-14
1.06854e-14
1e-14
1.74481e-14
1.03042e-14
1.00168e-14
1e-14
1.00413e-14
2.69358e-14
1e-14
5.25727e-13
3.14569e-14
5.53139e-13
1e-14
1e-14
1.00191e-14
1.27587e-14
1.89245e-14
1.0056e-14
1.00204e-14
1.06685e-14
1.00672e-14
1.57422e-13
1.08925e-14
1.54927e-14
1e-14
1.36785e-13
1.07977e-14
2.10892e-13
4.13209e-13
4.6657e-13
1.12405e-14
1.00002e-14
1e-14
1.04991e-14
1.33313e-14
1.00054e-14
1.0056e-14
1.03685e-14
1e-14
3.87395e-14
1.03684e-14
1.6459e-14
1.44727e-14
1e-14
1.76511e-13
1e-14
1.03405e-14
1.24598e-14
2.01436e-13
1.00213e-14
1.02988e-14
1e-14
3.64795e-13
4.76993e-13
1.23405e-14
5.2461e-13
1e-14
3.74046e-13
5.20816e-13
1.14794e-14
5.22824e-13
1e-14
4.28621e-13
5.25566e-13
1.23463e-14
4.77005e-13
1.76507e-13
1e-14
1.08421e-14
1.02992e-14
2.01437e-13
1.00214e-14
1.24601e-14
1.44722e-14
1e-14
1.03686e-14
1e-14
1.6461e-14
1.03687e-14
3.87358e-14
4.13256e-13
4.66589e-13
1.1242e-14
1.00002e-14
1.01768e-14
1.00561e-14
1.33325e-14
1.00057e-14
1.04996e-14
1e-14
2.10897e-13
1.07973e-14
1.06689e-14
1.39266e-13
1.54963e-14
1.0893e-14
1.5742e-13
1e-14
1e-14
1.14343e-14
1.00203e-14
1.89225e-14
1.00561e-14
1.27603e-14
1e-14
5.53164e-13
3.14606e-14
1.00183e-14
2.69411e-14
1.00406e-14
1.06878e-14
1.03045e-14
1.74499e-14
1.11212e-14
2.25909e-13
1.25882e-14
1.1571e-14
2.58416e-13
2.11225e-13
1.06435e-14
2.00382e-13
1.12653e-14
2.42735e-13
1.10922e-14
2.27889e-13
2.11187e-13
1.06441e-14
1.07552e-14
2.27774e-13
2.42783e-13
1.10962e-14
1.12732e-14
1.1124e-14
1e-14
2.58477e-13
1.15833e-14
1.26105e-14
1.07092e-14
1e-14
1.74927e-14
1.03038e-14
1.00174e-14
1e-14
1.00419e-14
2.6913e-14
1e-14
5.2559e-13
3.14805e-14
5.53109e-13
1e-14
1e-14
1.00191e-14
1.27608e-14
1.88727e-14
1.00557e-14
1.00204e-14
1.06689e-14
1.00605e-14
1.57497e-13
1.08938e-14
1.54886e-14
1e-14
1.36678e-13
1.08068e-14
2.10793e-13
4.13299e-13
4.66621e-13
1.1232e-14
1.00002e-14
1e-14
1.04994e-14
1.33162e-14
1.00052e-14
1.00549e-14
1.03664e-14
1e-14
3.89687e-14
1.03648e-14
1.64244e-14
1.44902e-14
1e-14
1.76536e-13
1e-14
1.03399e-14
1.24589e-14
2.01437e-13
1.0021e-14
1.02977e-14
1e-14
3.64745e-13
4.76987e-13
1.23349e-14
5.24628e-13
1e-14
3.74008e-13
5.20807e-13
1.14757e-14
5.22815e-13
1e-14
4.2862e-13
5.25585e-13
1.23423e-14
4.76998e-13
1.76532e-13
1e-14
1.08432e-14
1.0298e-14
2.01442e-13
1.00209e-14
1.2459e-14
1.4492e-14
1e-14
1.03663e-14
1e-14
1.64256e-14
1.03649e-14
3.89683e-14
4.13275e-13
4.66631e-13
1.12328e-14
1.00002e-14
1.01769e-14
1.00547e-14
1.33179e-14
1.00053e-14
1.04996e-14
1e-14
2.10796e-13
1.08069e-14
1.06691e-14
1.39293e-13
1.549e-14
1.08939e-14
1.57501e-13
1e-14
1e-14
1.14367e-14
1.00203e-14
1.88733e-14
1.00556e-14
1.27606e-14
1e-14
5.53096e-13
3.1474e-14
1.0017e-14
2.69124e-14
1.00419e-14
1.07079e-14
1.03046e-14
1.74945e-14
1.11237e-14
2.25889e-13
1.26116e-14
1.15826e-14
2.58454e-13
2.11201e-13
1.06446e-14
2.00358e-13
1.12717e-14
2.42769e-13
1.10969e-14
2.27912e-13
2.11089e-13
1.06443e-14
1.07576e-14
2.27806e-13
2.42884e-13
1.11067e-14
1.12899e-14
1.11304e-14
1e-14
2.5851e-13
1.16207e-14
1.27157e-14
1.07351e-14
1e-14
1.75844e-14
1.03104e-14
1.00164e-14
1e-14
1.00499e-14
2.6932e-14
1e-14
5.2539e-13
3.164e-14
5.53043e-13
1e-14
1e-14
1.00189e-14
1.27843e-14
1.8753e-14
1.0055e-14
1.00207e-14
1.06682e-14
1.00496e-14
1.57717e-13
1.08962e-14
1.55033e-14
1e-14
1.36455e-13
1.08236e-14
2.10722e-13
4.1334e-13
4.66678e-13
1.12153e-14
1.00001e-14
1e-14
1.05009e-14
1.33143e-14
1.00051e-14
1.00538e-14
1.03627e-14
1e-14
3.93034e-14
1.03606e-14
1.64347e-14
1.45033e-14
1e-14
1.76574e-13
1e-14
1.03394e-14
1.24619e-14
2.01433e-13
1.00209e-14
1.02977e-14
1e-14
3.64721e-13
4.7698e-13
1.2383e-14
5.24666e-13
1e-14
3.7397e-13
5.20819e-13
1.1498e-14
5.22823e-13
1e-14
4.28603e-13
5.25619e-13
1.23897e-14
4.7697e-13
1.76571e-13
1e-14
1.08423e-14
1.0298e-14
2.01442e-13
1.00208e-14
1.24618e-14
1.45029e-14
1e-14
1.03626e-14
1e-14
1.6435e-14
1.03607e-14
3.93016e-14
4.13333e-13
4.66697e-13
1.12162e-14
1.00001e-14
1.01775e-14
1.00537e-14
1.33157e-14
1.0005e-14
1.0501e-14
1e-14
2.10733e-13
1.08236e-14
1.06684e-14
1.39319e-13
1.5504e-14
1.08962e-14
1.57721e-13
1e-14
1e-14
1.14442e-14
1.00207e-14
1.87527e-14
1.0055e-14
1.27857e-14
1e-14
5.53054e-13
3.16454e-14
1.0017e-14
2.69355e-14
1.00497e-14
1.07345e-14
1.03108e-14
1.75848e-14
1.11302e-14
2.25719e-13
1.27164e-14
1.16198e-14
2.58497e-13
2.11087e-13
1.06449e-14
2.0024e-13
1.12883e-14
2.42864e-13
1.11077e-14
2.2795e-13
2.10688e-13
1.06382e-14
1.07561e-14
2.28054e-13
2.43345e-13
1.1148e-14
1.13559e-14
1.11471e-14
1e-14
2.58864e-13
1.17335e-14
1.30615e-14
1.08814e-14
1e-14
1.76257e-14
1.03624e-14
1.00169e-14
1e-14
1.0082e-14
2.75488e-14
1e-14
5.24782e-13
3.22793e-14
5.53458e-13
1e-14
1e-14
1.00187e-14
1.29191e-14
1.90085e-14
1.00539e-14
1.00232e-14
1.06623e-14
1.00316e-14
1.58444e-13
1.09136e-14
1.55868e-14
1e-14
1.35806e-13
1.08491e-14
2.10693e-13
4.13332e-13
4.67329e-13
1.12012e-14
1e-14
1e-14
1.05089e-14
1.34026e-14
1.00047e-14
1.00538e-14
1.03524e-14
1e-14
4.06943e-14
1.03738e-14
1.70634e-14
1.45025e-14
1e-14
1.76619e-13
1e-14
1.03381e-14
1.25317e-14
2.02106e-13
1.00199e-14
1.03077e-14
1e-14
3.6452e-13
4.77211e-13
1.26195e-14
5.24804e-13
1e-14
3.73801e-13
5.21007e-13
1.15834e-14
5.22949e-13
1e-14
4.28442e-13
5.25724e-13
1.2623e-14
4.77217e-13
1.76608e-13
1e-14
1.08343e-14
1.0308e-14
2.02118e-13
1.00198e-14
1.25318e-14
1.45032e-14
1e-14
1.03524e-14
1e-14
1.70642e-14
1.0374e-14
4.069e-14
4.13344e-13
4.67362e-13
1.1202e-14
1e-14
1.0179e-14
1.00539e-14
1.3403e-14
1.00048e-14
1.0509e-14
1e-14
2.10698e-13
1.08488e-14
1.06625e-14
1.39338e-13
1.55875e-14
1.09137e-14
1.58437e-13
1e-14
1e-14
1.14845e-14
1.00232e-14
1.90063e-14
1.0054e-14
1.29198e-14
1e-14
5.53464e-13
3.22797e-14
1.00163e-14
2.75498e-14
1.00816e-14
1.08799e-14
1.03622e-14
1.76271e-14
1.11469e-14
2.25116e-13
1.30617e-14
1.17318e-14
2.58847e-13
2.10691e-13
1.06388e-14
1.99799e-13
1.13534e-14
2.43322e-13
1.11489e-14
2.28181e-13
2.07884e-13
1.04169e-14
1.05269e-14
2.78514e-13
2.91804e-13
1.16312e-14
1.19431e-14
1.11116e-14
1e-14
3.07853e-13
1.20105e-14
1.37281e-14
1.0986e-14
1e-14
2.10001e-14
1.18377e-14
1.00069e-14
1e-14
1.05537e-14
2.41932e-14
1e-14
5.24952e-13
5.71104e-14
5.35436e-13
1e-14
1e-14
1.00149e-14
1.533e-14
4.25567e-14
1.01174e-14
1.00215e-14
1.0588e-14
1.00137e-14
1.83909e-13
1.07068e-14
1.57334e-14
1e-14
1.32094e-13
1.08835e-14
2.03809e-13
4.11436e-13
4.59006e-13
1.13568e-14
1e-14
1e-14
1.05254e-14
1.38957e-14
1.00044e-14
1.0063e-14
1.03597e-14
1e-14
4.76121e-14
1.01824e-14
1.32609e-14
1.31563e-14
1e-14
1.76275e-13
1e-14
1.03496e-14
1.30218e-14
2.28959e-13
1e-14
1.00907e-14
1e-14
3.63847e-13
4.73503e-13
1.16745e-14
4.80809e-13
1e-14
3.7351e-13
4.84985e-13
1.03888e-14
4.8539e-13
1e-14
4.27507e-13
4.81163e-13
1.16767e-14
4.73479e-13
1.76276e-13
1e-14
1.10265e-14
1.00908e-14
2.28966e-13
1e-14
1.30216e-14
1.31576e-14
1e-14
1.03598e-14
1e-14
1.32618e-14
1.01825e-14
4.76128e-14
4.11412e-13
4.59031e-13
1.13574e-14
1e-14
1.0195e-14
1.0063e-14
1.38964e-14
1.00044e-14
1.05255e-14
1e-14