/*--------------------------------*- C++ -*----------------------------------*\
| =========                 |                                                 |
| \\      /  F ield         | OpenFOAM: The Open Source CFD Toolbox           |
|  \\    /   O peration     | Version:  2.1.1                                 |
|   \\  /    A nd           | Web:      www.OpenFOAM.org                      |
|    \\/     M anipulation  |                                                 |
\*---------------------------------------------------------------------------*/
FoamFile
{
    version     2.0;
    format      ascii;
    class       surfaceScalarField;
    location    "0.002";
    object      phi;
}
// * * * * * * * * * * * * * * * * * * * * * * * * * * * * * * * * * * * * * //

dimensions      [0 3 -1 0 0 0 0];

internalField   nonuniform List<scalar> 
29335
(
-5.88015e-13
-1.43386e-11
5.65004e-11
-4.15744e-11
1.40756e-12
-2.0346e-12
-1.41867e-11
4.9753e-11
-3.49392e-11
1.96651e-12
-8.44823e-12
1.51899e-11
-8.7082e-12
1.97923e-13
-2.30617e-13
8.76771e-10
6.19511e-11
6.27926e-11
-6.19599e-11
-6.28061e-11
-8.76722e-10
3.02487e-14
-1.13727e-13
8.827e-10
6.46863e-11
6.60357e-11
-6.45391e-11
-6.59513e-11
-8.82651e-10
8.57401e-13
-2.9078e-13
9.79322e-10
5.74654e-11
4.00699e-11
-5.73833e-11
-4.0747e-11
-9.79262e-10
5.77832e-11
-3.25399e-13
7.65393e-10
4.26726e-11
4.82888e-11
-4.2335e-11
-4.81916e-11
4.44404e-11
-5.66415e-11
-4.48799e-11
-7.65346e-10
6.49197e-12
1.23855e-11
-1.35071e-11
1.16625e-10
-6.42125e-11
-2.54438e-12
-8.46668e-13
-9.66055e-12
4.238e-11
-2.93284e-11
-2.69817e-13
-5.82764e-15
1.12537e-09
-1.12534e-09
-6.02591e-13
1.79794e-13
1.13882e-09
-1.13878e-09
-7.4844e-13
-1.94227e-13
1.18512e-09
-1.18507e-09
-1.96486e-12
8.36409e-13
1.16364e-09
-1.16358e-09
8.25072e-13
-1.33773e-12
9.05389e-10
4.65732e-11
5.50152e-11
-4.79134e-11
-5.51665e-11
-9.0535e-10
6.50074e-11
-2.39453e-13
7.26097e-10
5.79149e-11
6.1593e-11
-5.74691e-11
-6.0843e-11
4.4682e-11
-6.45853e-11
-4.52694e-11
-7.26063e-10
1.62928e-11
1.40305e-11
-1.4442e-11
1.02077e-10
-5.29502e-11
-1.87529e-12
-3.10407e-12
-1.13051e-11
5.15969e-11
-3.53124e-11
2.28621e-13
-2.86434e-13
1.12802e-09
-1.12798e-09
6.06347e-13
-2.46533e-13
1.13611e-09
-1.13606e-09
6.67484e-13
-3.05709e-13
1.15259e-09
-1.15254e-09
1.76275e-12
-3.0789e-13
1.16741e-09
-1.16737e-09
4.49197e-13
-7.36536e-14
1.15595e-09
-1.1559e-09
-7.57665e-13
9.15636e-13
1.13338e-09
-1.13333e-09
1.62505e-12
-1.24398e-12
8.85586e-10
4.69671e-11
5.88974e-11
-4.81488e-11
-5.88934e-11
-8.85547e-10
5.83483e-11
-3.16642e-13
7.50827e-10
5.84187e-11
6.27974e-11
-5.79153e-11
-6.18839e-11
4.37695e-11
-5.72044e-11
-4.44279e-11
-7.50787e-10
1.144e-11
6.0196e-12
-1.43659e-11
1.27726e-10
-7.24708e-11
2.65386e-12
-1.23371e-11
2.34924e-11
-1.38092e-11
-1.33535e-13
-1.73565e-13
1.13021e-09
-1.13019e-09
-2.82471e-13
-1.13989e-13
1.13459e-09
-1.13457e-09
-3.17178e-13
-2.89512e-13
1.14003e-09
-1.14001e-09
-5.43099e-13
-1.08952e-13
1.14332e-09
-1.1433e-09
-1.24335e-13
-5.2122e-13
1.14546e-09
-1.14543e-09
9.32508e-13
-1.7704e-13
1.15309e-09
-1.15305e-09
-2.16926e-13
-1.3614e-13
1.1455e-09
-1.14545e-09
-1.64446e-12
1.06311e-12
1.13773e-09
-1.13768e-09
1.29819e-12
-1.76191e-12
8.84199e-10
4.52337e-11
5.28038e-11
-4.62766e-11
-5.29802e-11
-8.8416e-10
4.3266e-11
9.97817e-13
7.21988e-10
5.67647e-11
5.05338e-11
-5.62781e-11
-5.07566e-11
3.38155e-11
-4.23127e-11
-3.47697e-11
-7.2195e-10
1.06637e-11
4.51064e-11
-1.2504e-11
9.62955e-14
-2.88483e-13
1.13503e-09
-1.13501e-09
2.37629e-13
-2.68589e-13
1.13703e-09
-1.13702e-09
2.10463e-13
-2.80068e-13
1.13926e-09
-1.13924e-09
3.03471e-13
-2.19519e-13
1.1391e-09
-1.13908e-09
1.52313e-15
-2.45152e-13
1.13635e-09
-1.13632e-09
-1.39259e-13
-6.80656e-14
1.13365e-09
-1.13362e-09
3.7555e-14
-3.45318e-13
1.13501e-09
-1.13498e-09
1.23808e-12
-1.81789e-13
1.14215e-09
-1.1421e-09
-9.71415e-13
4.01301e-13
1.13125e-09
-1.1312e-09
-1.00871e-12
9.70453e-13
1.12441e-09
-1.12435e-09
5.05492e-11
-1.30197e-12
7.22739e-10
3.3717e-11
4.32519e-11
-3.46738e-11
-4.22947e-11
5.67826e-11
-5.07738e-11
-5.62996e-11
-7.22704e-10
1.88884e-11
4.72358e-11
-1.55742e-11
-3.73904e-14
-2.37708e-13
1.13805e-09
-1.13807e-09
-6.21424e-14
-2.26188e-13
1.13867e-09
-1.13869e-09
-7.69987e-14
-2.51205e-13
1.13938e-09
-1.13939e-09
-8.2485e-14
-2.04577e-13
1.13872e-09
-1.13873e-09
-8.02258e-14
-2.47881e-13
1.13616e-09
-1.13616e-09
4.05058e-15
-1.5775e-13
1.13203e-09
-1.13202e-09
-2.88352e-13
-7.96361e-14
1.12737e-09
-1.12735e-09
-3.86795e-13
-1.0828e-13
1.12295e-09
-1.12293e-09
-4.05773e-13
3.83068e-13
1.12568e-09
-1.12564e-09
1.76064e-12
-1.24393e-12
1.1318e-09
-1.13175e-09
5.29539e-11
1.63968e-12
8.84699e-10
4.52604e-11
-5.31283e-11
-4.63041e-11
-8.8466e-10
-6.88236e-12
1.02011e-11
3.20103e-13
9.04854e-11
-4.11701e-11
4.50919e-14
-2.63974e-13
1.13985e-09
-1.13987e-09
9.4786e-14
-2.54331e-13
1.13983e-09
-1.13985e-09
1.12102e-13
-2.50154e-13
1.13972e-09
-1.13974e-09
1.37944e-13
-2.19503e-13
1.13876e-09
-1.13877e-09
1.01305e-13
-2.02375e-13
1.13664e-09
-1.13664e-09
9.77004e-14
-1.55912e-13
1.13355e-09
-1.13355e-09
1.17657e-13
-1.00664e-13
1.12968e-09
-1.12967e-09
1.05184e-13
-1.20683e-13
1.1249e-09
-1.12488e-09
1.79161e-13
2.83881e-13
1.12335e-09
-1.12332e-09
-1.06655e-12
-4.32551e-14
1.14253e-09
-1.14248e-09
3.12751e-13
2.11876e-13
1.13795e-09
-1.1379e-09
6.27986e-11
-1.62758e-12
7.50873e-10
4.37505e-11
5.8342e-11
-4.44118e-11
-5.71989e-11
5.8417e-11
-6.1884e-11
-5.79147e-11
-7.50831e-10
5.81485e-12
1.0826e-11
-4.48168e-12
1.07296e-10
-5.66558e-11
1.02367e-14
-2.27615e-13
1.14126e-09
-1.14131e-09
2.60226e-14
-2.21718e-13
1.14098e-09
-1.14103e-09
4.21415e-14
-2.20872e-13
1.14053e-09
-1.14058e-09
6.01996e-14
-2.00922e-13
1.13944e-09
-1.13948e-09
7.41942e-14
-1.87073e-13
1.13761e-09
-1.13764e-09
9.53248e-14
-1.59597e-13
1.13532e-09
-1.13534e-09
9.78427e-14
-9.8892e-14
1.13277e-09
-1.13277e-09
7.65769e-14
-1.00693e-13
1.12985e-09
-1.12985e-09
3.4224e-13
-9.16098e-15
1.12757e-09
-1.12754e-09
1.31189e-13
1.3409e-13
1.13521e-09
-1.13518e-09
1.24134e-12
-9.41291e-13
1.14561e-09
-1.14557e-09
5.88977e-11
7.52279e-13
8.85596e-10
4.69617e-11
-5.88933e-11
-4.81447e-11
-8.85555e-10
5.55393e-12
1.26806e-11
-6.95963e-12
9.0904e-11
-4.32809e-11
-2.91736e-12
-4.89724e-12
2.65627e-11
-1.8748e-11
3.80249e-14
-2.11028e-13
1.14246e-09
-1.14252e-09
7.9388e-14
-2.06974e-13
1.14211e-09
-1.14217e-09
1.08705e-13
-1.97159e-13
1.14152e-09
-1.14158e-09
1.37388e-13
-1.84863e-13
1.14042e-09
-1.14047e-09
1.45065e-13
-1.56285e-13
1.13895e-09
-1.13899e-09
1.57404e-13
-1.47073e-13
1.13723e-09
-1.13726e-09
1.53179e-13
-7.82076e-14
1.13537e-09
-1.13538e-09
1.54627e-13
-1.04308e-13
1.13362e-09
-1.13361e-09
6.56284e-14
7.26684e-14
1.13212e-09
-1.13212e-09
1.73852e-13
-6.9849e-15
1.13371e-09
-1.13368e-09
-9.20379e-13
1.16128e-13
1.1531e-09
-1.15307e-09
2.35312e-13
-4.56806e-13
1.13334e-09
-1.13329e-09
6.15916e-11
-8.28787e-13
7.26057e-10
4.46889e-11
6.50099e-11
-4.52747e-11
-6.45875e-11
5.79123e-11
-6.08438e-11
-5.74692e-11
-7.26021e-10
1.1409e-11
7.98739e-12
-8.424e-12
1.19705e-10
-6.90854e-11
2.83676e-14
-1.69347e-13
1.14364e-09
-1.14372e-09
6.21213e-14
-1.67885e-13
1.1433e-09
-1.14337e-09
9.44842e-14
-1.60089e-13
1.14265e-09
-1.14272e-09
1.26606e-13
-1.56999e-13
1.14161e-09
-1.14167e-09
1.53431e-13
-1.2999e-13
1.14038e-09
-1.14043e-09
1.84516e-13
-1.40103e-13
1.13895e-09
-1.13899e-09
2.00174e-13
-6.49765e-14
1.13762e-09
-1.13765e-09
2.45193e-13
-1.41746e-13
1.13666e-09
-1.13667e-09
2.42201e-13
7.44547e-14
1.13619e-09
-1.13619e-09
5.20834e-13
-3.10738e-13
1.13636e-09
-1.13633e-09
6.90356e-14
5.37738e-13
1.14542e-09
-1.14539e-09
1.33229e-12
-1.77042e-12
1.15584e-09
-1.15579e-09
5.50138e-11
1.96028e-12
9.05295e-10
4.65656e-11
-5.51666e-11
-4.7908e-11
-9.05257e-10
5.84012e-12
1.00379e-11
-7.00818e-12
9.03438e-11
-4.41993e-11
4.0138e-14
-1.33435e-13
1.14483e-09
-1.14491e-09
8.30029e-14
-1.32576e-13
1.14448e-09
-1.14456e-09
1.22156e-13
-1.24035e-13
1.14377e-09
-1.14385e-09
1.55273e-13
-1.24185e-13
1.14287e-09
-1.14293e-09
1.83625e-13
-9.79191e-14
1.14168e-09
-1.14174e-09
1.99142e-13
-1.12097e-13
1.14043e-09
-1.14048e-09
2.17331e-13
-4.67269e-14
1.13944e-09
-1.13948e-09
2.02174e-13
-1.16406e-13
1.13875e-09
-1.13876e-09
2.17391e-13
6.82937e-14
1.13869e-09
-1.1387e-09
1.0616e-13
-2.16775e-13
1.13902e-09
-1.139e-09
3.04786e-13
3.11928e-13
1.14317e-09
-1.14314e-09
-8.40181e-13
-6.73551e-13
1.16718e-09
-1.16714e-09
3.22196e-13
7.43723e-13
1.16336e-09
-1.16331e-09
4.82875e-11
-8.5829e-13
7.65236e-10
4.44523e-11
5.77878e-11
-4.48918e-11
-5.66472e-11
4.26692e-11
-4.81901e-11
-4.23325e-11
-7.65191e-10
3.43614e-12
6.93117e-12
6.20921e-11
-2.4171e-11
3.80275e-14
-8.72966e-14
1.14605e-09
-1.14614e-09
7.97796e-14
-8.77253e-14
1.14563e-09
-1.14571e-09
1.21937e-13
-8.24111e-14
1.14489e-09
-1.14497e-09
1.57867e-13
-8.5878e-14
1.14388e-09
-1.14395e-09
1.95224e-13
-6.65098e-14
1.14267e-09
-1.14274e-09
2.19166e-13
-8.33925e-14
1.14152e-09
-1.14157e-09
2.48236e-13
-3.1022e-14
1.14052e-09
-1.14056e-09
2.48035e-13
-9.97769e-14
1.1397e-09
-1.13972e-09
2.77353e-13
5.46535e-14
1.13932e-09
-1.13933e-09
2.86732e-13
-2.4306e-13
1.13914e-09
-1.13913e-09
3.02828e-13
2.75975e-13
1.13983e-09
-1.13981e-09
1.92086e-13
-6.12363e-13
1.15224e-09
-1.15219e-09
2.90182e-13
5.96627e-13
1.18461e-09
-1.18456e-09
4.00603e-11
-3.37807e-14
9.78832e-10
5.74218e-11
-4.0736e-11
-5.73379e-11
-9.78774e-10
-7.6838e-12
-1.01506e-12
9.08502e-11
-4.2092e-11
4.29296e-14
-4.28202e-14
1.14725e-09
-1.14734e-09
8.69986e-14
-4.39229e-14
1.14669e-09
-1.14678e-09
1.31811e-13
-4.16498e-14
1.14573e-09
-1.14582e-09
1.66878e-13
-4.36763e-14
1.14453e-09
-1.14461e-09
2.06209e-13
-3.3288e-14
1.1433e-09
-1.14338e-09
2.20573e-13
-4.19672e-14
1.14211e-09
-1.14217e-09
2.52451e-13
-1.51451e-14
1.14097e-09
-1.14102e-09
2.27209e-13
-4.99241e-14
1.1398e-09
-1.13983e-09
2.67103e-13
2.96269e-14
1.13862e-09
-1.13864e-09
1.13301e-13
-1.02288e-13
1.13694e-09
-1.13692e-09
2.44794e-13
1.28363e-13
1.13442e-09
-1.1344e-09
-1.81448e-13
-2.33938e-13
1.13578e-09
-1.13573e-09
1.11168e-13
2.63706e-13
1.1382e-09
-1.13816e-09
6.59662e-11
-2.03661e-13
8.81948e-10
6.46087e-11
-6.58805e-11
-6.44636e-11
-8.81898e-10
4.37112e-12
1.30389e-11
-1.51959e-12
1.01939e-10
-5.18626e-11
4.10241e-14
1.14817e-09
-1.14826e-09
8.55616e-14
1.14727e-09
-1.14737e-09
1.31557e-13
1.14608e-09
-1.14617e-09
1.68063e-13
1.14486e-09
-1.14494e-09
2.10612e-13
1.14365e-09
-1.14373e-09
2.27111e-13
1.14245e-09
-1.14251e-09
2.62689e-13
1.14124e-09
-1.1413e-09
2.38211e-13
1.13983e-09
-1.13985e-09
2.85843e-13
1.13801e-09
-1.13803e-09
1.72255e-13
1.13496e-09
-1.13495e-09
2.85895e-13
1.13009e-09
-1.13007e-09
4.95315e-15
1.12784e-09
-1.1278e-09
2.27244e-13
1.12509e-09
-1.12505e-09
6.2734e-11
8.76452e-10
6.19478e-11
-6.27496e-11
-6.19622e-11
-8.76398e-10
-9.49055e-13
1.43493e-11
1.0821e-12
9.66666e-11
-4.84147e-11
-4.15753e-11
-5.88086e-13
-1.43397e-11
5.65013e-11
-3.49403e-11
1.4076e-12
-2.03435e-12
-1.41874e-11
4.97545e-11
-8.70851e-12
1.96647e-12
-8.44841e-12
1.51905e-11
2.00246e-13
-2.19401e-13
8.76811e-10
6.19534e-11
6.27946e-11
-6.19638e-11
-6.28094e-11
3.27096e-14
-1.05675e-13
8.82742e-10
6.46888e-11
6.60392e-11
-6.45423e-11
-6.59533e-11
8.61028e-13
-2.81767e-13
9.79369e-10
5.74674e-11
4.00723e-11
-5.73853e-11
-4.07478e-11
5.77871e-11
-3.19074e-13
7.65429e-10
4.26744e-11
4.82907e-11
-4.23364e-11
-4.8193e-11
4.44423e-11
-5.66417e-11
-4.48805e-11
-6.4215e-11
6.49114e-12
1.2387e-11
-1.35056e-11
1.1663e-10
-2.93294e-11
-2.54482e-12
-8.46439e-13
-9.66059e-12
4.23813e-11
-2.78533e-13
2.4061e-14
1.12541e-09
-6.06029e-13
1.80809e-13
1.13886e-09
-7.60722e-13
-1.64473e-13
1.18516e-09
-1.97707e-12
8.56402e-13
1.16368e-09
8.20374e-13
-1.32839e-12
9.05419e-10
4.65732e-11
5.50159e-11
-4.79171e-11
-5.51716e-11
6.50091e-11
-2.30804e-13
7.26125e-10
5.79158e-11
6.15947e-11
-5.7473e-11
-6.08459e-11
4.46829e-11
-6.45877e-11
-4.52711e-11
-5.29522e-11
1.62923e-11
1.40309e-11
-1.44419e-11
1.0208e-10
-3.53135e-11
-1.87575e-12
-3.10371e-12
-1.13055e-11
5.15984e-11
2.33404e-13
-2.50067e-13
1.12806e-09
6.04766e-13
-2.23011e-13
1.13615e-09
6.72251e-13
-2.72064e-13
1.15263e-09
1.76795e-12
-2.7869e-13
1.16745e-09
4.52154e-13
-5.10318e-14
1.15599e-09
-7.55779e-13
9.37494e-13
1.13342e-09
1.62843e-12
-1.2335e-12
8.85618e-10
4.69683e-11
5.88988e-11
-4.81512e-11
-5.88962e-11
5.83529e-11
-3.10461e-13
7.50859e-10
5.84209e-11
6.28006e-11
-5.7918e-11
-6.18855e-11
4.37715e-11
-5.72045e-11
-4.44289e-11
-7.24739e-11
1.14414e-11
6.02098e-12
-1.43659e-11
1.2773e-10
-1.38096e-11
2.6541e-12
-1.23375e-11
2.3493e-11
-1.38015e-13
-1.25601e-13
1.13022e-09
-3.01775e-13
-5.95158e-14
1.13459e-09
-3.3679e-13
-2.49509e-13
1.14005e-09
-5.7263e-13
-5.93561e-14
1.14334e-09
-1.39343e-13
-5.14478e-13
1.14549e-09
9.23356e-13
-1.5178e-13
1.15311e-09
-2.31722e-13
-1.09955e-13
1.14553e-09
-1.65446e-12
1.07546e-12
1.13777e-09
1.2949e-12
-1.75711e-12
8.84228e-10
4.52348e-11
5.28062e-11
-4.62791e-11
-5.29821e-11
4.32695e-11
9.96085e-13
7.22013e-10
5.67671e-11
5.05361e-11
-5.62803e-11
-5.07588e-11
3.38177e-11
-4.23101e-11
-3.47691e-11
-1.25018e-11
1.06615e-11
4.51097e-11
9.73277e-14
-2.38794e-13
1.13504e-09
2.39678e-13
-2.19361e-13
1.13705e-09
2.09833e-13
-2.33578e-13
1.13927e-09
3.06164e-13
-1.7476e-13
1.13912e-09
-1.67146e-14
-2.04101e-13
1.13636e-09
-1.58391e-13
-3.41259e-14
1.13368e-09
2.45537e-14
-3.1787e-13
1.13504e-09
1.2278e-12
-1.61559e-13
1.14218e-09
-9.80615e-13
4.17029e-13
1.13128e-09
-1.01101e-12
9.78898e-13
1.12446e-09
5.0552e-11
-1.29809e-12
7.22768e-10
3.37181e-11
4.32524e-11
-3.46751e-11
-4.22984e-11
5.67856e-11
-5.07747e-11
-5.63011e-11
-1.55747e-11
1.88897e-11
4.72379e-11
-4.56542e-14
-1.98057e-13
1.13805e-09
-7.79735e-14
-1.86896e-13
1.13867e-09
-9.96071e-14
-2.04024e-13
1.13937e-09
-1.06169e-13
-1.69695e-13
1.13873e-09
-1.05527e-13
-2.03492e-13
1.13617e-09
-2.07939e-14
-1.21918e-13
1.13204e-09
-3.16901e-13
-3.94396e-14
1.12739e-09
-4.08574e-13
-8.87029e-14
1.12297e-09
-4.22616e-13
4.03809e-13
1.12571e-09
1.7548e-12
-1.23444e-12
1.13184e-09
5.29558e-11
1.6486e-12
8.84728e-10
4.52612e-11
-5.313e-11
-4.63062e-11
-4.11726e-11
-6.88275e-12
1.02011e-11
3.19797e-13
9.04899e-11
3.96275e-14
-2.09337e-13
1.13982e-09
8.36889e-14
-2.01314e-13
1.1398e-09
9.54067e-14
-1.97699e-13
1.13971e-09
1.15272e-13
-1.72464e-13
1.13874e-09
7.42577e-14
-1.56409e-13
1.13663e-09
7.01837e-14
-1.19735e-13
1.13355e-09
9.40296e-14
-6.61474e-14
1.12968e-09
8.85211e-14
-9.78037e-14
1.12491e-09
1.58248e-13
3.1223e-13
1.12337e-09
-1.07855e-12
-3.12412e-14
1.14256e-09
3.07437e-13
2.26265e-13
1.13798e-09
6.28024e-11
-1.63045e-12
7.50903e-10
4.37525e-11
5.83457e-11
-4.44123e-11
-5.71987e-11
5.842e-11
-6.18856e-11
-5.79165e-11
-5.66577e-11
5.8138e-12
1.08274e-11
-4.48102e-12
1.073e-10
2.97837e-15
-1.76316e-13
1.14122e-09
1.07219e-14
-1.71864e-13
1.14095e-09
2.07974e-14
-1.71736e-13
1.1405e-09
3.21922e-14
-1.56008e-13
1.13941e-09
4.35946e-14
-1.44019e-13
1.13759e-09
5.9698e-14
-1.21901e-13
1.13531e-09
6.26719e-14
-6.42079e-14
1.13276e-09
3.43342e-14
-7.32407e-14
1.12985e-09
3.14308e-13
1.48573e-14
1.12758e-09
1.04515e-13
1.53243e-13
1.13523e-09
1.23149e-12
-9.32905e-13
1.14564e-09
5.88999e-11
7.49828e-13
8.85627e-10
4.6963e-11
-5.88956e-11
-4.81468e-11
-4.32819e-11
5.55369e-12
1.26812e-11
-6.95977e-12
9.09065e-11
-1.87488e-11
-2.91715e-12
-4.89766e-12
2.65637e-11
3.04442e-14
-1.6513e-13
1.14241e-09
6.37008e-14
-1.62088e-13
1.14207e-09
8.553e-14
-1.53106e-13
1.14148e-09
1.07324e-13
-1.44116e-13
1.14039e-09
1.10476e-13
-1.17384e-13
1.13892e-09
1.19299e-13
-1.12821e-13
1.13721e-09
1.16782e-13
-4.80802e-14
1.13535e-09
1.18434e-13
-7.69307e-14
1.13362e-09
3.13401e-14
9.76882e-14
1.13213e-09
1.48837e-13
8.1657e-15
1.13374e-09
-9.41457e-13
1.30522e-13
1.15313e-09
2.28121e-13
-4.60633e-13
1.13338e-09
6.15937e-11
-8.26173e-13
7.26083e-10
4.46903e-11
6.50126e-11
-4.52764e-11
-6.45896e-11
5.79141e-11
-6.08459e-11
-5.74712e-11
-6.9088e-11
1.14099e-11
7.98768e-12
-8.42444e-12
1.19709e-10
1.94043e-14
-1.30148e-13
1.14358e-09
4.38421e-14
-1.29593e-13
1.14324e-09
6.79232e-14
-1.22648e-13
1.14259e-09
9.25506e-14
-1.2189e-13
1.14156e-09
1.14157e-13
-9.63756e-14
1.14033e-09
1.4139e-13
-1.10114e-13
1.13893e-09
1.54342e-13
-3.73712e-14
1.13759e-09
2.00964e-13
-1.18628e-13
1.13665e-09
2.0111e-13
9.78249e-14
1.13619e-09
5.1267e-13
-3.14073e-13
1.13637e-09
4.6198e-14
5.66272e-13
1.14545e-09
1.324e-12
-1.77688e-12
1.15588e-09
5.50147e-11
1.97059e-12
9.05323e-10
4.65659e-11
-5.51703e-11
-4.7911e-11
-4.42006e-11
5.84067e-12
1.00373e-11
-7.00963e-12
9.03467e-11
3.13511e-14
-1.03208e-13
1.14477e-09
6.44411e-14
-1.03249e-13
1.14442e-09
9.46692e-14
-9.52566e-14
1.14371e-09
1.20086e-13
-9.66435e-14
1.14282e-09
1.42825e-13
-7.17336e-14
1.14163e-09
1.54543e-13
-8.85796e-14
1.1404e-09
1.70578e-13
-2.55835e-14
1.13941e-09
1.70165e-13
-9.94451e-14
1.13873e-09
1.72416e-13
9.05456e-14
1.1387e-09
5.5598e-14
-2.16685e-13
1.13904e-09
2.75185e-13
3.30508e-13
1.14318e-09
-8.60623e-13
-6.7904e-13
1.16722e-09
3.14733e-13
7.55163e-13
1.1634e-09
4.82894e-11
-8.63577e-13
7.65271e-10
4.44549e-11
5.77923e-11
-4.48922e-11
-5.66464e-11
4.26712e-11
-4.8192e-11
-4.23341e-11
-2.41717e-11
3.43543e-12
6.93261e-12
6.20939e-11
2.84667e-14
-6.66546e-14
1.14598e-09
5.99539e-14
-6.74682e-14
1.14556e-09
9.30028e-14
-6.25257e-14
1.14482e-09
1.20496e-13
-6.66254e-14
1.14382e-09
1.5145e-13
-4.80714e-14
1.14261e-09
1.70916e-13
-6.72299e-14
1.14148e-09
1.96281e-13
-1.59885e-14
1.14049e-09
2.10542e-13
-9.00341e-14
1.13968e-09
2.30252e-13
7.16074e-14
1.13932e-09
2.46339e-13
-2.45616e-13
1.13916e-09
2.68716e-13
2.95773e-13
1.13984e-09
1.61401e-13
-6.09871e-13
1.15228e-09
2.78193e-13
6.01171e-13
1.18465e-09
4.00619e-11
-3.51579e-14
9.78879e-10
5.74215e-11
-4.07374e-11
-5.73417e-11
-4.20932e-11
-7.6833e-12
-1.01478e-12
9.08534e-11
3.35035e-14
-3.32994e-14
1.14718e-09
6.72416e-14
-3.37564e-14
1.14662e-09
1.0267e-13
-3.14475e-14
1.14566e-09
1.28991e-13
-3.38516e-14
1.14447e-09
1.61764e-13
-2.3937e-14
1.14325e-09
1.70936e-13
-3.43388e-14
1.14207e-09
1.9961e-13
-8.20552e-15
1.14094e-09
1.85606e-13
-4.5759e-14
1.13977e-09
2.18133e-13
3.82793e-14
1.13862e-09
5.88901e-14
-1.0343e-13
1.13695e-09
2.21469e-13
1.33836e-13
1.13442e-09
-1.81652e-13
-2.37472e-13
1.13581e-09
1.04896e-13
2.73872e-13
1.13824e-09
6.59693e-11
-2.042e-13
8.81989e-10
6.46116e-11
-6.58823e-11
-6.44653e-11
-5.18643e-11
4.37096e-12
1.30396e-11
-1.51894e-12
1.01942e-10
3.20875e-14
1.14809e-09
6.55589e-14
1.1472e-09
1.02126e-13
1.14601e-09
1.2923e-13
1.1448e-09
1.64557e-13
1.14359e-09
1.75612e-13
1.14241e-09
2.08138e-13
1.1412e-09
1.96793e-13
1.13979e-09
2.3646e-13
1.13801e-09
1.24994e-13
1.13497e-09
2.50608e-13
1.1301e-09
-2.29521e-14
1.12788e-09
2.18502e-13
1.12513e-09
6.27373e-11
8.76492e-10
6.19509e-11
-6.27514e-11
-6.19641e-11
-4.8416e-11
-9.49038e-13
1.43503e-11
1.08228e-12
9.66696e-11
-4.15764e-11
-5.87595e-13
-1.43398e-11
5.65029e-11
-3.49413e-11
1.40717e-12
-2.03375e-12
-1.41879e-11
4.97558e-11
-8.70868e-12
1.96657e-12
-8.44872e-12
1.51908e-11
2.04067e-13
-2.06797e-13
8.76845e-10
6.19531e-11
6.27946e-11
-6.19678e-11
-6.28129e-11
3.28692e-14
-8.94901e-14
8.82772e-10
6.46901e-11
6.60416e-11
-6.45451e-11
-6.59557e-11
8.63772e-13
-2.72837e-13
9.79407e-10
5.74682e-11
4.00735e-11
-5.7388e-11
-4.07487e-11
5.779e-11
-3.12966e-13
7.65458e-10
4.26754e-11
4.82922e-11
-4.23377e-11
-4.81942e-11
4.44438e-11
-5.66419e-11
-4.48811e-11
-6.42176e-11
6.4913e-12
1.23877e-11
-1.35049e-11
1.16634e-10
-2.93308e-11
-2.54507e-12
-8.46458e-13
-9.66065e-12
4.23829e-11
-2.78972e-13
4.58507e-14
1.12543e-09
-6.15398e-13
2.30116e-13
1.13888e-09
-7.71495e-13
-1.43709e-13
1.18518e-09
-1.98704e-12
8.71855e-13
1.16371e-09
8.17413e-13
-1.3215e-12
9.05442e-10
4.6573e-11
5.50163e-11
-4.79198e-11
-5.51754e-11
6.50109e-11
-2.24398e-13
7.26148e-10
5.79163e-11
6.15953e-11
-5.74755e-11
-6.08482e-11
4.46838e-11
-6.45895e-11
-4.52724e-11
-5.29539e-11
1.62921e-11
1.40313e-11
-1.44419e-11
1.02083e-10
-3.53149e-11
-1.87591e-12
-3.10367e-12
-1.13056e-11
5.16002e-11
2.32644e-13
-2.22856e-13
1.12809e-09
6.06837e-13
-1.78452e-13
1.13618e-09
6.76655e-13
-2.47117e-13
1.15266e-09
1.77302e-12
-2.56279e-13
1.16749e-09
4.56001e-13
-3.72882e-14
1.15602e-09
-7.53539e-13
9.53835e-13
1.13345e-09
1.6312e-12
-1.22721e-12
8.85642e-10
4.69695e-11
5.89006e-11
-4.81527e-11
-5.88978e-11
5.83557e-11
-3.06366e-13
7.50883e-10
5.84228e-11
6.28033e-11
-5.79193e-11
-6.18865e-11
4.37735e-11
-5.72051e-11
-4.44299e-11
-7.24764e-11
1.1442e-11
6.02131e-12
-1.43658e-11
1.27734e-10
-1.381e-11
2.65414e-12
-1.23377e-11
2.34936e-11
-1.47066e-13
-8.51693e-14
1.13022e-09
-3.13052e-13
-2.47242e-14
1.1346e-09
-3.52253e-13
-2.18846e-13
1.14006e-09
-5.94527e-13
-2.45946e-14
1.14335e-09
-1.51789e-13
-4.99202e-13
1.14551e-09
9.15912e-13
-1.33553e-13
1.15314e-09
-2.4497e-13
-9.01127e-14
1.14555e-09
-1.66367e-12
1.08403e-12
1.13779e-09
1.28904e-12
-1.75359e-12
8.84249e-10
4.52357e-11
5.28078e-11
-4.62807e-11
-5.29835e-11
4.32669e-11
9.9922e-13
7.22035e-10
5.67693e-11
5.05387e-11
-5.62815e-11
-5.07594e-11
3.38176e-11
-4.23148e-11
-3.47712e-11
-1.25102e-11
1.06663e-11
4.51112e-11
9.96211e-14
-2.01806e-13
1.13505e-09
2.41761e-13
-1.82193e-13
1.13707e-09
2.09922e-13
-1.98814e-13
1.13928e-09
3.08854e-13
-1.41061e-13
1.13914e-09
-2.96854e-14
-1.74124e-13
1.13637e-09
-1.7328e-13
-1.14195e-14
1.1337e-09
1.24937e-14
-2.97447e-13
1.13506e-09
1.21992e-12
-1.47084e-13
1.1422e-09
-9.87806e-13
4.29183e-13
1.13131e-09
-1.00531e-12
9.85238e-13
1.12449e-09
5.05541e-11
-1.29494e-12
7.22788e-10
3.37203e-11
4.32564e-11
-3.46749e-11
-4.22961e-11
5.67878e-11
-5.07751e-11
-5.63017e-11
-1.55761e-11
1.88905e-11
4.72396e-11
-5.40225e-14
-1.4955e-13
1.13804e-09
-9.35073e-14
-1.39218e-13
1.13867e-09
-1.16884e-13
-1.77638e-13
1.13937e-09
-1.25444e-13
-1.34796e-13
1.13873e-09
-1.22974e-13
-1.74722e-13
1.13616e-09
-3.66169e-14
-9.60587e-14
1.13203e-09
-3.39415e-13
-2.68002e-15
1.1274e-09
-4.24939e-13
-7.84384e-14
1.12299e-09
-4.34664e-13
4.19968e-13
1.12572e-09
1.75383e-12
-1.22811e-12
1.13186e-09
5.29577e-11
1.65629e-12
8.84749e-10
4.52626e-11
-5.31312e-11
-4.63078e-11
-4.11737e-11
-6.88295e-12
1.02013e-11
3.19928e-13
9.04927e-11
3.84744e-14
-1.69338e-13
1.13979e-09
8.03804e-14
-1.6242e-13
1.13978e-09
8.45391e-14
-1.59306e-13
1.13969e-09
1.00163e-13
-1.38102e-13
1.13873e-09
5.31383e-14
-1.2231e-13
1.13663e-09
4.76084e-14
-9.26199e-14
1.13356e-09
7.70753e-14
-4.05007e-14
1.12969e-09
7.29132e-14
-8.0919e-14
1.12492e-09
1.42459e-13
3.33489e-13
1.12338e-09
-1.08769e-12
-2.2237e-14
1.14259e-09
3.03761e-13
2.38197e-13
1.13801e-09
6.28054e-11
-1.63382e-12
7.50924e-10
4.37544e-11
5.83488e-11
-4.44121e-11
-5.71985e-11
5.84221e-11
-6.18862e-11
-5.79176e-11
-5.66594e-11
5.81423e-12
1.08283e-11
-4.48067e-12
1.07303e-10
-5.11612e-15
-1.36658e-13
1.14118e-09
-1.2148e-15
-1.34028e-13
1.14092e-09
4.65162e-15
-1.3586e-13
1.14047e-09
1.14566e-14
-1.22668e-13
1.13939e-09
2.16896e-14
-1.12458e-13
1.13757e-09
3.30006e-14
-9.33219e-14
1.1353e-09
3.661e-14
-3.80235e-14
1.13276e-09
-3.17437e-15
-5.04473e-14
1.12986e-09
2.92604e-13
2.90888e-14
1.12759e-09
8.26851e-14
1.67741e-13
1.13525e-09
1.22388e-12
-9.26177e-13
1.14566e-09
5.89014e-11
7.47613e-13
8.85649e-10
4.69641e-11
-5.88979e-11
-4.81487e-11
-4.32828e-11
5.55386e-12
1.26819e-11
-6.95981e-12
9.09089e-11
-1.87496e-11
-2.91721e-12
-4.89776e-12
2.65645e-11
2.52293e-14
-1.31377e-13
1.14238e-09
5.23788e-14
-1.2952e-13
1.14204e-09
6.8573e-14
-1.20971e-13
1.14145e-09
8.52053e-14
-1.1408e-13
1.14037e-09
8.46405e-14
-8.85142e-14
1.1389e-09
9.11059e-14
-8.66747e-14
1.1372e-09
8.95002e-14
-2.63773e-14
1.13534e-09
9.21575e-14
-5.61928e-14
1.13362e-09
7.04083e-15
1.15316e-13
1.13213e-09
1.30049e-13
2.23757e-14
1.13376e-09
-9.58201e-13
1.42507e-13
1.15315e-09
2.22811e-13
-4.64127e-13
1.13341e-09
6.15958e-11
-8.22803e-13
7.26104e-10
4.4691e-11
6.50142e-11
-4.52778e-11
-6.45916e-11
5.79153e-11
-6.08477e-11
-5.74735e-11
-6.90904e-11
1.1411e-11
7.98816e-12
-8.42506e-12
1.19713e-10
1.28532e-14
-1.01722e-13
1.14354e-09
3.04039e-14
-1.01817e-13
1.14319e-09
4.87285e-14
-9.51309e-14
1.14255e-09
6.82136e-14
-9.57393e-14
1.14153e-09
8.56071e-14
-7.13085e-14
1.1403e-09
1.0994e-13
-8.76723e-14
1.1389e-09
1.19905e-13
-1.69117e-14
1.13758e-09
1.77322e-13
-1.0508e-13
1.13664e-09
1.70071e-13
1.19256e-13
1.13619e-09
4.96829e-13
-3.1657e-13
1.13638e-09
3.18925e-14
5.88295e-13
1.14547e-09
1.31781e-12
-1.78238e-12
1.15591e-09
5.50153e-11
1.98032e-12
9.05346e-10
4.6566e-11
-5.51741e-11
-4.79139e-11
-4.42015e-11
5.84109e-12
1.00369e-11
-7.01031e-12
9.03488e-11
2.5137e-14
-8.14131e-14
1.14472e-09
5.13404e-14
-8.17296e-14
1.14437e-09
7.52706e-14
-7.38398e-14
1.14367e-09
9.48742e-14
-7.61234e-14
1.14278e-09
1.13015e-13
-5.21746e-14
1.1416e-09
1.21038e-13
-7.11056e-14
1.14038e-09
1.35884e-13
-1.09553e-14
1.13939e-09
1.32313e-13
-8.96064e-14
1.13872e-09
1.3849e-13
1.10074e-13
1.1387e-09
2.18482e-14
-2.16778e-13
1.13906e-09
2.52601e-13
3.46517e-13
1.14319e-09
-8.76266e-13
-6.83983e-13
1.16725e-09
3.07501e-13
7.65605e-13
1.16343e-09
4.82907e-11
-8.66913e-13
7.653e-10
4.44565e-11
5.77954e-11
-4.48927e-11
-5.66465e-11
4.2672e-11
-4.81935e-11
-4.23356e-11
-2.41726e-11
3.43547e-12
6.93297e-12
6.20959e-11
2.19686e-14
-5.16997e-14
1.14592e-09
4.62465e-14
-5.25028e-14
1.1455e-09
7.24985e-14
-4.78546e-14
1.14477e-09
9.38331e-14
-5.23755e-14
1.14378e-09
1.19533e-13
-3.44651e-14
1.14257e-09
1.34663e-13
-5.53999e-14
1.14145e-09
1.57499e-13
-5.58037e-15
1.14046e-09
1.74155e-13
-8.57894e-14
1.13966e-09
1.94835e-13
8.79725e-14
1.13932e-09
2.1463e-13
-2.47156e-13
1.13917e-09
2.43319e-13
3.07903e-13
1.13985e-09
1.39207e-13
-6.11614e-13
1.15232e-09
2.67747e-13
6.10974e-13
1.18467e-09
4.00629e-11
-3.51421e-14
9.78915e-10
5.74213e-11
-4.07386e-11
-5.73449e-11
-4.20946e-11
-7.68439e-12
-1.01372e-12
9.08559e-11
2.7198e-14
-2.65763e-14
1.14712e-09
5.36287e-14
-2.61535e-14
1.14657e-09
8.22297e-14
-2.40046e-14
1.14561e-09
1.01997e-13
-2.65889e-14
1.14443e-09
1.29302e-13
-1.72536e-14
1.14321e-09
1.32978e-13
-2.88344e-14
1.14204e-09
1.60591e-13
-2.99616e-15
1.14091e-09
1.38447e-13
-4.36902e-14
1.13976e-09
1.81157e-13
4.73523e-14
1.13862e-09
2.40166e-14
-1.05021e-13
1.13697e-09
1.7583e-13
1.44331e-13
1.13443e-09
-2.32042e-13
-2.36398e-13
1.13585e-09
8.8557e-14
2.74713e-13
1.13826e-09
6.5971e-11
-2.07015e-13
8.82017e-10
6.46131e-11
-6.58846e-11
-6.44679e-11
-5.18657e-11
4.37105e-12
1.30399e-11
-1.51869e-12
1.01945e-10
2.68344e-14
1.14803e-09
5.17484e-14
1.14715e-09
8.13016e-14
1.14595e-09
1.0155e-13
1.14475e-09
1.31262e-13
1.14355e-09
1.36749e-13
1.14238e-09
1.68305e-13
1.14117e-09
1.4806e-13
1.13978e-09
1.9982e-13
1.13801e-09
8.4188e-14
1.13499e-09
2.22958e-13
1.13011e-09
-4.44132e-14
1.12791e-09
2.08978e-13
1.12514e-09
6.27391e-11
8.7652e-10
6.19527e-11
-6.27538e-11
-6.19661e-11
-4.84169e-11
-9.49458e-13
1.43509e-11
1.08296e-12
9.66718e-11
-4.1578e-11
-5.87441e-13
-1.43397e-11
5.65049e-11
-3.49426e-11
1.40693e-12
-2.03373e-12
-1.4188e-11
4.97574e-11
-8.70884e-12
1.96658e-12
-8.44889e-12
1.51911e-11
2.04132e-13
-2.02466e-13
8.76875e-10
6.19537e-11
6.27952e-11
-6.19693e-11
-6.28146e-11
3.4502e-14
-9.07011e-14
8.82801e-10
6.46914e-11
6.60428e-11
-6.45463e-11
-6.59572e-11
8.67831e-13
-2.66119e-13
9.79437e-10
5.74681e-11
4.00744e-11
-5.7391e-11
-4.07497e-11
5.77932e-11
-3.08768e-13
7.65481e-10
4.26762e-11
4.82934e-11
-4.23386e-11
-4.81951e-11
4.44459e-11
-5.66412e-11
-4.48809e-11
-6.42197e-11
6.49216e-12
1.23886e-11
-1.35048e-11
1.16637e-10
-2.93317e-11
-2.54518e-12
-8.46415e-13
-9.66104e-12
4.23844e-11
-2.89865e-13
6.27981e-14
1.12545e-09
-6.15226e-13
2.02097e-13
1.13891e-09
-7.79175e-13
-1.25891e-13
1.18521e-09
-1.99429e-12
8.82975e-13
1.16373e-09
8.16664e-13
-1.31946e-12
9.05459e-10
4.65736e-11
5.50171e-11
-4.79213e-11
-5.51771e-11
6.50128e-11
-2.2207e-13
7.26163e-10
5.79178e-11
6.15966e-11
-5.74762e-11
-6.08494e-11
4.46852e-11
-6.45903e-11
-4.52731e-11
-5.29553e-11
1.62925e-11
1.40317e-11
-1.44421e-11
1.02085e-10
-3.53159e-11
-1.87596e-12
-3.10363e-12
-1.13058e-11
5.16013e-11
2.34377e-13
-2.02289e-13
1.12812e-09
6.05006e-13
-1.91593e-13
1.1362e-09
6.8096e-13
-2.28e-13
1.15269e-09
1.7781e-12
-2.39185e-13
1.16751e-09
4.58484e-13
-2.56613e-14
1.15605e-09
-7.53222e-13
9.65058e-13
1.13348e-09
1.63217e-12
-1.22485e-12
8.8566e-10
4.69712e-11
5.89028e-11
-4.81534e-11
-5.88984e-11
5.83576e-11
-3.03409e-13
7.50897e-10
5.84248e-11
6.28058e-11
-5.79199e-11
-6.18869e-11
4.37744e-11
-5.72058e-11
-4.44309e-11
-7.24781e-11
1.14429e-11
6.02123e-12
-1.43659e-11
1.27737e-10
-1.38104e-11
2.65426e-12
-1.2338e-11
2.34941e-11
-1.51041e-13
-5.32309e-14
1.13022e-09
-3.28084e-13
-7.61281e-15
1.1346e-09
-3.65881e-13
-1.95474e-13
1.14006e-09
-6.10398e-13
-4.24157e-15
1.14336e-09
-1.61602e-13
-4.89427e-13
1.14552e-09
9.09297e-13
-1.21338e-13
1.15315e-09
-2.57122e-13
-7.64893e-14
1.14557e-09
-1.67181e-12
1.09054e-12
1.13781e-09
1.2851e-12
-1.75021e-12
8.84264e-10
4.52362e-11
5.28086e-11
-4.62824e-11
-5.2985e-11
4.32709e-11
1.0003e-12
7.22048e-10
5.677e-11
5.05391e-11
-5.62832e-11
-5.07612e-11
3.38193e-11
-4.23132e-11
-3.47717e-11
-1.25023e-11
1.06627e-11
4.51111e-11
1.03837e-13
-1.74823e-13
1.13507e-09
2.42966e-13
-1.54868e-13
1.13708e-09
2.10789e-13
-1.73802e-13
1.13929e-09
3.10364e-13
-1.16321e-13
1.13915e-09
-3.81005e-14
-1.52982e-13
1.13638e-09
-1.853e-13
1.10194e-14
1.13371e-09
2.90881e-15
-2.82418e-13
1.13507e-09
1.21344e-12
-1.36422e-13
1.14222e-09
-9.93847e-13
4.38703e-13
1.13133e-09
-1.00715e-12
9.90909e-13
1.12451e-09
5.05559e-11
-1.29081e-12
7.22805e-10
3.37197e-11
4.32546e-11
-3.46767e-11
-4.22993e-11
5.67896e-11
-5.07753e-11
-5.63028e-11
-1.55754e-11
1.88909e-11
4.72403e-11
-6.02952e-14
-1.13918e-13
1.13804e-09
-1.06034e-13
-1.04481e-13
1.13867e-09
-1.32541e-13
-1.47436e-13
1.13937e-09
-1.44922e-13
-1.04757e-13
1.13873e-09
-1.37718e-13
-1.66289e-13
1.13617e-09
-4.66424e-14
-8.22212e-14
1.13203e-09
-3.53463e-13
1.54532e-14
1.12741e-09
-4.36769e-13
-6.52921e-14
1.123e-09
-4.44516e-13
4.32064e-13
1.12574e-09
1.75033e-12
-1.2227e-12
1.13188e-09
5.2959e-11
1.66331e-12
8.84764e-10
4.5263e-11
-5.31325e-11
-4.63096e-11
-4.11736e-11
-6.88366e-12
1.02019e-11
3.20471e-13
9.04936e-11
3.876e-14