/*--------------------------------*- C++ -*----------------------------------*\
| =========                 |                                                 |
| \\      /  F ield         | OpenFOAM: The Open Source CFD Toolbox           |
|  \\    /   O peration     | Version:  2.1.1                                 |
|   \\  /    A nd           | Web:      www.OpenFOAM.org                      |
|    \\/     M anipulation  |                                                 |
\*---------------------------------------------------------------------------*/
FoamFile
{
    version     2.0;
    format      ascii;
    class       volVectorField;
    location    "0.002";
    object      U;
}
// * * * * * * * * * * * * * * * * * * * * * * * * * * * * * * * * * * * * * //

dimensions      [0 1 -1 0 0 0 0];

internalField   nonuniform List<vector> 
10266
(
(-6.72491e-07 -0.00498348 0.0217134)
(-0.00070618 -0.00468545 0.019736)
(-0.00150493 -0.00127543 0.0104265)
(-3.68067e-05 -0.000260145 0.0886739)
(9.35049e-05 -0.000267781 0.0893)
(-0.000115981 -0.000171848 0.0942129)
(0.00034332 -0.000494065 0.0755442)
(0.00143225 -0.00588872 0.0290267)
(0.000471945 -0.00324579 0.018054)
(-9.66554e-06 0.000184309 0.112784)
(-5.55551e-05 0.000220047 0.113189)
(-3.63661e-05 9.95804e-05 0.115968)
(-0.000150567 0.000383454 0.113498)
(-0.000189956 -0.000277394 0.088946)
(0.000391422 -0.000336025 0.072429)
(0.00185091 -0.00882332 0.0308644)
(-0.000453905 -0.00451932 0.0192853)
(-5.06739e-06 -0.000160948 0.112214)
(6.13298e-05 -0.000156589 0.112451)
(3.81449e-05 -0.000117314 0.113281)
(0.00012603 -0.000144253 0.114537)
(0.000176406 4.8284e-05 0.11396)
(-9.52577e-05 0.000265999 0.112296)
(-3.16814e-05 -0.000370246 0.0879412)
(0.000400664 -0.000396511 0.0741143)
(0.000607434 -0.00602876 0.0313471)
(-0.0018548 -0.00423344 0.0149252)
(-7.69655e-06 6.71918e-05 0.111929)
(-1.73349e-05 7.13463e-05 0.112084)
(-3.02212e-05 2.6199e-05 0.112273)
(-3.34452e-05 4.70541e-05 0.112512)
(-6.59771e-05 -6.62461e-05 0.112978)
(5.35091e-05 -4.1381e-05 0.114065)
(9.92585e-05 8.61743e-05 0.113481)
(-0.000133295 0.000305058 0.112519)
(-0.000231594 -0.000347627 0.0890266)
(0.000587413 -0.000468072 0.0707538)
(-0.0116463 0.00240116 0.016471)
(1.04442e-07 -8.93421e-05 0.112124)
(2.40205e-05 -8.44645e-05 0.112207)
(2.06214e-05 -7.15623e-05 0.112286)
(3.28782e-05 -6.04594e-05 0.112261)
(2.38875e-05 -4.35431e-05 0.112152)
(-2.0262e-05 -7.65757e-06 0.112139)
(1.95871e-06 -9.79877e-05 0.112542)
(3.9085e-06 -4.44234e-05 0.113597)
(0.000291101 5.16549e-05 0.113499)
(-0.000565215 0.000565554 0.11266)
(0.000466218 -0.000587326 0.0707894)
(-0.00861193 0.00416554 0.0188749)
(-3.33121e-06 2.69198e-08 0.112264)
(-1.05387e-06 4.02182e-07 0.112292)
(-6.35128e-06 -1.20199e-05 0.112319)
(-1.6893e-06 -7.60072e-06 0.112289)
(-7.94937e-06 -2.52808e-05 0.112173)
(1.09819e-06 -1.5795e-05 0.111986)
(2.73564e-06 4.31219e-06 0.111794)
(-4.85421e-05 -6.67836e-06 0.111717)
(-1.79364e-05 1.748e-05 0.11251)
(-5.23046e-05 -0.0002918 0.113512)
(0.00034785 0.000230563 0.089024)
(-0.000615352 -0.00141334 0.0270811)
(6.61958e-07 -5.86614e-05 0.11234)
(1.23177e-05 -5.61775e-05 0.112342)
(1.27383e-05 -5.17961e-05 0.112336)
(1.96844e-05 -4.48057e-05 0.112297)
(1.73396e-05 -3.78855e-05 0.112213)
(1.39377e-05 -2.72964e-05 0.112085)
(1.45867e-05 -2.16116e-05 0.111915)
(1.96924e-05 -2.01431e-05 0.111675)
(6.15697e-06 4.81277e-05 0.111727)
(4.41921e-05 -4.45826e-06 0.113612)
(-0.000305752 0.000133199 0.112528)
(0.000396202 -0.000400941 0.0741165)
(0.00141471 -0.00215763 0.029619)
(-7.44155e-07 -2.43623e-05 0.112404)
(5.70717e-06 -2.38875e-05 0.112395)
(4.91301e-06 -2.56183e-05 0.112374)
(1.20308e-05 -2.35488e-05 0.112329)
(9.38546e-06 -2.39443e-05 0.112256)
(1.75657e-05 -2.08418e-05 0.112163)
(1.14914e-05 -1.20403e-05 0.112057)
(2.11841e-05 -1.50706e-05 0.111919)
(-4.85885e-06 -3.38752e-06 0.111802)
(9.76338e-05 -2.4093e-06 0.11255)
(-8.66386e-05 -0.000100068 0.113486)
(0.000370089 3.14864e-05 0.0879412)
(0.000429278 -0.00447526 0.0267823)
(0.000427108 -0.00252324 0.0166275)
(1.16713e-06 -4.41205e-05 0.112457)
(1.10949e-05 -4.27498e-05 0.112444)
(1.3101e-05 -4.00461e-05 0.112418)
(2.1304e-05 -3.62388e-05 0.112374)
(1.99521e-05 -3.10327e-05 0.112312)
(2.56872e-05 -2.62012e-05 0.112239)
(2.03552e-05 -1.82225e-05 0.112164)
(2.67384e-05 -1.44215e-05 0.112088)
(1.53005e-05 -1.81662e-06 0.111989)
(7.32851e-06 1.97371e-05 0.112142)
(4.07989e-05 -5.43029e-05 0.114066)
(-0.000266597 9.4496e-05 0.112294)
(0.000335551 -0.000391936 0.0724265)
(0.00157846 -0.00269636 0.0314579)
(6.41638e-07 -2.54883e-05 0.11251)
(9.76343e-06 -2.52162e-05 0.112496)
(1.14114e-05 -2.43586e-05 0.112468)
(2.1028e-05 -2.35749e-05 0.112426)
(1.94274e-05 -2.0093e-05 0.112373)
(3.03746e-05 -2.04515e-05 0.112313)
(2.34195e-05 -1.01011e-05 0.112257)
(3.73923e-05 -1.78854e-05 0.112214)
(2.46863e-05 7.24986e-06 0.112173)
(4.31214e-05 -2.46208e-05 0.112152)
(6.55395e-05 6.54604e-05 0.112976)
(-4.87911e-05 -0.000177057 0.113956)
(0.000276705 0.00018973 0.0889419)
(-0.000176015 -0.00433958 0.0269024)
(1.44884e-06 -3.01478e-05 0.112561)
(1.22203e-05 -2.95077e-05 0.112546)
(1.47373e-05 -2.75815e-05 0.112517)
(2.55543e-05 -2.63269e-05 0.112476)
(2.30756e-05 -2.18755e-05 0.112427)
(3.56727e-05 -2.20582e-05 0.112374)
(2.30117e-05 -1.28982e-05 0.112329)
(4.42591e-05 -2.04069e-05 0.112297)
(6.91694e-06 7.12389e-07 0.112288)
(6.03105e-05 -3.38109e-05 0.112258)
(-4.75241e-05 3.2676e-05 0.112506)
(0.000143797 -0.000126835 0.114527)
(-0.000384079 0.000149982 0.113486)
(0.000493758 -0.000343475 0.075536)
(-0.00657959 -0.00230508 0.0220946)
(1.19986e-06 -1.64966e-05 0.112613)
(1.23274e-05 -1.63482e-05 0.112595)
(1.45943e-05 -1.52953e-05 0.112563)
(2.67339e-05 -1.53442e-05 0.112519)
(2.37085e-05 -1.21157e-05 0.11247)
(3.93637e-05 -1.37746e-05 0.112418)
(2.51224e-05 -5.63518e-06 0.112373)
(5.11895e-05 -1.34222e-05 0.112335)
(1.12145e-05 5.60808e-06 0.112316)
(7.13404e-05 -2.13165e-05 0.112282)
(-2.67584e-05 2.9594e-05 0.112265)
(0.00011701 -3.8696e-05 0.113267)
(-9.97139e-05 3.59074e-05 0.115949)
(0.000171711 0.000115955 0.0941976)
(-0.0066905 0.00298394 0.0250409)
(1.56699e-06 -1.45132e-05 0.11266)
(1.34205e-05 -1.42803e-05 0.112637)
(1.57425e-05 -1.33468e-05 0.112597)
(2.87312e-05 -1.32368e-05 0.112548)
(2.4646e-05 -1.08834e-05 0.112496)
(4.21626e-05 -1.20686e-05 0.112444)
(2.33382e-05 -6.71422e-06 0.112394)
(5.56069e-05 -1.32843e-05 0.112341)
(-1.09669e-06 1.30667e-07 0.11229)
(8.44321e-05 -2.50146e-05 0.112203)
(-7.16528e-05 1.64289e-05 0.112077)
(0.000156318 -6.20763e-05 0.112437)
(-0.000220272 5.48527e-05 0.113166)
(0.000267438 -9.41557e-05 0.0892831)
(0.00152353 -0.00108613 0.0320487)
(1.1753e-06 -2.07798e-06 0.112692)
(1.34933e-05 -2.19474e-06 0.112661)
(1.56364e-05 -2.06969e-06 0.112614)
(2.91964e-05 -2.14011e-06 0.112562)
(2.48789e-05 -1.47522e-06 0.11251)
(4.3549e-05 -1.87949e-06 0.112457)
(2.38718e-05 -7.72789e-08 0.112403)
(5.81367e-05 -1.39868e-06 0.112339)
(-8.62992e-07 2.47156e-06 0.112262)
(8.91423e-05 -8.88402e-07 0.112121)
(-6.74951e-05 6.80303e-06 0.111924)
(0.000160854 4.30799e-06 0.112207)
(-0.000184652 8.90485e-06 0.112774)
(0.000259454 3.58521e-05 0.0886663)
(0.0014792 0.000150707 0.029304)
(-5.68987e-07 -0.00498358 0.0217137)
(-0.000706082 -0.00468549 0.0197365)
(-0.00150496 -0.00127535 0.0104269)
(-3.632e-05 -0.000258682 0.0886785)
(9.37011e-05 -0.000267108 0.0893047)
(-0.000115848 -0.000170918 0.0942181)
(0.000343923 -0.000493665 0.0755484)
(0.00143249 -0.00588855 0.0290277)
(0.000472199 -0.00324592 0.0180546)
(-1.05879e-05 0.000186048 0.112788)
(-5.60558e-05 0.000221852 0.113193)
(-3.72497e-05 0.000100631 0.115973)
(-0.000152364 0.000384843 0.113503)
(-0.000190688 -0.000276534 0.0889495)
(0.000391086 -0.000335871 0.0724322)
(0.00185082 -0.0088232 0.0308654)
(-0.000453765 -0.00451933 0.0192857)
(-4.52333e-06 -0.0001559 0.112218)
(6.11279e-05 -0.00015116 0.112455)
(3.80662e-05 -0.000113491 0.113286)
(0.000126604 -0.000140211 0.114541)
(0.0001764 5.0032e-05 0.113965)
(-9.5119e-05 0.000268307 0.112301)
(-3.17237e-05 -0.000369401 0.087945)
(0.00040131 -0.000396327 0.074118)
(0.000607823 -0.00602906 0.0313482)
(-0.00185504 -0.00423353 0.0149255)
(-8.22503e-06 7.22513e-05 0.11193)
(-1.90862e-05 7.5812e-05 0.112086)
(-3.25158e-05 3.12225e-05 0.112275)
(-3.73397e-05 5.09492e-05 0.112515)
(-6.84064e-05 -6.20892e-05 0.112982)
(5.30452e-05 -3.84037e-05 0.114069)
(9.75713e-05 8.77798e-05 0.113485)
(-0.000134659 0.000306491 0.112524)
(-0.000232645 -0.000347502 0.0890302)
(0.000587724 -0.000468511 0.070757)
(-0.0116466 0.00240072 0.0164727)
(9.41629e-08 -8.56453e-05 0.112126)
(2.38013e-05 -8.05822e-05 0.112209)
(2.00084e-05 -6.76366e-05 0.112288)
(3.2577e-05 -5.63288e-05 0.112263)
(2.28804e-05 -3.86408e-05 0.112155)
(-2.26803e-05 -3.67299e-06 0.112142)
(3.04749e-07 -9.53875e-05 0.112545)
(2.97492e-06 -4.24751e-05 0.113602)
(0.000289272 5.27554e-05 0.113504)
(-0.00056585 0.000566039 0.112666)
(0.000466523 -0.000587306 0.0707926)
(-0.00861223 0.00416583 0.0188758)
(-3.73222e-06 1.02506e-05 0.112263)
(-2.61896e-06 1.02653e-05 0.112292)
(-8.4309e-06 -3.06094e-06 0.112318)
(-4.5914e-06 6.98579e-07 0.112289)
(-1.05144e-05 -1.90197e-05 0.112173)
(-1.68553e-06 -1.02837e-05 0.111987)
(-1.01299e-06 8.92444e-06 0.111797)
(-5.14301e-05 -3.21112e-06 0.11172)
(-2.05515e-05 1.98895e-05 0.112514)
(-5.34166e-05 -0.000290148 0.113516)
(0.00034754 0.000231487 0.0890276)
(-0.000615526 -0.00141345 0.0270828)
(2.88281e-07 -5.08482e-05 0.112337)
(1.08477e-05 -4.85622e-05 0.11234)
(1.0574e-05 -4.43021e-05 0.112334)
(1.66941e-05 -3.80665e-05 0.112297)
(1.3557e-05 -3.13367e-05 0.112212)
(9.88011e-06 -2.2567e-05 0.112086)
(1.08854e-05 -1.70294e-05 0.111916)
(1.65484e-05 -1.7131e-05 0.111678)
(2.51009e-06 5.09547e-05 0.11173)
(4.22431e-05 -3.55279e-06 0.113616)
(-0.000307128 0.00013453 0.112532)
(0.000396151 -0.000401419 0.0741202)
(0.00141515 -0.00215727 0.0296199)
(-1.34744e-06 -1.61578e-05 0.112399)
(3.81741e-06 -1.59281e-05 0.11239)
(1.95653e-06 -1.787e-05 0.11237)
(8.19271e-06 -1.65483e-05 0.112326)
(4.81846e-06 -1.73554e-05 0.112254)
(1.28283e-05 -1.51163e-05 0.112162)
(6.03469e-06 -6.75865e-06 0.112057)
(1.65376e-05 -1.14731e-05 0.11192)
(-9.59668e-06 2.68277e-07 0.111805)
(9.50068e-05 -8.22249e-07 0.112553)
(-8.82667e-05 -9.84481e-05 0.11349)
(0.000369374 3.14956e-05 0.087945)
(0.000429443 -0.00447528 0.0267829)
(0.000427063 -0.00252348 0.016628)
(5.47077e-07 -3.68325e-05 0.112451)
(9.16921e-06 -3.56327e-05 0.112438)
(9.97995e-06 -3.30845e-05 0.112413)
(1.71606e-05 -2.98103e-05 0.112369)
(1.49012e-05 -2.49817e-05 0.112309)
(2.03214e-05 -2.09522e-05 0.112237)
(1.4526e-05 -1.36227e-05 0.112163)
(2.19596e-05 -1.0345e-05 0.112089)
(9.64108e-06 8.34327e-07 0.11199)
(3.33238e-06 2.21727e-05 0.112145)
(3.7839e-05 -5.39183e-05 0.114069)
(-0.000268794 9.42776e-05 0.112299)
(0.000335627 -0.000391842 0.0724297)
(0.00157835 -0.00269643 0.031459)
(-1.39995e-07 -1.86401e-05 0.112503)
(7.54736e-06 -1.85133e-05 0.112489)
(7.76761e-06 -1.78677e-05 0.112461)
(1.62825e-05 -1.75875e-05 0.11242)
(1.36834e-05 -1.44585e-05 0.112368)
(2.41853e-05 -1.55002e-05 0.112309)
(1.67904e-05 -5.62499e-06 0.112254)
(3.07847e-05 -1.41361e-05 0.112213)
(1.83017e-05 9.74324e-06 0.112174)
(3.82464e-05 -2.36262e-05 0.112154)
(6.12522e-05 6.78147e-05 0.112979)
(-5.06165e-05 -0.000177157 0.11396)
(0.0002761 0.000190268 0.0889453)
(-0.000176567 -0.00434002 0.0269031)
(6.84284e-07 -2.47146e-05 0.112553)
(9.93764e-06 -2.42181e-05 0.112538)
(1.09016e-05 -2.24359e-05 0.11251)
(2.0555e-05 -2.1468e-05 0.11247)
(1.69879e-05 -1.73052e-05 0.112421)
(2.91453e-05 -1.79997e-05 0.11237)
(1.59732e-05 -9.18795e-06 0.112326)
(3.74894e-05 -1.7402e-05 0.112296)
(-1.50764e-06 3.41581e-06 0.112288)
(5.61698e-05 -3.366e-05 0.11226)
(-5.1489e-05 3.63596e-05 0.112509)
(0.000139679 -0.000127564 0.114532)
(-0.000385532 0.000151592 0.113491)
(0.000493073 -0.000344461 0.07554)
(-0.00657971 -0.00230453 0.022095)
(3.89472e-07 -1.22784e-05 0.112603)
(9.82349e-06 -1.22604e-05 0.112586)
(1.05195e-05 -1.13188e-05 0.112554)
(2.14123e-05 -1.15779e-05 0.112512)
(1.7163e-05 -8.57434e-06 0.112463)
(3.23114e-05 -1.06631e-05 0.112413)
(1.74338e-05 -2.76995e-06 0.112369)
(4.35656e-05 -1.13732e-05 0.112333)
(1.96732e-06 7.63206e-06 0.112316)
(6.74321e-05 -2.07625e-05 0.112284)
(-3.19069e-05 3.18718e-05 0.112267)
(0.000113145 -3.86461e-05 0.113272)
(-0.000100855 3.67851e-05 0.115954)
(0.000170158 0.00011581 0.0942027)
(-0.00669036 0.00298402 0.0250417)
(7.44283e-07 -1.20865e-05 0.11265)
(1.08958e-05 -1.18643e-05 0.112627)
(1.15847e-05 -1.09999e-05 0.112588)
(2.32964e-05 -1.09739e-05 0.11254)
(1.79027e-05 -8.73055e-06 0.112489)
(3.49574e-05 -1.02269e-05 0.112438)
(1.52348e-05 -4.96099e-06 0.11239)
(4.79967e-05 -1.21503e-05 0.112338)
(-1.10286e-05 1.69747e-06 0.112289)
(8.05779e-05 -2.48701e-05 0.112205)
(-7.61575e-05 1.816e-05 0.112078)
(0.000150849 -6.17153e-05 0.112441)
(-0.000221973 5.55457e-05 0.113171)
(0.000266989 -9.41204e-05 0.0892878)
(0.00152396 -0.00108594 0.0320497)
(5.1532e-07 -1.39743e-06 0.112681)
(1.09094e-05 -1.35469e-06 0.112651)
(1.14087e-05 -1.21466e-06 0.112605)
(2.3681e-05 -1.36466e-06 0.112554)
(1.79116e-05 -7.05404e-07 0.112503)
(3.60965e-05 -1.26774e-06 0.112451)
(1.54747e-05 4.86965e-07 0.112398)
(5.03316e-05 -1.0409e-06 0.112336)
(-1.11139e-05 2.83476e-06 0.112261)
(8.54388e-05 -8.02687e-07 0.112123)
(-7.24459e-05 7.27537e-06 0.111926)
(0.000156012 3.95497e-06 0.112212)
(-0.000186114 1.00393e-05 0.112778)
(0.000258449 3.55875e-05 0.0886713)
(0.0014797 0.000150539 0.0293049)
(-3.5541e-07 -0.00498355 0.0217143)
(-0.000705814 -0.00468552 0.019737)
(-0.00150512 -0.00127528 0.0104271)
(-3.58346e-05 -0.000257009 0.0886822)
(9.38884e-05 -0.000266068 0.0893085)
(-0.000115874 -0.000169755 0.0942223)
(0.000344488 -0.000493077 0.0755516)
(0.00143253 -0.00588872 0.0290288)
(0.000472349 -0.00324606 0.0180554)
(-1.1108e-05 0.000187399 0.112791)
(-5.64538e-05 0.0002229 0.113196)
(-3.82926e-05 0.000101337 0.115977)
(-0.000153928 0.000385929 0.113506)
(-0.000191256 -0.000275848 0.0889523)
(0.000390963 -0.000335695 0.0724347)
(0.00185085 -0.00882315 0.0308663)
(-0.000453745 -0.00451935 0.0192865)
(-4.32171e-06 -0.000151888 0.112222)
(6.08772e-05 -0.000147548 0.112459)
(3.81785e-05 -0.000110691 0.11329)
(0.000127122 -0.000136994 0.114545)
(0.000176485 5.1427e-05 0.113969)
(-9.49048e-05 0.000269991 0.112305)
(-3.17445e-05 -0.000368927 0.0879479)
(0.000401774 -0.000396285 0.0741208)
(0.00060785 -0.00602922 0.0313493)
(-0.00185504 -0.00423364 0.014926)
(-9.09647e-06 7.60162e-05 0.111931)
(-2.07357e-05 7.95268e-05 0.112087)
(-3.40024e-05 3.51384e-05 0.112276)
(-4.03297e-05 5.39986e-05 0.112517)
(-7.04604e-05 -5.89237e-05 0.112985)
(5.2636e-05 -3.60345e-05 0.114072)
(9.61266e-05 8.88229e-05 0.113489)
(-0.000135961 0.000307565 0.112527)
(-0.000233648 -0.000347399 0.0890328)
(0.000587257 -0.000468687 0.0707594)
(-0.0116475 0.00240166 0.0164716)
(2.76881e-07 -8.26223e-05 0.112127)
(2.37228e-05 -7.69737e-05 0.112211)
(1.94884e-05 -6.47022e-05 0.11229)
(3.23415e-05 -5.3101e-05 0.112265)
(2.22234e-05 -3.51856e-05 0.112156)
(-2.46013e-05 -7.98913e-07 0.112145)
(-1.09347e-06 -9.33258e-05 0.112548)
(2.25272e-06 -4.10946e-05 0.113605)
(0.000287841 5.36099e-05 0.113507)
(-0.000566232 0.000566555 0.11267)
(0.000467486 -0.00058736 0.070795)
(-0.00861252 0.00416603 0.0188767)
(-4.07158e-06 1.80011e-05 0.112263)
(-4.39584e-06 1.76584e-05 0.112292)
(-1.03249e-05 4.05009e-06 0.112318)
(-7.04892e-06 7.19173e-06 0.11229)
(-1.29116e-05 -1.39932e-05 0.112173)
(-3.49963e-06 -6.01641e-06 0.111987)
(-3.97502e-06 1.23681e-05 0.111798)
(-5.39879e-05 -5.66184e-07 0.111722)
(-2.25764e-05 2.18609e-05 0.112516)
(-5.42211e-05 -0.000288866 0.11352)
(0.000347842 0.000232264 0.0890303)
(-0.000615631 -0.0014134 0.0270836)
(1.48524e-07 -4.54502e-05 0.112334)
(1.01415e-05 -4.31909e-05 0.112337)
(9.16498e-06 -3.86149e-05 0.112333)
(1.43812e-05 -3.31235e-05 0.112295)
(1.06815e-05 -2.62262e-05 0.112212)
(6.383e-06 -1.88492e-05 0.112087)
(7.86614e-06 -1.36983e-05 0.111917)
(1.43509e-05 -1.49704e-05 0.111679)
(-3.01328e-07 5.33965e-05 0.111732)
(4.06911e-05 -3.03189e-06 0.11362)
(-0.000308197 0.000135651 0.112536)
(0.000396208 -0.000401986 0.0741229)
(0.00141548 -0.0021574 0.0296207)
(-1.78735e-06 -9.18456e-06 0.112395)
(2.32366e-06 -9.25534e-06 0.112387)
(-3.67594e-07 -1.17598e-05 0.112367)
(5.16633e-06 -1.09188e-05 0.112324)
(1.20234e-06 -1.22319e-05 0.112252)
(9.24284e-06 -1.06142e-05 0.112161)
(1.52337e-06 -2.39998e-06 0.112057)
(1.30925e-05 -8.51256e-06 0.111921)
(-1.32623e-05 3.00717e-06 0.111807)
(9.28232e-05 4.74225e-07 0.112556)
(-8.94106e-05 -9.7109e-05 0.113493)
(0.000368679 3.14508e-05 0.0879479)
(0.000429607 -0.00447544 0.0267835)
(0.000427058 -0.00252352 0.0166286)
(1.26072e-07 -3.10704e-05 0.112447)
(7.60119e-06 -3.00762e-05 0.112434)
(7.52954e-06 -2.76447e-05 0.112409)
(1.3865e-05 -2.47764e-05 0.112366)
(1.0904e-05 -2.02245e-05 0.112306)
(1.60578e-05 -1.67179e-05 0.112236)
(9.96435e-06 -1.01481e-05 0.112162)
(1.81362e-05 -6.81714e-06 0.11209)
(5.1736e-06 2.50917e-06 0.111991)
(3.96871e-07 2.40363e-05 0.112148)
(3.53726e-05 -5.3575e-05 0.114072)
(-0.000270514 9.40931e-05 0.112303)
(0.000335731 -0.000391608 0.0724321)
(0.0015784 -0.00269671 0.0314601)
(-7.23114e-07 -1.32987e-05 0.112496)
(5.7317e-06 -1.33241e-05 0.112483)
(4.92192e-06 -1.28291e-05 0.112456)
(1.25761e-05 -1.28813e-05 0.112415)
(9.26933e-06 -1.0038e-05 0.112364)
(1.93169e-05 -1.15603e-05 0.112307)
(1.15728e-05 -2.08206e-06 0.112252)
(2.5531e-05 -1.14868e-05 0.112213)
(1.29689e-05 1.21536e-05 0.112174)
(3.47561e-05 -2.30009e-05 0.112156)
(5.80795e-05 6.98012e-05 0.112982)
(-5.2087e-05 -0.00017726 0.113964)
(0.00027557 0.000190806 0.088948)
(-0.000177003 -0.00434027 0.0269036)
(1.25366e-07 -2.04618e-05 0.112546)
(8.06711e-06 -2.00384e-05 0.112531)
(7.96863e-06 -1.8321e-05 0.112504)
(1.66419e-05 -1.75693e-05 0.112465)
(1.2224e-05 -1.36594e-05 0.112416)
(2.4002e-05 -1.47815e-05 0.112367)
(1.01149e-05 -6.24766e-06 0.112323)
(3.25256e-05 -1.53877e-05 0.112295)
(-8.00669e-06 5.99887e-06 0.112288)
(5.28062e-05 -3.34676e-05 0.112262)
(-5.46057e-05 3.93209e-05 0.11251)
(0.000136436 -0.000128182 0.114536)
(-0.00038667 0.000153099 0.113495)
(0.000492231 -0.000345089 0.0755433)
(-0.00657984 -0.00230463 0.0220958)
(-2.25398e-07 -9.01934e-06 0.112595)
(7.86974e-06 -9.05014e-06 0.112578)
(7.39248e-06 -8.18426e-06 0.112547)
(1.72364e-05 -8.62009e-06 0.112506)
(1.20677e-05 -5.78476e-06 0.112457)
(2.67346e-05 -8.22193e-06 0.112409)
(1.10081e-05 -5.42217e-07 0.112366)
(3.79463e-05 -1.00472e-05 0.112331)
(-5.19564e-06 9.55622e-06 0.112316)
(6.43091e-05 -2.02615e-05 0.112285)
(-3.58763e-05 3.34032e-05 0.112268)
(0.000110234 -3.87953e-05 0.113276)
(-0.000101635 3.78084e-05 0.115957)
(0.000168705 0.000115774 0.0942068)
(-0.00669015 0.00298457 0.0250424)
(1.40987e-07 -1.01611e-05 0.112642)
(8.90038e-06 -9.93091e-06 0.112619)
(8.39882e-06 -9.14619e-06 0.11258)
(1.9038e-05 -9.17329e-06 0.112534)
(1.26215e-05 -7.04742e-06 0.112483)
(2.92507e-05 -8.77541e-06 0.112434)
(8.25933e-06 -3.53525e-06 0.112386)
(4.27316e-05 -1.14512e-05 0.112336)
(-1.83632e-05 3.37827e-06 0.11229)
(7.68474e-05 -2.47421e-05 0.112207)
(-7.99622e-05 1.98593e-05 0.112079)
(0.000147134 -6.13935e-05 0.112445)
(-0.000223074 5.60202e-05 0.113174)
(0.000265972 -9.42084e-05 0.0892914)
(0.00152409 -0.00108595 0.0320505)
(1.7784e-07 -9.36981e-07 0.112673)
(8.88384e-06 -7.02081e-07 0.112643)
(8.1491e-06 -5.69898e-07 0.112597)
(1.93346e-05 -7.68171e-07 0.112547)
(1.24669e-05 -1.56896e-07 0.112497)
(3.02615e-05 -8.33855e-07 0.112447)
(8.29539e-06 8.93399e-07 0.112395)
(4.49734e-05 -7.82443e-07 0.112334)
(-1.88593e-05 3.2205e-06 0.112262)
(8.23732e-05 -9.02355e-07 0.112125)
(-7.62536e-05 8.26485e-06 0.111928)
(0.000151901 3.80421e-06 0.112215)
(-0.000187311 1.06458e-05 0.112781)
(0.000257458 3.52684e-05 0.0886749)
(0.00148006 0.000150683 0.0293054)
(-3.42315e-07 -0.00498343 0.0217151)
(-0.000705746 -0.00468548 0.0197377)
(-0.0015051 -0.00127529 0.0104273)
(-3.56143e-05 -0.000256129 0.0886856)
(9.39091e-05 -0.000265782 0.0893115)
(-0.000115797 -0.000168631 0.0942257)
(0.000345312 -0.000492559 0.0755542)
(0.0014327 -0.00588904 0.0290297)
(0.000472382 -0.00324622 0.018056)
(-1.20242e-05 0.00018827 0.112794)
(-5.69673e-05 0.000223803 0.113199)
(-3.87286e-05 0.000101853 0.115979)
(-0.000155069 0.000386711 0.113509)
(-0.000191627 -0.000275763 0.0889543)
(0.000391116 -0.000335933 0.0724368)
(0.00185092 -0.0088232 0.0308671)
(-0.000453748 -0.00451934 0.019287)
(-4.10653e-06 -0.000148741 0.112226)
(6.05366e-05 -0.000144044 0.112462)
(3.81583e-05 -0.00010841 0.113293)
(0.000127637 -0.000134575 0.114548)
(0.000176551 5.23832e-05 0.113972)
(-9.48913e-05 0.000271034 0.112308)
(-3.19096e-05 -0.000368942 0.0879501)
(0.000401997 -0.000396343 0.0741228)
(0.000607844 -0.00602946 0.0313498)
(-0.00185507 -0.00423375 0.0149263)
(-9.63673e-06 7.87349e-05 0.111932)
(-2.2172e-05 8.24107e-05 0.112087)
(-3.5555e-05 3.81062e-05 0.112278)
(-4.27873e-05 5.64946e-05 0.112518)
(-7.2115e-05 -5.67427e-05 0.112987)
(5.2251e-05 -3.41499e-05 0.114074)
(9.4827e-05 8.95022e-05 0.113491)
(-0.000137183 0.000308447 0.11253)
(-0.000234414 -0.00034711 0.0890348)
(0.000587119 -0.000468517 0.0707611)
(-0.0116474 0.00240104 0.0164727)
(6.46847e-07 -8.00239e-05 0.112129)
(2.36421e-05 -7.40511e-05 0.112212)
(1.91075e-05 -6.22649e-05 0.112291)
(3.20651e-05 -5.03108e-05 0.112267)
(2.1637e-05 -3.28878e-05 0.112158)
(-2.61046e-05 1.03017e-06 0.112147)
(-2.39597e-06 -9.1896e-05 0.11255)
(1.64338e-06 -4.00064e-05 0.113607)
(0.000286586 5.4269e-05 0.113509)
(-0.000566678 0.000566846 0.112672)
(0.000467721 -0.000587067 0.0707969)
(-0.00861275 0.00416609 0.0188767)
(-4.29722e-06 2.37287e-05 0.112263)
(-6.02512e-06 2.30015e-05 0.112292)
(-1.20317e-05 9.2308e-06 0.112318)
(-9.63995e-06 1.19216e-05 0.11229)
(-1.55212e-05 -9.91889e-06 0.112174)
(-4.75603e-06 -2.64394e-06 0.111987)
(-6.02823e-06 1.52276e-05 0.1118)
(-5.60339e-05 1.42512e-06 0.111724)
(-2.42937e-05 2.35551e-05 0.112518)
(-5.49505e-05 -0.000287708 0.113522)
(0.000347585 0.000233019 0.0890322)
(-0.000615567 -0.00141314 0.0270835)
(1.72091e-07 -4.19695e-05 0.112333)
(9.52514e-06 -3.97198e-05 0.112336)
(8.1801e-06 -3.47764e-05 0.112331)
(1.30053e-05 -2.96639e-05 0.112295)
(8.74023e-06 -2.20966e-05 0.112211)
(3.66875e-06 -1.56047e-05 0.112087)
(5.18565e-06 -1.10292e-05 0.111918)
(1.25829e-05 -1.31883e-05 0.11168)
(-2.38716e-06 5.53363e-05 0.111734)
(3.93678e-05 -2.62922e-06 0.113622)
(-0.000309375 0.000136695 0.112538)
(0.000395817 -0.00040222 0.0741248)
(0.00141568 -0.00215745 0.0296211)
(-2.15099e-06 -3.16905e-06 0.112392)
(1.04567e-06 -3.57698e-06 0.112384)
(-2.0891e-06 -6.45565e-06 0.112364)
(2.87372e-06 -6.10352e-06 0.112322)
(-1.61615e-06 -8.12322e-06 0.11225)
(6.53008e-06 -6.98754e-06 0.11216)
(-1.98676e-06 9.73585e-07 0.112057)
(1.03202e-05 -5.88291e-06 0.111922)
(-1.63435e-05 4.84092e-06 0.111808)
(9.12361e-05 1.70532e-06 0.112558)
(-9.02869e-05 -9.59291e-05 0.113495)
(0.000367993 3.16114e-05 0.08795)
(0.000429515 -0.00447534 0.0267838)
(0.000427129 -0.00252363 0.0166289)
(-1.59916e-07 -2.65231e-05 0.112443)
(6.27484e-06 -2.567e-05 0.112431)
(5.68266e-06 -2.3244e-05 0.112406)
(1.12962e-05 -2.07372e-05 0.112364)
(7.77894e-06 -1.64481e-05 0.112304)
(1.26081e-05 -1.33006e-05 0.112235)
(6.28581e-06 -7.5497e-06 0.112161)
(1.48213e-05 -4.23457e-06 0.11209)
(1.69648e-06 3.82001e-06 0.111991)
(-1.52854e-06 2.54605e-05 0.11215)
(3.32678e-05 -5.32307e-05 0.114074)
(-0.000271825 9.41326e-05 0.112306)
(0.000335789 -0.000391335 0.072434)
(0.00157825 -0.00269671 0.0314607)
(-1.15462e-06 -9.11933e-06 0.112492)
(4.30769e-06 -9.22322e-06 0.112478)
(2.8348e-06 -8.81771e-06 0.112451)
(9.66197e-06 -9.14651e-06 0.112412)
(5.83046e-06 -6.58826e-06 0.112361)
(1.54259e-05 -8.45538e-06 0.112305)
(7.22706e-06 7.12431e-07 0.112251)
(2.14647e-05 -9.81198e-06 0.112212)
(8.72345e-06 1.47879e-05 0.112175)
(3.22175e-05 -2.25683e-05 0.112157)
(5.58781e-05 7.14263e-05 0.112984)
(-5.31773e-05 -0.000177332 0.113967)
(0.000275205 0.000191288 0.0889501)
(-0.000177336 -0.00434058 0.0269043)
(-2.28737e-07 -1.70238e-05 0.112541)
(6.57297e-06 -1.65868e-05 0.112527)
(5.75637e-06 -1.49718e-05 0.112499)
(1.3512e-05 -1.44085e-05 0.112461)
(8.4687e-06 -1.07521e-05 0.112413)
(1.9895e-05 -1.22429e-05 0.112365)
(5.00182e-06 -3.96336e-06 0.112321)
(2.90428e-05 -1.41308e-05 0.112294)
(-1.27318e-05 8.57225e-06 0.112289)
(4.98648e-05 -3.32272e-05 0.112264)
(-5.71543e-05 4.18666e-05 0.112512)
(0.000133962 -0.000128761 0.114539)
(-0.000387547 0.000154286 0.113498)
(0.000491561 -0.000345709 0.0755459)
(-0.00657991 -0.00230453 0.0220963)
(-6.44891e-07 -6.47092e-06 0.112589)
(6.35701e-06 -6.47897e-06 0.112573)
(5.01458e-06 -5.70993e-06 0.112542)
(1.388e-05 -6.31325e-06 0.112501)
(8.00594e-06 -3.66564e-06 0.112453)
(2.22171e-05 -6.36546e-06 0.112406)
(5.3782e-06 1.11843e-06 0.112364)
(3.41622e-05 -9.09836e-06 0.112329)
(-1.0466e-05 1.13029e-05 0.112316)
(6.17346e-05 -1.98571e-05 0.112287)
(-3.88869e-05 3.49735e-05 0.112269)
(0.000107803 -3.88436e-05 0.113279)
(-0.000102186 3.81266e-05 0.11596)
(0.00016755 0.000115634 0.0942101)
(-0.00668995 0.00298487 0.0250429)
(-2.70671e-07 -8.50066e-06 0.112636)
(7.33196e-06 -8.31007e-06 0.112613)
(5.92202e-06 -7.61197e-06 0.112575)
(1.55528e-05 -7.6774e-06 0.112529)
(8.41542e-06 -5.65474e-06 0.112479)
(2.46834e-05 -7.47425e-06 0.112431)
(2.23746e-06 -2.27065e-06 0.112383)
(3.93388e-05 -1.07801e-05 0.112334)
(-2.36421e-05 4.94463e-06 0.11229)
(7.37528e-05 -2.46437e-05 0.112208)
(-8.29899e-05 2.11153e-05 0.11208)
(0.000143428 -6.13176e-05 0.112448)
(-0.000224169 5.61927e-05 0.113176)
(0.000265409 -9.44433e-05 0.0892944)
(0.00152427 -0.00108595 0.0320512)
(-2.1985e-07 -3.11102e-07 0.112667)
(7.24477e-06 -1.74699e-07 0.112637)
(5.64644e-06 -9.31044e-08 0.112591)
(1.58368e-05 -2.92491e-07 0.112542)
(8.21027e-06 2.96232e-07 0.112492)
(2.56152e-05 -4.08629e-07 0.112443)
(2.034e-06 1.26004e-06 0.112392)
(4.14978e-05 -6.14897e-07 0.112332)
(-2.47136e-05 3.55822e-06 0.112262)
(7.95225e-05 -1.2689e-06 0.112126)
(-7.93031e-05 8.80718e-06 0.111928)
(0.000148394 3.38837e-06 0.112218)
(-0.000188337 1.13769e-05 0.112783)
(0.000256367 3.49266e-05 0.0886777)
(0.00148025 0.00015079 0.029306)
(-3.58962e-07 -0.00498334 0.0217157)
(-0.000705846 -0.00468543 0.0197383)
(-0.00150509 -0.00127531 0.0104275)
(-3.54991e-05 -0.000255814 0.0886884)
(9.37728e-05 -0.000265134 0.089314)
(-0.000115904 -0.000167578 0.0942282)
(0.000346022 -0.000492122 0.0755563)
(0.00143291 -0.00588932 0.0290302)
(0.000472426 -0.00324622 0.0180563)
(-1.23076e-05 0.00018858 0.112796)
(-5.74659e-05 0.000224137 0.113201)
(-3.96704e-05 0.000102104 0.115981)
(-0.000156149 0.000387227 0.113511)
(-0.00019206 -0.000275932 0.0889559)
(0.000390854 -0.000336231 0.0724381)
(0.00185094 -0.00882333 0.0308674)
(-0.000453835 -0.00451942 0.019287)
(-4.03559e-06 -0.000146635 0.112228)
(6.01869e-05 -0.000142357 0.112464)
(3.82132e-05 -0.000106753 0.113296)
(0.00012806 -0.000132707 0.114551)
(0.000176445 5.2985e-05 0.113975)
(-9.51724e-05 0.000271812 0.112311)
(-3.22915e-05 -0.000368465 0.0879518)
(0.000401544 -0.000395762 0.0741241)
(0.000607729 -0.00602956 0.03135)
(-0.0018551 -0.0042339 0.0149264)
(-1.03593e-05 8.09474e-05 0.111932)
(-2.31578e-05 8.4648e-05 0.112087)
(-3.63461e-05 4.02845e-05 0.112278)
(-4.49153e-05 5.84192e-05 0.112519)
(-7.35935e-05 -5.51912e-05 0.112988)
(5.1911e-05 -3.25267e-05 0.114075)
(9.37121e-05 9.01814e-05 0.113492)
(-0.00013825 0.000309467 0.112531)
(-0.000235085 -0.000346214 0.0890362)
(0.000586586 -0.000468089 0.0707624)
(-0.0116478 0.00240153 0.0164723)
(7.37131e-07 -7.7495e-05 0.112131)
(2.32871e-05 -7.10499e-05 0.112214)
(1.88772e-05 -6.01675e-05 0.112293)
(3.18535e-05 -4.79444e-05 0.112268)
(2.11956e-05 -3.10144e-05 0.112159)
(-2.72922e-05 2.32317e-06 0.112148)
(-3.59834e-06 -9.0642e-05 0.112552)
(1.1043e-06 -3.89851e-05 0.113609)
(0.000285502 5.48398e-05 0.113511)
(-0.000566984 0.000567162 0.112675)
(0.000467056 -0.000586699 0.0707983)
(-0.00861317 0.00416611 0.0188767)
(-4.47173e-06 2.79067e-05 0.112263)
(-7.46548e-06 2.71128e-05 0.112292)
(-1.34714e-05 1.30091e-05 0.112319)
(-1.19871e-05 1.55285e-05 0.11229)
(-1.80674e-05 -6.98138e-06 0.112175)
(-5.70864e-06 -5.81112e-08 0.111988)
(-7.41748e-06 1.76913e-05 0.111801)
(-5.77969e-05 2.91202e-06 0.111725)
(-2.58171e-05 2.50969e-05 0.11252)
(-5.56203e-05 -0.000286637 0.113524)
(0.00034652 0.000233624 0.0890337)
(-0.000615902 -0.00141305 0.0270835)
(2.57447e-07 -3.98964e-05 0.112332)
(8.77712e-06 -3.76165e-05 0.112335)
(7.45402e-06 -3.24064e-05 0.11233)
(1.19594e-05 -2.73315e-05 0.112294)
(7.28109e-06 -1.9165e-05 0.112211)
(2.01275e-06 -1.30223e-05 0.112087)
(2.89069e-06 -8.94873e-06 0.111919)
(1.1134e-05 -1.1828e-05 0.111681)
(-3.87429e-06 5.70147e-05 0.111735)
(3.82714e-05 -2.20392e-06 0.113624)
(-0.000310601 0.000137711 0.11254)
(0.000395008 -0.000401827 0.0741263)
(0.0014155 -0.00215718 0.0296214)
(-2.36962e-06 2.05645e-06 0.11239)
(-1.04242e-07 1.41092e-06 0.112382)
(-3.30369e-06 -1.60677e-06 0.112362)
(1.09357e-06 -1.8621e-06 0.11232)
(-3.90689e-06 -4.41891e-06 0.112249)
(4.72863e-06 -3.89684e-06 0.11216)
(-4.59291e-06 3.39366e-06 0.112057)
(8.15422e-06 -3.79996e-06 0.111923)
(-1.87971e-05 6.27559e-06 0.111809)
(8.99855e-05 2.79837e-06 0.11256)
(-9.09949e-05 -9.48811e-05 0.113496)
(0.000367421 3.19385e-05 0.0879518)
(0.000429544 -0.00447522 0.0267842)
(0.000427131 -0.0025237 0.0166292)
(-2.70951e-07 -2.28083e-05 0.112441)
(5.15142e-06 -2.19478e-05 0.112428)
(4.21036e-06 -1.9464e-05 0.112404)
(9.10761e-06 -1.74054e-05 0.112362)
(5.17211e-06 -1.33023e-05 0.112303)
(9.66764e-06 -1.04462e-05 0.112234)
(2.98243e-06 -5.83265e-06 0.112161)
(1.23785e-05 -2.69053e-06 0.11209)
(-7.88247e-07 4.95328e-06 0.111992)
(-2.97953e-06 2.65404e-05 0.112151)
(3.15745e-05 -5.2902e-05 0.114076)
(-0.00027281 9.43409e-05 0.112308)
(0.000335919 -0.00039112 0.0724356)
(0.00157825 -0.00269669 0.0314612)
(-1.37669e-06 -5.91188e-06 0.112488)
(3.22412e-06 -6.06911e-06 0.112474)
(1.23178e-06 -5.70436e-06 0.112448)