/*--------------------------------*- C++ -*----------------------------------*\
| =========                 |                                                 |
| \\      /  F ield         | OpenFOAM: The Open Source CFD Toolbox           |
|  \\    /   O peration     | Version:  2.1.1                                 |
|   \\  /    A nd           | Web:      www.OpenFOAM.org                      |
|    \\/     M anipulation  |                                                 |
\*---------------------------------------------------------------------------*/
FoamFile
{
    version     2.0;
    format      ascii;
    class       surfaceScalarField;
    location    "0.0015";
    object      phi;
}
// * * * * * * * * * * * * * * * * * * * * * * * * * * * * * * * * * * * * * //

dimensions      [0 3 -1 0 0 0 0];

internalField   nonuniform List<scalar> 
29335
(
-1.43528e-11
-5.55147e-13
5.65436e-11
-4.1587e-11
-2.31066e-13
4.14378e-13
8.83523e-10
6.19562e-11
6.27138e-11
-6.1956e-11
-6.27922e-11
-8.83431e-10
5.73609e-15
-1.3229e-13
1.12434e-09
-1.12425e-09
-2.90491e-13
3.66262e-13
1.12674e-09
-1.12668e-09
-1.84399e-13
-2.23312e-14
1.12955e-09
-1.12953e-09
-2.92341e-13
1.61371e-13
1.1343e-09
-1.13428e-09
-2.43123e-13
1.81587e-14
1.13723e-09
-1.13725e-09
-2.68694e-13
8.12392e-14
1.139e-09
-1.13902e-09
-2.35134e-13
4.04531e-14
1.14038e-09
-1.14043e-09
-2.18952e-13
5.98814e-14
1.14156e-09
-1.14162e-09
-1.77596e-13
4.31349e-14
1.14273e-09
-1.1428e-09
-1.39483e-13
4.68771e-14
1.14389e-09
-1.14398e-09
-9.23429e-14
4.57937e-14
1.14508e-09
-1.14517e-09
-4.65004e-14
4.69274e-14
1.14623e-09
-1.14632e-09
4.58556e-14
1.14712e-09
-1.14722e-09
1.37726e-12
-1.41686e-11
-2.01778e-12
4.96756e-11
-3.48664e-11
6.92658e-15
1.15725e-13
8.8829e-10
6.46015e-11
6.59393e-11
-6.44969e-11
-6.59145e-11
-8.88128e-10
2.0008e-13
-4.37285e-13
1.13688e-09
-1.13677e-09
-2.23666e-13
6.9462e-13
1.13452e-09
-1.13442e-09
-9.90863e-14
-1.74793e-13
1.13387e-09
-1.13384e-09
-2.64933e-13
2.96483e-13
1.13621e-09
-1.13618e-09
-2.22456e-13
-1.6179e-14
1.13782e-09
-1.13783e-09
-2.57746e-13
1.37751e-13
1.13896e-09
-1.13898e-09
-2.26209e-13
5.84222e-14
1.14011e-09
-1.14016e-09
-2.09334e-13
9.23989e-14
1.14122e-09
-1.14127e-09
-1.70132e-13
7.57486e-14
1.14238e-09
-1.14245e-09
-1.35129e-13
9.00368e-14
1.14355e-09
-1.14363e-09
-9.08357e-14
8.83015e-14
1.14469e-09
-1.14478e-09
-4.67275e-14
9.15743e-14
1.14568e-09
-1.14577e-09
9.1132e-14
1.14626e-09
-1.14635e-09
1.95706e-12
-8.43683e-12
1.51582e-11
-8.6784e-12
-2.74929e-13
9.15903e-13
9.86045e-10
5.73975e-11
4.00393e-11
-5.73605e-11
-4.07196e-11
-9.85927e-10
-1.47261e-13
-6.87289e-13
1.18174e-09
-1.18162e-09
-2.71289e-13
7.22861e-13
1.14996e-09
-1.14986e-09
-2.55073e-13
-2.40278e-13
1.13916e-09
-1.13911e-09
-2.67046e-13
2.78265e-13
1.13845e-09
-1.13842e-09
-2.51991e-13
-2.84544e-14
1.1385e-09
-1.13851e-09
-2.47024e-13
1.37638e-13
1.13887e-09
-1.13888e-09
-2.16566e-13
6.2342e-14
1.13966e-09
-1.13969e-09
-1.94654e-13
1.21635e-13
1.14063e-09
-1.14068e-09
-1.59547e-13
1.08252e-13
1.14175e-09
-1.14182e-09
-1.24706e-13
1.29419e-13
1.14291e-09
-1.14298e-09
-8.33269e-14
1.30295e-13
1.14394e-09
-1.14402e-09
-4.23375e-14
1.36364e-13
1.14471e-09
-1.1448e-09
1.36849e-13
1.14509e-09
-1.14518e-09
-2.98426e-13
5.77796e-11
7.72028e-10
4.2644e-11
4.82727e-11
-4.23155e-11
-4.81727e-11
4.44344e-11
-5.66346e-11
-4.48657e-11
-7.71955e-10
8.60245e-13
-1.93133e-12
1.16399e-09
-1.16391e-09
-2.77099e-13
1.78097e-12
1.16417e-09
-1.16409e-09
-9.54357e-14
-4.62838e-13
1.14203e-09
-1.14199e-09
-2.08967e-13
3.51076e-13
1.13835e-09
-1.13831e-09
-1.93308e-13
-4.33409e-14
1.13791e-09
-1.13791e-09
-2.14778e-13
1.64559e-13
1.13792e-09
-1.13792e-09
-1.98755e-13
7.85594e-14
1.1386e-09
-1.13863e-09
-1.84049e-13
1.4847e-13
1.13959e-09
-1.13963e-09
-1.57173e-13
1.39027e-13
1.14079e-09
-1.14084e-09
-1.24843e-13
1.61945e-13
1.14196e-09
-1.14202e-09
-8.69055e-14
1.66022e-13
1.1429e-09
-1.14297e-09
-4.476e-14
1.71622e-13
1.14356e-09
-1.14364e-09
1.73562e-13
1.1439e-09
-1.14399e-09
6.48798e-12
-1.35049e-11
1.23859e-11
1.1653e-10
-6.41189e-11
-1.32301e-12
8.34644e-13
9.11573e-10
4.6552e-11
5.50081e-11
-4.79014e-11
-5.51567e-11
-9.11518e-10
-7.18619e-14
4.60175e-13
1.15449e-09
-1.15442e-09
-4.88944e-13
-9.44547e-14
1.14356e-09
-1.14351e-09
-2.21981e-13
4.02521e-14
1.13569e-09
-1.13565e-09
-2.3526e-13
-4.48526e-14
1.1355e-09
-1.13548e-09
-1.91465e-13
1.21877e-13
1.13586e-09
-1.13586e-09
-1.7999e-13
9.04253e-14
1.13682e-09
-1.13684e-09
-1.52727e-13
1.55877e-13
1.13813e-09
-1.13817e-09
-1.2817e-13
1.6498e-13
1.13951e-09
-1.13956e-09
-9.71498e-14
1.89817e-13
1.14073e-09
-1.14079e-09
-6.59379e-14
2.02572e-13
1.14174e-09
-1.14181e-09
-3.24984e-14
2.10438e-13
1.14238e-09
-1.14245e-09
2.15303e-13
1.14273e-09
-1.1428e-09
-2.55051e-12
-9.66557e-12
-8.44675e-13
4.23717e-11
-2.93109e-11
-2.33163e-13
6.49965e-11
7.33801e-10
5.79002e-11
6.15816e-11
-5.74608e-11
-6.08333e-11
4.46692e-11
-6.45734e-11
-4.52528e-11
-7.33761e-10
9.26535e-13
-7.61687e-13
1.13494e-09
-1.13488e-09
-1.6082e-13
9.48851e-13
1.1504e-09
-1.15035e-09
-5.58486e-14
-1.0235e-13
1.13268e-09
-1.13264e-09
-1.49019e-13
4.01198e-14
1.13154e-09
-1.13153e-09
-1.48475e-13
1.15107e-13
1.13288e-09
-1.13287e-09
-1.56527e-13
1.11436e-13
1.13457e-09
-1.13458e-09
-1.45013e-13
1.66476e-13
1.13642e-09
-1.13645e-09
-1.38915e-13
1.94576e-13
1.13811e-09
-1.13815e-09
-1.11315e-13
2.04398e-13
1.13954e-09
-1.13959e-09
-8.30029e-14
2.26043e-13
1.14063e-09
-1.14068e-09
-4.19079e-14
2.24962e-13
1.14121e-09
-1.14127e-09
2.32015e-13
1.14156e-09
-1.14162e-09
1.63037e-11
-1.44468e-11
1.40374e-11
1.01896e-10
-5.2793e-11
-1.24825e-12
1.61987e-12
8.91732e-10
4.69449e-11
5.88899e-11
-4.81317e-11
-5.88814e-11
-8.91687e-10
-1.27812e-13
-2.21283e-13
1.14445e-09
-1.1444e-09
-3.33648e-13
6.35162e-14
1.13354e-09
-1.1335e-09
-7.87642e-14
-2.52114e-13
1.12698e-09
-1.12695e-09
-1.0012e-13
1.30048e-13
1.12916e-09
-1.12915e-09
-9.85894e-14
1.10349e-13
1.13205e-09
-1.13206e-09
-7.79334e-14
1.58994e-13
1.13457e-09
-1.13459e-09
-6.5317e-14
2.08496e-13
1.13678e-09
-1.13681e-09
-4.67752e-14
2.20522e-13
1.13857e-09
-1.1386e-09
-3.05795e-14
2.5339e-13
1.13964e-09
-1.13968e-09
-1.39345e-14
2.55105e-13
1.14009e-09
-1.14014e-09
2.65728e-13
1.14037e-09
-1.14042e-09
-1.88113e-12
-1.13144e-11
-3.10141e-12
5.15989e-11
-3.5302e-11
-3.25913e-13
5.83487e-11
7.58779e-10
5.84019e-11
6.27793e-11
-5.79014e-11
-6.18652e-11
4.37595e-11
-5.72033e-11
-4.44156e-11
-7.58736e-10
1.05392e-12
-1.65262e-12
1.1395e-09
-1.13944e-09
-1.76622e-13
1.24661e-12
1.13981e-09
-1.13976e-09
-1.01514e-13
-3.5563e-13
1.12222e-09
-1.12219e-09
-1.15882e-13
1.17268e-13
1.12458e-09
-1.12455e-09
-9.90276e-14
8.97895e-14
1.12927e-09
-1.12927e-09
-1.0268e-13
1.58652e-13
1.13287e-09
-1.13286e-09
-1.39751e-13
2.51007e-13
1.13583e-09
-1.13583e-09
-1.13784e-13
2.03979e-13
1.13788e-09
-1.13789e-09
-9.76467e-14
2.52754e-13
1.13883e-09
-1.13885e-09
-4.88265e-14
2.32901e-13
1.13894e-09
-1.13897e-09
2.43305e-13
1.13898e-09
-1.13901e-09
1.14308e-11
-1.43555e-11
6.01796e-12
1.27635e-10
-7.23792e-11
-1.76555e-12
1.28933e-12
8.9046e-10
4.52051e-11
5.28009e-11
-4.62492e-11
-5.29745e-11
-8.90417e-10
3.88472e-13
-9.57078e-13
1.13022e-09
-1.13017e-09
3.67862e-13
-3.76126e-13
1.12389e-09
-1.12385e-09
2.68325e-13
1.88122e-13
1.12243e-09
-1.1224e-09
-1.69502e-14
3.44534e-13
1.12699e-09
-1.12696e-09
6.69841e-14
6.4759e-14
1.13149e-09
-1.13148e-09
7.08039e-14
2.44118e-13
1.13542e-09
-1.13542e-09
6.58795e-14
2.15892e-13
1.13783e-09
-1.13784e-09
5.37607e-14
2.7933e-13
1.13844e-09
-1.13845e-09
3.13108e-14
2.66777e-13
1.13778e-09
-1.13779e-09
2.86553e-13
1.1372e-09
-1.13722e-09
2.64601e-12
-1.23397e-11
2.35095e-11
-1.38159e-11
9.95406e-13
4.32025e-11
7.28776e-10
5.6765e-11
5.055e-11
-5.62831e-11
-5.07724e-11
3.36621e-11
-4.22484e-11
-3.46204e-11
-7.28737e-10
9.60902e-13
-9.88905e-13
1.12618e-09
-1.12611e-09
-1.23569e-12
1.7707e-12
1.13028e-09
-1.13023e-09
-4.71156e-14
-1.04691e-12
1.13974e-09
-1.1397e-09
1.25504e-13
1.36426e-13
1.13343e-09
-1.13339e-09
-1.30129e-14
1.70061e-13
1.13256e-09
-1.13253e-09
-3.12304e-13
5.15802e-13
1.13558e-09
-1.13555e-09
-2.11056e-13
9.60917e-14
1.13827e-09
-1.13825e-09
-2.38656e-13
2.89248e-13
1.13836e-09
-1.13834e-09
-9.91666e-14
1.13464e-13
1.13615e-09
-1.13614e-09
1.74717e-13
1.13425e-09
-1.13424e-09
1.06135e-11
4.51133e-11
-1.25243e-11
-1.28566e-12
5.049e-11
7.27498e-10
3.38206e-11
4.32403e-11
-3.47735e-11
-4.22838e-11
5.67582e-11
-5.07169e-11
-5.62737e-11
-7.27462e-10
1.66313e-12
5.29424e-11
8.89825e-10
4.52608e-11
-5.31155e-11
-4.63051e-11
-8.89784e-10
2.34099e-13
3.31227e-13
1.13906e-09
-1.13901e-09
-9.25493e-13
1.25109e-12
1.14419e-09
-1.14415e-09
1.17723e-13
-9.11527e-13
1.15022e-09
-1.15018e-09
5.32295e-13
6.91797e-14
1.14343e-09
-1.1434e-09
3.0466e-13
2.9516e-13
1.1419e-09
-1.14187e-09
2.73698e-13
2.99474e-13
1.13906e-09
-1.13905e-09
1.28713e-13
2.41285e-13
1.13377e-09
-1.13375e-09
2.84786e-13
1.1295e-09
-1.12949e-09
1.88677e-11
4.71115e-11
-1.54884e-11
-6.88526e-12
3.45972e-13
1.02224e-11
9.01968e-11
-4.09372e-11
-1.60918e-12
6.27867e-11
7.58485e-10
4.37082e-11
5.83102e-11
-4.43713e-11
-5.71679e-11
5.84159e-11
-6.1872e-11
-5.79125e-11
-7.58442e-10
7.82088e-13
5.88981e-11
8.91497e-10
4.69557e-11
-5.88944e-11
-4.81407e-11
-8.91455e-10
-4.22412e-13
2.38852e-13
1.13479e-09
-1.13474e-09
-1.72964e-12
1.32553e-12
1.15437e-09
-1.15432e-09
-6.49842e-13
-8.33596e-13
1.16406e-09
-1.16401e-09
-6.0108e-13
2.00426e-13
1.14984e-09
-1.14979e-09
-2.29164e-13
-1.79494e-13
1.13443e-09
-1.13438e-09
6.5005e-15
1.12665e-09
-1.1266e-09
5.80529e-12
-4.49071e-12
1.0829e-11
1.07226e-10
-5.65824e-11
5.56835e-12
-6.94796e-12
1.27051e-11
9.06028e-11
-4.30299e-11
-8.27469e-13
6.15806e-11
7.33751e-10
4.46611e-11
6.49929e-11
-4.52455e-11
-6.45661e-11
5.79029e-11
-6.08357e-11
-5.74611e-11
-7.33714e-10
1.96429e-12
5.50052e-11
9.11506e-10
4.65529e-11
-5.51628e-11
-4.79008e-11
-9.11467e-10
7.46648e-13
3.28914e-13
1.16388e-09
-1.16383e-09
6.0256e-13
2.95082e-13
1.18165e-09
-1.1816e-09
2.65151e-13
1.17319e-13
1.13671e-09
-1.13667e-09
2.27453e-13
1.12427e-09
-1.12423e-09
-2.92619e-12
-4.90253e-12
2.65999e-11
-1.87711e-11
1.14001e-11
-8.43154e-12
7.98814e-12
1.19643e-10
-6.90183e-11
5.8537e-12
-6.99682e-12
1.00549e-11
9.00516e-11
-4.39575e-11
-8.6808e-13
4.82697e-11
7.72004e-10
4.44321e-11
5.77802e-11
-4.48662e-11
-5.66307e-11
4.26468e-11
-4.81724e-11
-4.23089e-11
-7.71959e-10
-3.47598e-14
4.00382e-11
9.85965e-10
5.74071e-11
-4.07141e-11
-5.73279e-11
-9.85906e-10
-2.02933e-13
6.59544e-11
8.88243e-10
6.46057e-11
-6.58683e-11
-6.44577e-11
-8.88192e-10
6.27304e-11
8.83396e-10
6.19441e-11
-6.2747e-11
-6.19592e-11
-8.83341e-10
3.43615e-12
6.92129e-12
6.20417e-11
-2.41286e-11
-7.68188e-12
-1.00063e-12
9.06234e-11
-4.19036e-11
4.37123e-12
-1.52777e-12
1.30456e-11
1.01819e-10
-5.17532e-11
-9.44886e-13
1.08009e-12
1.43657e-11
9.64898e-11
-4.826e-11
-4.15962e-11
-1.43553e-11
-5.02225e-13
5.65582e-11
-2.26675e-13
5.46889e-13
8.83587e-10
6.19655e-11
6.2716e-11
-6.19415e-11
-6.28114e-11
2.15114e-14
-6.66607e-14
1.12443e-09
-2.54598e-13
3.99611e-13
1.12679e-09
-1.37457e-13
-9.55773e-15
1.12958e-09
-2.4173e-13
1.72589e-13
1.13432e-09
-2.05129e-13
1.90926e-14
1.13723e-09
-2.13714e-13
7.86572e-14
1.13897e-09
-1.82392e-13
3.40798e-14
1.14034e-09
-1.71503e-13
5.2541e-14
1.14152e-09
-1.38141e-13
4.08277e-14
1.14267e-09
-1.09597e-13
3.92113e-14
1.14383e-09
-7.1995e-14
3.65043e-14
1.14501e-09
-3.72525e-14
3.72326e-14
1.14615e-09
3.69947e-14
1.14705e-09
-3.4874e-11
1.32954e-12
-1.4156e-11
-1.99304e-12
4.96936e-11
7.68097e-14
1.72853e-13
8.88536e-10
6.45925e-11
6.59295e-11
-6.45266e-11
-6.59439e-11
2.46081e-13
-3.69746e-13
1.13701e-09
-1.89421e-13
7.23576e-13
1.13463e-09
-4.50088e-14
-1.77974e-13
1.13389e-09
-2.15361e-13
3.05298e-13
1.13625e-09
-1.78507e-13
-2.45928e-14
1.13783e-09
-2.03454e-13
1.2999e-13
1.13894e-09
-1.74659e-13
4.21539e-14
1.14007e-09
-1.65716e-13
8.89667e-14
1.14117e-09
-1.32409e-13
5.88618e-14
1.14233e-09
-1.05408e-13
7.15889e-14
1.14349e-09
-7.03292e-14
6.86577e-14
1.14462e-09
-3.64044e-14
7.15769e-14
1.14561e-09
7.10059e-14
1.14619e-09
-8.67949e-12
1.94543e-12
-8.42656e-12
1.51606e-11
-2.538e-13
9.44213e-13
9.86201e-10
5.73898e-11
4.00408e-11
-5.73807e-11
-4.0722e-11
-9.89553e-14
-6.83363e-13
1.1819e-09
-2.27835e-13
7.4704e-13
1.15006e-09
-2.0317e-13
-2.54247e-13
1.13921e-09
-2.17669e-13
2.87545e-13
1.13848e-09
-2.02279e-13
-4.4454e-14
1.13851e-09
-1.97584e-13
1.36213e-13
1.13886e-09
-1.70608e-13
4.10372e-14
1.13964e-09
-1.50262e-13
9.88078e-14
1.1406e-09
-1.2087e-13
8.24958e-14
1.1417e-09
-9.51958e-14
1.01998e-13
1.14285e-09
-6.29448e-14
1.01527e-13
1.14387e-09
-3.1873e-14
1.07013e-13
1.14464e-09
1.07341e-13
1.14502e-09
-2.71861e-13
5.77807e-11
7.72104e-10
4.26419e-11
4.82732e-11
-4.23194e-11
-4.8174e-11
4.44338e-11
-5.66336e-11
-4.48638e-11
8.86608e-13
-1.92823e-12
1.16408e-09
-2.47403e-13
1.7981e-12
1.16425e-09
-4.89924e-14
-4.8506e-13
1.14207e-09
-1.63304e-13
3.56659e-13
1.13839e-09
-1.57301e-13
-6.33866e-14
1.13792e-09
-1.6631e-13
1.57796e-13
1.13791e-09
-1.52479e-13
5.13932e-14
1.13858e-09
-1.42687e-13
1.19727e-13
1.13956e-09
-1.21463e-13
1.05701e-13
1.14074e-09
-9.6994e-14
1.26756e-13
1.14191e-09
-6.7423e-14
1.28656e-13
1.14284e-09
-3.48443e-14
1.33358e-13
1.1435e-09
1.3444e-13
1.14384e-09
-6.41214e-11
6.48692e-12
-1.35036e-11
1.23866e-11
1.16532e-10
-1.30874e-12
8.31775e-13
9.11626e-10
4.65519e-11
5.5009e-11
-4.79056e-11
-5.51607e-11
-4.85983e-14
4.69631e-13
1.15456e-09
-4.72317e-13
-1.08855e-13
1.14361e-09
-1.82726e-13
3.59716e-14
1.13572e-09
-1.9285e-13
-6.73552e-14
1.13551e-09
-1.44274e-13
9.73769e-14
1.13588e-09
-1.35387e-13
5.95854e-14
1.1368e-09
-1.12897e-13
1.21792e-13
1.13811e-09
-9.36372e-14
1.25899e-13
1.13947e-09
-7.03522e-14
1.48907e-13
1.14068e-09
-4.69275e-14
1.58743e-13
1.14169e-09
-2.27068e-14
1.65698e-13
1.14232e-09
1.68939e-13
1.14267e-09
-2.93119e-11
-2.55086e-12
-9.66539e-12
-8.44523e-13
4.23727e-11
-2.23819e-13
6.49975e-11
7.33837e-10
5.79004e-11
6.15829e-11
-5.74647e-11
-6.08358e-11
4.46697e-11
-6.45751e-11
-4.52536e-11
9.48317e-13
-7.56146e-13
1.135e-09
-1.38076e-13
9.41768e-13
1.15043e-09
-2.2333e-14
-1.18853e-13
1.13272e-09
-1.09098e-13
1.16798e-14
1.13155e-09
-1.09423e-13
9.02535e-14
1.13289e-09
-1.17728e-13
7.68946e-14
1.13456e-09
-1.10131e-13
1.29092e-13
1.13641e-09
-1.08448e-13
1.51855e-13
1.13809e-09
-8.75333e-14
1.59758e-13
1.13951e-09
-6.66829e-14
1.77782e-13
1.14059e-09
-3.42468e-14
1.7472e-13
1.14117e-09
1.79944e-13
1.14151e-09
-5.27948e-11
1.63033e-11
-1.44467e-11
1.40374e-11
1.01899e-10
-1.23654e-12
1.62484e-12
8.91771e-10
4.69458e-11
5.88911e-11
-4.81343e-11
-5.8884e-11
-9.89291e-14
-2.35505e-13
1.14449e-09
-3.0522e-13
5.40466e-14
1.13358e-09
-4.00926e-14
-2.79138e-13
1.12701e-09
-6.64366e-14
1.07545e-13
1.12917e-09
-6.3271e-14
7.47886e-14
1.13205e-09
-4.71956e-14
1.22726e-13
1.13457e-09
-3.71154e-14
1.62716e-13
1.13676e-09
-2.51697e-14
1.73563e-13
1.13855e-09
-1.50349e-14
2.01259e-13
1.13961e-09
-6.55446e-15
2.01792e-13
1.14006e-09
2.10808e-13
1.14033e-09
-3.5303e-11
-1.8815e-12
-1.13146e-11
-3.10108e-12
5.16002e-11
-3.19631e-13
5.83532e-11
7.58815e-10
5.84039e-11
6.27824e-11
-5.79039e-11
-6.18665e-11
4.37614e-11
-5.72029e-11
-4.44162e-11
1.06625e-12
-1.66225e-12
1.13954e-09
-1.55607e-13
1.2374e-12
1.13985e-09
-7.95979e-14
-3.77145e-13
1.12224e-09
-9.18825e-14
1.03259e-13
1.12459e-09
-7.06937e-14
4.84663e-14
1.12928e-09
-7.46085e-14
1.2262e-13
1.13287e-09
-1.16461e-13
2.07344e-13
1.13583e-09
-9.69011e-14
1.72439e-13
1.13786e-09
-8.84866e-14
2.17245e-13
1.13881e-09
-4.47835e-14
1.87394e-13
1.13891e-09
1.99776e-13
1.13895e-09
-7.23821e-11
1.14323e-11
-1.43556e-11
6.01931e-12
1.27639e-10
-1.76045e-12
1.28561e-12
8.90491e-10
4.52061e-11
5.28033e-11
-4.62517e-11
-5.29762e-11
4.04308e-13
-9.65656e-13
1.13026e-09
3.88498e-13
-3.9242e-13
1.12392e-09
2.97243e-13
1.67548e-13
1.12246e-09
6.64484e-15
3.16783e-13
1.12701e-09
9.25876e-14
3.00025e-14
1.1315e-09
9.49475e-14
2.03541e-13
1.13542e-09
8.90263e-14
1.70744e-13
1.13784e-09
7.20464e-14
2.321e-13
1.13844e-09
4.04414e-14
2.17414e-13
1.13778e-09
2.36808e-13
1.1372e-09
-1.38163e-11
2.64624e-12
-1.23401e-11
2.35101e-11
9.95174e-13
4.32047e-11
7.28805e-10
5.67675e-11
5.05526e-11
-5.62849e-11
-5.07738e-11
3.36645e-11
-4.22497e-11
-3.46214e-11
9.69498e-13
-9.89582e-13
1.12622e-09
-1.22558e-12
1.76497e-12
1.13032e-09
-3.48891e-14
-1.05855e-12
1.13978e-09
1.4496e-13
1.10085e-13
1.13345e-09
-5.68974e-16
1.45572e-13
1.13259e-09
-3.15602e-13
5.06956e-13
1.13559e-09
-2.10949e-13
4.33643e-14
1.13829e-09
-2.40993e-13
2.48752e-13
1.13837e-09
-1.00322e-13
5.82969e-14
1.13617e-09
1.27086e-13
1.13426e-09
-1.25224e-11
1.06129e-11
4.51141e-11
-1.28245e-12
5.04924e-11
7.27526e-10
3.38215e-11
4.32417e-11
-3.47731e-11
-4.22836e-11
5.67608e-11
-5.07184e-11
-5.62754e-11
1.6721e-12
5.29441e-11
8.89856e-10
4.52615e-11
-5.31172e-11
-4.63072e-11
2.48745e-13
3.25872e-13
1.1391e-09
-9.16428e-13
1.24092e-12
1.14423e-09
1.33098e-13
-9.32386e-13
1.15025e-09
5.61202e-13
4.89337e-14
1.14346e-09
3.2369e-13
2.65554e-13
1.14192e-09
2.93776e-13
2.65189e-13
1.13908e-09
1.34203e-13
2.1793e-13
1.13377e-09
2.49166e-13
1.12952e-09
-1.5489e-11
1.88688e-11
4.71134e-11
-4.09396e-11
-6.88558e-12
3.45646e-13
1.02223e-11
9.0201e-11
-1.61184e-12
6.27904e-11
7.58517e-10
4.37102e-11
5.83138e-11
-4.43717e-11
-5.71678e-11
5.84188e-11
-6.18735e-11
-5.79143e-11
7.79646e-13
5.89002e-11
8.91529e-10
4.6957e-11
-5.88968e-11
-4.81428e-11
-4.26185e-13
2.31628e-13
1.13483e-09
-1.73577e-12
1.31699e-12
1.15441e-09
-6.55095e-13
-8.54201e-13
1.1641e-09
-5.989e-13
1.69919e-13
1.14988e-09
-2.32545e-13
-1.80628e-13
1.13446e-09
-2.15572e-14
1.12669e-09
-5.65843e-11
5.80423e-12
-4.49008e-12
1.08304e-11
1.0723e-10
-4.30308e-11
5.5681e-12
-6.94808e-12
1.27056e-11
9.06053e-11
-8.24547e-13
6.15826e-11
7.33778e-10
4.46623e-11
6.49953e-11
-4.52472e-11
-6.45682e-11
5.79046e-11
-6.08379e-11
-5.7463e-11
1.97484e-12
5.50061e-11
9.11536e-10
4.65531e-11
-5.51665e-11
-4.79039e-11
7.58383e-13
3.21398e-13
1.16393e-09
6.07671e-13
2.83005e-13
1.18169e-09
2.75361e-13
1.10758e-13
1.13675e-09
2.18581e-13
1.12431e-09
-1.87719e-11
-2.92603e-12
-4.90291e-12
2.66009e-11
-6.90209e-11
1.14009e-11
-8.4319e-12
7.98835e-12
1.19647e-10
-4.39587e-11
5.85424e-12
-6.99827e-12
1.00542e-11
9.00543e-11
-8.73546e-13
4.82716e-11
7.72041e-10
4.44347e-11
5.77848e-11
-4.48665e-11
-5.66298e-11
4.26488e-11
-4.81743e-11
-4.23104e-11
-3.62425e-14
4.00397e-11
9.86013e-10
5.74068e-11
-4.07155e-11
-5.73316e-11
-2.03469e-13
6.59575e-11
8.88284e-10
6.46086e-11
-6.58701e-11
-6.44593e-11
6.27336e-11
8.83437e-10
6.19471e-11
-6.27488e-11
-6.19611e-11
-2.41293e-11
3.43543e-12
6.92273e-12
6.20434e-11
-4.19048e-11
-7.68133e-12
-1.00033e-12
9.06264e-11
-5.17549e-11
4.37112e-12
-1.52713e-12
1.30462e-11
1.01822e-10
-4.82614e-11
-9.44872e-13
1.08028e-12
1.43667e-11
9.64928e-11
-4.15822e-11
-1.43689e-11
-4.8246e-13
5.65131e-11
-2.25654e-13
5.70947e-13
8.83628e-10
6.19748e-11
6.27256e-11
-6.19415e-11
-6.28199e-11
3.48074e-14
-5.2434e-14
1.12451e-09
-2.31466e-13
4.10011e-13
1.12684e-09
-9.93054e-14
-1.72629e-14
1.12961e-09
-2.04064e-13
1.78659e-13
1.13433e-09
-1.57757e-13
1.55229e-14
1.13724e-09
-1.7329e-13
7.8635e-14
1.13895e-09
-1.4227e-13
2.91576e-14
1.14031e-09
-1.3611e-13
4.70569e-14
1.14148e-09
-1.08254e-13
3.40951e-14
1.14262e-09
-8.76916e-14
3.89099e-14
1.14378e-09
-5.75232e-14
3.12805e-14
1.14495e-09
-3.10324e-14
3.07738e-14
1.1461e-09
3.1784e-14
1.14699e-09
-3.48899e-11
1.30965e-12
-1.41558e-11
-1.98121e-12
4.97172e-11
9.38074e-14
1.81482e-13
8.88792e-10
6.46009e-11
6.59371e-11
-6.45406e-11
-6.59575e-11
2.80095e-13
-3.69731e-13
1.13715e-09
-1.4256e-13
7.29077e-13
1.13473e-09
-1.32764e-14
-1.83082e-13
1.13393e-09
-1.78011e-13
3.09369e-13
1.13628e-09
-1.30695e-13
-3.53853e-14
1.13784e-09
-1.63684e-13
1.27047e-13
1.13892e-09
-1.3361e-13
2.82958e-14
1.14004e-09
-1.3223e-13
7.87973e-14
1.14114e-09
-1.05563e-13
5.43156e-14
1.14228e-09
-8.42418e-14
5.94385e-14
1.14345e-09
-5.51591e-14
5.53138e-14
1.14457e-09
-2.86436e-14
5.79116e-14
1.14556e-09
5.71893e-14
1.14613e-09
-8.68146e-12
1.94058e-12
-8.42322e-12
1.51641e-11
-2.46383e-13
9.46154e-13
9.8636e-10
5.7393e-11
4.00423e-11
-5.7389e-11
-4.07234e-11
-7.88833e-14
-6.87939e-13
1.18205e-09
-2.03858e-13
7.5616e-13
1.15016e-09
-1.6811e-13
-2.6964e-13
1.13926e-09
-1.81404e-13
2.90721e-13
1.13852e-09
-1.75138e-13
-5.8353e-14
1.13853e-09
-1.59723e-13
1.24439e-13
1.13885e-09
-1.38007e-13
3.01246e-14
1.13961e-09
-1.20331e-13
8.18293e-14
1.14058e-09
-9.33171e-14
6.34641e-14
1.14166e-09
-7.30231e-14
8.2726e-14
1.14281e-09
-4.77764e-14
8.12048e-14
1.14382e-09
-2.42032e-14
8.64277e-14
1.14459e-09
8.64597e-14
1.14497e-09
-2.85306e-13
5.77817e-11
7.72185e-10
4.26427e-11
4.82745e-11
-4.2319e-11
-4.81736e-11
4.44332e-11
-5.66309e-11
-4.48604e-11
8.96413e-13
-1.93773e-12
1.16415e-09
-2.27174e-13
1.80514e-12
1.16433e-09
-2.13313e-14
-5.06114e-13
1.1421e-09
-1.30161e-13
3.59725e-13
1.13844e-09
-1.17788e-13
-8.19272e-14
1.13794e-09
-1.30445e-13
1.42327e-13
1.1379e-09
-1.16957e-13
3.73062e-14
1.13856e-09
-1.11752e-13
9.92123e-14
1.13954e-09
-9.46429e-14
8.25437e-14
1.14071e-09
-7.60881e-14
1.01763e-13
1.14187e-09
-5.29009e-14
1.02114e-13
1.1428e-09
-2.74868e-14
1.06112e-13
1.14346e-09
1.06521e-13
1.1438e-09
-6.41234e-11
6.48676e-12
-1.35029e-11
1.23867e-11
1.16535e-10
-1.3013e-12
8.29013e-13
9.11673e-10
4.65518e-11
5.50088e-11
-4.79086e-11
-5.51642e-11
-2.92038e-14
4.73735e-13
1.15462e-09
-4.59028e-13
-1.2018e-13
1.14365e-09
-1.52902e-13
2.54481e-14
1.13575e-09
-1.66652e-13
-8.33322e-14
1.13553e-09
-1.11818e-13
7.73183e-14
1.13589e-09
-1.04476e-13
3.68106e-14
1.1368e-09
-8.37659e-14
9.62155e-14
1.13809e-09
-6.8037e-14
9.74827e-14
1.13944e-09
-5.03561e-14
1.18956e-13
1.14065e-09
-3.28221e-14
1.26739e-13
1.14165e-09
-1.56433e-14
1.33003e-13
1.14228e-09
1.35287e-13
1.14263e-09
-2.9313e-11
-2.55103e-12
-9.66528e-12
-8.44566e-13
4.23739e-11
-2.18079e-13
6.49987e-11
7.33867e-10
5.79003e-11
6.1583e-11
-5.74667e-11
-6.08375e-11
4.467e-11
-6.45758e-11
-4.5254e-11
9.63576e-13
-7.53612e-13
1.13505e-09
-1.22164e-13
9.35957e-13
1.15047e-09
2.66821e-15
-1.34311e-13
1.13275e-09
-7.97453e-14
-7.7041e-15
1.13155e-09
-7.92245e-14
6.89745e-14
1.1329e-09
-8.83681e-14
5.93636e-14
1.13455e-09
-8.35501e-14
1.01854e-13
1.1364e-09
-8.55547e-14
1.21279e-13
1.13807e-09
-6.98367e-14
1.26471e-13
1.13949e-09
-5.46285e-14
1.41531e-13
1.14056e-09
-2.87012e-14
1.36386e-13
1.14114e-09
1.40693e-13
1.14148e-09
-5.27964e-11
1.6303e-11
-1.44466e-11
1.40376e-11
1.01901e-10
-1.22964e-12
1.62794e-12
8.91803e-10
4.69468e-11
5.88926e-11
-4.81359e-11
-5.88855e-11
-7.61864e-14
-2.48746e-13
1.14452e-09
-2.84214e-13
4.43637e-14
1.1336e-09
-5.77118e-15
-3.00312e-13
1.12703e-09
-4.25453e-14
9.14477e-14
1.12918e-09
-3.68006e-14
4.78387e-14
1.13206e-09
-2.49977e-14
9.53925e-14
1.13456e-09
-1.59438e-14
1.28209e-13
1.13675e-09
-9.30478e-15
1.38509e-13
1.13853e-09
-3.71041e-15
1.62291e-13
1.13958e-09
-4.94033e-16
1.62465e-13
1.14003e-09
1.70698e-13
1.1403e-09
-3.53043e-11
-1.88156e-12
-1.13148e-11
-3.10103e-12
5.16017e-11
-3.15852e-13
5.83558e-11
7.58842e-10
5.84056e-11
6.2785e-11
-5.79049e-11
-6.18673e-11
4.37631e-11
-5.72031e-11
-4.44169e-11
1.07432e-12
-1.67129e-12
1.13957e-09
-1.41234e-13
1.22993e-12
1.13988e-09
-6.86382e-14
-3.9339e-13
1.12226e-09
-7.41848e-14
8.63601e-14
1.1246e-09
-4.65177e-14
1.13095e-14
1.12928e-09
-5.31671e-14
9.75622e-14
1.13288e-09
-1.03463e-13
1.89652e-13
1.13581e-09
-8.74402e-14
1.33333e-13
1.13785e-09
-8.42442e-14
1.78978e-13
1.13879e-09
-4.25181e-14
1.3988e-13
1.1389e-09
1.50825e-13
1.13893e-09
-7.23845e-11
1.14329e-11
-1.43554e-11
6.01964e-12
1.27643e-10
-1.75693e-12
1.28123e-12
8.90514e-10
4.52069e-11
5.28047e-11
-4.62533e-11
-5.29777e-11
4.16514e-13
-9.72273e-13
1.13028e-09
4.04768e-13
-4.04313e-13
1.12394e-09
3.18596e-13
1.51905e-13
1.12248e-09
2.04182e-14
2.95043e-13
1.12702e-09
1.10161e-13
5.38882e-15
1.1315e-09
1.17892e-13
1.72485e-13
1.13543e-09
1.09508e-13
1.36682e-13
1.13785e-09
8.88337e-14
1.9652e-13
1.13844e-09
4.95055e-14
1.80104e-13
1.13778e-09
1.99916e-13
1.13721e-09
-1.38168e-11
2.64624e-12
-1.23402e-11
2.35107e-11
9.95907e-13
4.32067e-11
7.28826e-10
5.67691e-11
5.0554e-11
-5.62865e-11
-5.07753e-11
3.3666e-11
-4.22495e-11
-3.46221e-11
9.76117e-13
-9.86373e-13
1.12626e-09
-1.21887e-12
1.76365e-12
1.13035e-09
-2.58925e-14
-1.06766e-12
1.1398e-09
1.59921e-13
8.83524e-14
1.13347e-09
1.32125e-14
1.27155e-13
1.13261e-09
-3.17228e-13
4.91096e-13
1.1356e-09
-2.11479e-13
1.41487e-14
1.13831e-09
-2.42871e-13
2.1672e-13
1.13838e-09
-1.01964e-13
2.32908e-14
1.13619e-09
8.61674e-14
1.13428e-09
-1.2519e-11
1.06111e-11
4.5115e-11
-1.278e-12
5.04953e-11
7.27549e-10
3.38218e-11
4.32412e-11
-3.47741e-11
-4.22859e-11
5.67634e-11
-5.07177e-11
-5.62753e-11
1.67991e-12
5.29459e-11
8.8988e-10
4.52627e-11
-5.31182e-11
-4.63086e-11
2.6058e-13
3.22285e-13
1.13913e-09
-9.0996e-13
1.2332e-12
1.14425e-09
1.44543e-13
-9.48806e-13
1.15027e-09
5.83302e-13
3.09562e-14
1.14348e-09
3.40693e-13
2.43018e-13
1.14193e-09
3.06434e-13
2.39729e-13
1.13909e-09
1.44789e-13
1.71741e-13
1.13379e-09
2.21521e-13
1.12952e-09
-1.54894e-11
1.88696e-11
4.7115e-11
-4.09406e-11
-6.88591e-12
3.45805e-13
1.02225e-11
9.02036e-11
-1.61517e-12
6.27934e-11
7.5854e-10
4.3712e-11
5.83168e-11
-4.43715e-11
-5.71675e-11
5.84208e-11
-6.18741e-11
-5.79153e-11
7.77629e-13
5.89017e-11
8.91552e-10
4.6958e-11
-5.8899e-11
-4.81447e-11
-4.29313e-13
2.26365e-13
1.13487e-09
-1.74157e-12
1.31053e-12
1.15445e-09
-6.60187e-13
-8.6963e-13
1.16413e-09
-6.00604e-13
1.47823e-13
1.14992e-09
-2.31676e-13
-2.30228e-13
1.13449e-09
-4.32737e-14
1.12672e-09
-5.65861e-11
5.80466e-12
-4.48979e-12
1.08313e-11
1.07233e-10
-4.30317e-11
5.56828e-12
-6.94813e-12
1.27062e-11
9.06076e-11
-8.21171e-13
6.15846e-11
7.33799e-10
4.4663e-11
6.49969e-11
-4.52485e-11
-6.45701e-11
5.79057e-11
-6.08396e-11
-5.74652e-11
1.98459e-12
5.50065e-11
9.11559e-10
4.65532e-11
-5.51704e-11
-4.79068e-11
7.68945e-13
3.14081e-13
1.16396e-09
6.1773e-13
2.72395e-13
1.18172e-09
2.76569e-13
9.45811e-14
1.13677e-09
2.08968e-13
1.12433e-09
-1.87726e-11
-2.92606e-12
-4.90301e-12
2.66017e-11
-6.90232e-11
1.1402e-11
-8.43258e-12
7.98879e-12
1.1965e-10
-4.39596e-11
5.85466e-12
-6.99899e-12
1.00538e-11
9.00564e-11
-8.76979e-13
4.82728e-11
7.7207e-10
4.44364e-11
5.77879e-11
-4.4867e-11
-5.66298e-11
4.26496e-11
-4.81758e-11
-4.23119e-11
-3.6263e-14
4.00407e-11
9.8605e-10
5.74065e-11
-4.07167e-11
-5.73348e-11
-2.06236e-13
6.59592e-11
8.88313e-10
6.461e-11
-6.58722e-11
-6.44618e-11
6.27354e-11
8.83465e-10
6.1949e-11
-6.27512e-11
-6.19629e-11
-2.41302e-11
3.43545e-12
6.92307e-12
6.20454e-11
-4.19061e-11
-7.68244e-12
-9.99275e-13
9.06289e-11
-5.17562e-11
4.3712e-12
-1.52688e-12
1.30465e-11
1.01825e-10
-4.82622e-11
-9.45311e-13
1.08099e-12
1.43673e-11
9.64949e-11
-4.15592e-11
-1.43609e-11
-5.10919e-13
5.64993e-11
-2.17328e-13
4.79164e-13
8.83694e-10
6.19615e-11
6.27395e-11
-6.1951e-11
-6.28225e-11
5.3151e-14
-1.05125e-13
1.12459e-09
-2.10532e-13
3.91701e-13
1.12688e-09
-6.67004e-14
-3.13226e-14
1.12962e-09
-1.77067e-13
1.78862e-13
1.13435e-09
-1.22174e-13
8.05034e-15
1.13724e-09
-1.44165e-13
7.72731e-14
1.13894e-09
-1.12683e-13
2.34853e-14
1.14028e-09
-1.10866e-13
4.3307e-14
1.14146e-09
-8.62634e-14
2.93124e-14
1.14258e-09
-7.05371e-14
3.49018e-14
1.14374e-09
-4.62924e-14
3.29442e-14
1.14491e-09
-2.54518e-14
3.18422e-14
1.14606e-09
2.88357e-14
1.14695e-09
-3.49071e-11
1.3403e-12
-1.41711e-11
-1.99748e-12
4.97354e-11
5.31259e-14
1.41686e-13
8.88979e-10
6.46277e-11
6.59647e-11
-6.454e-11
-6.59549e-11
2.54851e-13
-4.03412e-13
1.13724e-09
-1.51659e-13
7.13872e-13
1.13482e-09
2.66314e-15
-2.03838e-13
1.13395e-09
-1.51125e-13
3.06315e-13
1.13631e-09
-9.73118e-14
-4.76225e-14
1.13784e-09
-1.35564e-13
1.2392e-13
1.13892e-09
-1.03508e-13
1.43024e-14
1.14002e-09
-1.06362e-13
7.1463e-14
1.14112e-09
-8.40873e-14
4.65659e-14
1.14224e-09
-6.88092e-14
6.0588e-14
1.14341e-09
-4.44479e-14
5.11747e-14
1.14453e-09
-2.25899e-14
5.04446e-14
1.14552e-09
4.89073e-14
1.14609e-09
-8.68352e-12
1.94857e-12
-8.43166e-12
1.51666e-11
-2.57038e-13
9.36678e-13
9.86477e-10
5.74105e-11
4.00449e-11
-5.73865e-11
-4.07246e-11
-7.80431e-14
-7.12223e-13
1.18218e-09
-1.89605e-13
7.47072e-13
1.15024e-09
-1.45696e-13
-2.89001e-13
1.1393e-09
-1.56023e-13
2.88037e-13
1.13854e-09
-1.43349e-13
-7.37177e-14
1.13854e-09
-1.3119e-13
1.17274e-13
1.13884e-09
-1.11778e-13
1.38359e-14
1.13959e-09
-9.92909e-14
7.77367e-14
1.14056e-09
-7.55672e-14
5.03434e-14
1.14164e-09
-5.7437e-14
6.93895e-14
1.14278e-09
-3.64978e-14
6.7437e-14
1.14379e-09
-1.84887e-14
7.21907e-14
1.14455e-09
7.23028e-14
1.14493e-09
-2.67502e-13
5.77826e-11
7.72238e-10
4.26443e-11
4.8274e-11
-4.23183e-11
-4.81751e-11
4.44315e-11
-5.66287e-11
-4.4859e-11
9.07377e-13
-1.9497e-12
1.16421e-09
-2.12257e-13
1.80404e-12
1.16439e-09
-2.90163e-15
-5.26663e-13
1.14213e-09
-1.07141e-13
3.58979e-13
1.13847e-09
-8.84083e-14
-1.01943e-13
1.13794e-09
-1.04135e-13
1.34679e-13
1.1379e-09
-8.8947e-14
1.65909e-14
1.13854e-09
-8.78033e-14
9.67134e-14
1.13952e-09
-7.44284e-14
6.95355e-14
1.14068e-09
-6.04697e-14
8.60186e-14
1.14184e-09
-4.20312e-14
8.45402e-14
1.14276e-09
-2.17298e-14
8.76179e-14
1.14342e-09
8.79454e-14
1.14376e-09
-6.41259e-11
6.48717e-12
-1.35025e-11
1.23871e-11
1.16537e-10
-1.30121e-12
8.27444e-13
9.11711e-10
4.65536e-11
5.50088e-11
-4.79095e-11
-5.51661e-11
-1.64895e-14
4.71341e-13
1.15467e-09
-4.49349e-13
-1.31042e-13
1.14369e-09
-1.30286e-13
1.42998e-14
1.13578e-09
-1.58106e-13
-9.63666e-14
1.13555e-09
-8.90654e-14
6.34916e-14
1.13589e-09
-8.5678e-14
1.95199e-14
1.13679e-09
-6.37327e-14
7.74772e-14
1.13809e-09
-4.97168e-14
7.67702e-14
1.13942e-09
-3.61311e-14
9.72857e-14
1.14063e-09
-2.26778e-14
1.03268e-13
1.14162e-09
-1.01132e-14
1.09396e-13
1.14225e-09
1.11338e-13
1.14259e-09
-2.93139e-11
-2.55097e-12
-9.66568e-12
-8.44523e-13
4.23751e-11
-2.16806e-13
6.50002e-11
7.3389e-10
5.79018e-11
6.15838e-11
-5.74666e-11
-6.08384e-11
4.46706e-11
-6.45757e-11
-4.5254e-11
9.73376e-13
-7.55891e-13
1.13508e-09
-1.11953e-13
9.2896e-13
1.15049e-09
2.76453e-14
-1.49037e-13
1.13278e-09
-6.35022e-14