/*--------------------------------*- C++ -*----------------------------------*\
| =========                 |                                                 |
| \\      /  F ield         | OpenFOAM: The Open Source CFD Toolbox           |
|  \\    /   O peration     | Version:  2.1.1                                 |
|   \\  /    A nd           | Web:      www.OpenFOAM.org                      |
|    \\/     M anipulation  |                                                 |
\*---------------------------------------------------------------------------*/
FoamFile
{
    version     2.0;
    format      ascii;
    class       volScalarField;
    location    "0.065";
    object      p;
}
// * * * * * * * * * * * * * * * * * * * * * * * * * * * * * * * * * * * * * //

dimensions      [0 2 -2 0 0 0 0];

internalField   nonuniform List<scalar> 
163952
(
0.0416672
0.041091
0.0363548
0.0311601
0.0299634
0.027352
0.0267619
0.0264383
0.0366748
0.0323327
0.0272913
0.0248016
0.0235581
0.0227791
0.0224649
0.0223237
0.033706
0.0279691
0.0244655
0.0228259
0.0219133
0.0213756
0.0210369
0.0208567
0.0207712
0.0335757
0.0260769
0.0232426
0.0218961
0.0211409
0.0206622
0.0203427
0.0201311
0.020005
0.0199415
0.033577
0.0255349
0.0227184
0.0214402
0.0207255
0.0202618
0.0199379
0.0197072
0.0195477
0.0194472
0.0193949
0.0337062
0.026077
0.0227184
0.0212967
0.0205343
0.0200456
0.0197002
0.0194464
0.0192598
0.0191278
0.0190423
0.0189969
0.0366746
0.0279691
0.0232426
0.0214402
0.0205342
0.019976
0.0195878
0.0193012
0.0190857
0.0189252
0.0188103
0.0187349
0.0186944
0.0323328
0.0244655
0.0218961
0.0207255
0.0200456
0.0195878
0.0192543
0.0190027
0.0188115
0.0186683
0.0185652
0.0184971
0.0184603
0.0363549
0.0272913
0.0228259
0.0211409
0.0202618
0.0197002
0.0193012
0.0190027
0.0187747
0.0186006
0.0184696
0.018375
0.0183121
0.0182781
0.0311602
0.0248017
0.0219134
0.0206622
0.0199379
0.0194464
0.0190857
0.0188115
0.0186006
0.0184387
0.0183165
0.0182281
0.0181691
0.0181372
0.0299634
0.0235581
0.0213756
0.0203427
0.0197072
0.0192599
0.0189252
0.0186683
0.0184696
0.0183165
0.0182008
0.0181167
0.0180606
0.0180302
0.0273521
0.0227792
0.021037
0.0201311
0.0195478
0.0191279
0.0188103
0.0185653
0.018375
0.0182281
0.0181167
0.0180357
0.0179816
0.0179522
0.0416673
0.026762
0.0224649
0.0208568
0.020005
0.0194473
0.0190424
0.0187349
0.0184971
0.0183122
0.0181692
0.0180606
0.0179816
0.0179288
0.0179
0.041091
0.0264384
0.0223238
0.0207713
0.0199416
0.0193949
0.018997
0.0186945
0.0184604
0.0182782
0.0181372
0.0180302
0.0179522
0.0179001
0.0178717
0.0234933
0.0235501
0.0224879
0.0236971
0.0224282
0.0221142
0.0220694
0.0220485
0.0225925
0.0244065
0.0220937
0.0217816
0.0215211
0.0213303
0.0212556
0.0212039
0.0233707
0.0221455
0.0217277
0.0213158
0.0209752
0.0206966
0.0205119
0.0204159
0.0203664
0.0221151
0.0218248
0.0213876
0.0209465
0.0205538
0.0202427
0.0200066
0.0198469
0.0197548
0.0197106
0.0221158
0.0216956
0.0212035
0.0206997
0.0202729
0.0199305
0.019671
0.0194798
0.0193481
0.0192679
0.0192294
0.0233709
0.021825
0.0212035
0.0206197
0.0201309
0.0197531
0.019464
0.0192462
0.0190855
0.0189733
0.018903
0.018869
0.0225927
0.0221456
0.0213877
0.0206997
0.0201309
0.0196945
0.0193652
0.0191149
0.0189256
0.0187854
0.0186864
0.0186236
0.0185931
0.0244065
0.0217277
0.0209465
0.0202729
0.0197531
0.0193652
0.0190724
0.0188493
0.0186799
0.0185537
0.0184642
0.0184069
0.0183789
0.0224879
0.0220938
0.0213159
0.0205539
0.0199305
0.019464
0.0191149
0.0188493
0.0186458
0.0184903
0.0183741
0.0182913
0.0182381
0.018212
0.0236972
0.0217816
0.0209752
0.0202427
0.0196711
0.0192462
0.0189257
0.0186799
0.0184904
0.018345
0.0182359
0.0181579
0.0181077
0.018083
0.0224283
0.0215211
0.0206966
0.0200066
0.0194799
0.0190855
0.0187854
0.0185537
0.0183741
0.0182359
0.0181319
0.0180574
0.0180093
0.0179857
0.0221142
0.0213304
0.020512
0.019847
0.0193482
0.0189733
0.0186865
0.0184642
0.0182913
0.0181579
0.0180574
0.0179853
0.0179387
0.0179158
0.0234933
0.0220694
0.0212557
0.0204159
0.0197549
0.019268
0.018903
0.0186237
0.0184069
0.0182381
0.0181077
0.0180093
0.0179387
0.017893
0.0178706
0.0235502
0.0220486
0.021204
0.0203665
0.0197106
0.0192294
0.0188691
0.0185931
0.018379
0.0182121
0.0180831
0.0179857
0.0179158
0.0178706
0.0178484
0.0198496
0.0198639
0.0199286
0.0203105
0.0205341
0.0204184
0.0203109
0.0202704
0.0199353
0.0207792
0.0203291
0.0202511
0.0201564
0.0201177
0.0200883
0.020063
0.0201457
0.0203428
0.0202425
0.0201221
0.0199855
0.0198411
0.0197498
0.0196948
0.0196645
0.0204927
0.0202759
0.0201509
0.0199711
0.0197792
0.0196135
0.0194738
0.0193738
0.0193115
0.0192803
0.0204935
0.0202307
0.0200778
0.0198563
0.0196315
0.0194291
0.019263
0.0191318
0.0190373
0.0189774
0.0189478
0.0201457
0.0202761
0.0200778
0.0198185
0.0195527
0.0193193
0.019123
0.0189648
0.0188422
0.0187539
0.0186973
0.0186695
0.0199354
0.0203429
0.020151
0.0198564
0.0195528
0.0192819
0.0190537
0.0188665
0.0187176
0.0186032
0.0185208
0.0184676
0.0184416
0.0207793
0.0202426
0.0199711
0.0196316
0.0193193
0.0190537
0.0188341
0.0186565
0.0185162
0.0184091
0.0183317
0.0182817
0.0182571
0.0199286
0.0203291
0.0201221
0.0197793
0.0194291
0.019123
0.0188665
0.0186565
0.0184877
0.0183549
0.0182535
0.0181803
0.0181329
0.0181095
0.0203106
0.0202512
0.0199855
0.0196135
0.0192631
0.0189648
0.0187176
0.0185163
0.0183549
0.018228
0.0181312
0.0180612
0.0180157
0.0179934
0.0205341
0.0201564
0.0198411
0.0194738
0.0191319
0.0188423
0.0186033
0.0184091
0.0182535
0.0181312
0.0180377
0.0179702
0.0179263
0.0179047
0.0204185
0.0201177
0.0197499
0.0193738
0.0190373
0.0187539
0.0185208
0.0183318
0.0181803
0.0180612
0.0179702
0.0179044
0.0178616
0.0178405
0.0198496
0.020311
0.0200884
0.0196949
0.0193116
0.0189774
0.0186973
0.0184677
0.0182818
0.0181329
0.0180158
0.0179263
0.0178616
0.0178195
0.0177988
0.019864
0.0202705
0.020063
0.0196645
0.0192804
0.0189479
0.0186696
0.0184416
0.0182572
0.0181096
0.0179934
0.0179047
0.0178405
0.0177988
0.0177782
0.0185023
0.0185127
0.0186194
0.0188464
0.0191773
0.019177
0.0191246
0.0191026
0.0186342
0.0190601
0.0191002
0.0190877
0.0190585
0.01906
0.0190589
0.0190553
0.0187751
0.019104
0.0190916
0.0190846
0.019056
0.0190043
0.0189687
0.0189434
0.0189291
0.0192073
0.0191073
0.0191014
0.0190512
0.0189852
0.0189211
0.0188584
0.0188087
0.0187741
0.0187558
0.0192079
0.0190877
0.0190827
0.0190198
0.0189305
0.0188373
0.0187516
0.0186772
0.0186202
0.0185821
0.0185628
0.0187751
0.0191075
0.0190827
0.0190085
0.0188999
0.018784
0.0186738
0.0185769
0.0184967
0.0184363
0.0183963
0.0183764
0.0186343
0.019104
0.0191014
0.0190198
0.0189
0.0187653
0.0186335
0.0185141
0.0184125
0.0183306
0.0182696
0.0182293
0.0182093
0.0190602
0.0190916
0.0190513
0.0189305
0.018784
0.0186335
0.018493
0.0183698
0.0182671
0.0181855
0.0181251
0.0180854
0.0180657
0.0186194
0.0191002
0.0190846
0.0189852
0.0188373
0.0186738
0.0185142
0.0183698
0.0182459
0.0181438
0.0180634
0.0180041
0.0179651
0.0179458
0.0188465
0.0190878
0.019056
0.0189211
0.0187517
0.0185769
0.0184125
0.0182671
0.0181438
0.018043
0.017964
0.0179059
0.0178677
0.0178488
0.0191773
0.0190586
0.0190044
0.0188584
0.0186773
0.0184967
0.0183306
0.0181856
0.0180634
0.017964
0.0178864
0.0178293
0.0177918
0.0177733
0.019177
0.0190601
0.0189687
0.0188087
0.0186203
0.0184363
0.0182696
0.0181252
0.0180041
0.0179059
0.0178293
0.017773
0.0177361
0.0177178
0.0185024
0.0191246
0.0190589
0.0189434
0.0187741
0.0185822
0.0183964
0.0182294
0.0180854
0.0179652
0.0178678
0.0177918
0.0177361
0.0176996
0.0176815
0.0185127
0.0191027
0.0190554
0.0189292
0.0187559
0.0185629
0.0183764
0.0182094
0.0180657
0.0179459
0.0178489
0.0177733
0.0177179
0.0176815
0.0176635
0.0177843
0.0177925
0.0178452
0.0179938
0.0182102
0.0182538
0.0182442
0.0182426
0.0178701
0.0181025
0.0182103
0.0182295
0.018235
0.0182474
0.0182557
0.0182603
0.0179599
0.0182117
0.018238
0.0182712
0.0182897
0.0182893
0.0182863
0.0182803
0.0182761
0.0182442
0.0182337
0.0182776
0.0182911
0.0182915
0.018284
0.0182688
0.0182529
0.0182392
0.0182313
0.0182445
0.0182284
0.0182845
0.0183001
0.0182878
0.0182628
0.0182315
0.0181988
0.0181711
0.0181512
0.0181407
0.0179599
0.0182338
0.0182845
0.0183027
0.0182849
0.018246
0.0181985
0.0181499
0.0181054
0.0180699
0.0180453
0.0180327
0.0178701
0.0182117
0.0182777
0.0183001
0.0182849
0.0182399
0.0181799
0.0181162
0.0180564
0.0180049
0.0179647
0.0179375
0.0179237
0.0181025
0.018238
0.0182911
0.0182878
0.018246
0.0181799
0.0181045
0.0180303
0.0179636
0.017908
0.0178653
0.0178366
0.0178222
0.0178452
0.0182104
0.0182712
0.0182915
0.0182629
0.0181985
0.0181163
0.0180303
0.0179496
0.0178789
0.017821
0.017777
0.0177475
0.0177328
0.0179938
0.0182295
0.0182897
0.0182841
0.0182316
0.0181499
0.0180564
0.0179637
0.0178789
0.0178061
0.0177469
0.0177023
0.0176726
0.0176577
0.0182102
0.018235
0.0182893
0.0182688
0.0181989
0.0181055
0.0180049
0.017908
0.017821
0.0177469
0.0176872
0.0176424
0.0176126
0.0175977
0.0182538
0.0182475
0.0182864
0.0182529
0.0181712
0.0180699
0.0179648
0.0178653
0.017777
0.0177023
0.0176424
0.0175975
0.0175677
0.0175528
0.0177843
0.0182442
0.0182558
0.0182804
0.0182392
0.0181512
0.0180454
0.0179375
0.0178366
0.0177476
0.0176726
0.0176126
0.0175677
0.0175379
0.017523
0.0177925
0.0182427
0.0182604
0.0182762
0.0182313
0.0181408
0.0180328
0.0179237
0.0178222
0.0177329
0.0176578
0.0175977
0.0175528
0.0175231
0.0175082
0.0172741
0.0172808
0.0172932
0.017386
0.0175112
0.0175615
0.0175667
0.0175728
0.0173152
0.0174592
0.0175411
0.0175721
0.0175936
0.017613
0.0176237
0.0176297
0.0173701
0.0175415
0.017583
0.0176272
0.0176612
0.017682
0.017696
0.0177018
0.0177037
0.017542
0.0175688
0.017627
0.0176657
0.017695
0.017715
0.0177253
0.0177298
0.0177301
0.0177294
0.0175422
0.017573
0.0176438
0.0176899
0.0177156
0.0177287
0.0177312
0.0177267
0.0177201
0.0177139
0.0177103
0.0173701
0.0175689
0.0176437
0.0176984
0.0177263
0.0177338
0.0177282
0.0177147
0.0176979
0.0176824
0.0176707
0.0176644
0.0173153
0.0175415
0.0176271
0.0176899
0.0177263
0.0177353
0.0177248
0.0177031
0.0176768
0.0176508
0.0176289
0.0176133
0.0176052
0.0174592
0.017583
0.0176657
0.0177156
0.0177338
0.0177248
0.0176986
0.0176644
0.0176288
0.0175963
0.01757
0.0175517
0.0175423
0.0172932
0.0175411
0.0176272
0.017695
0.0177287
0.0177282
0.0177031
0.0176644
0.0176209
0.0175788
0.0175419
0.0175127
0.0174926
0.0174824
0.0173861
0.0175722
0.0176613
0.017715
0.0177312
0.0177147
0.0176768
0.0176288
0.0175788
0.0175322
0.0174923
0.0174612
0.01744
0.0174293
0.0175112
0.0175936
0.0176821
0.0177253
0.0177268
0.0176979
0.0176509
0.0175963
0.0175419
0.0174923
0.0174506
0.0174183
0.0173964
0.0173853
0.0175616
0.0176131
0.0176961
0.0177298
0.0177201
0.0176824
0.017629
0.01757
0.0175127
0.0174613
0.0174183
0.0173852
0.0173629
0.0173516
0.0172741
0.0175668
0.0176237
0.0177019
0.0177302
0.017714
0.0176707
0.0176133
0.0175517
0.0174926
0.0174401
0.0173964
0.0173629
0.0173403
0.0173289
0.0172809
0.0175729
0.0176298
0.0177038
0.0177295
0.0177103
0.0176645
0.0176052
0.0175424
0.0174824
0.0174294
0.0173853
0.0173516
0.0173289
0.0173175
0.0168406
0.0168482
0.0168406
0.0169005
0.0169673
0.0170134
0.0170226
0.0170304
0.0168586
0.0169597
0.0170069
0.0170384
0.0170636
0.0170866
0.0170988
0.0171055
0.0168929
0.0170069
0.0170505
0.0170947
0.0171313
0.0171582
0.017179
0.0171909
0.0171962
0.016994
0.0170325
0.0170911
0.017137
0.0171764
0.017208
0.0172307
0.0172462
0.0172548
0.0172586
0.0169941
0.0170401
0.0171096
0.0171649
0.0172071
0.0172395
0.0172614
0.0172746
0.017282
0.0172854
0.0172866
0.0168929
0.0170326
0.0171095
0.0171749
0.0172235
0.0172567
0.0172773
0.0172874
0.0172905
0.01729
0.0172882
0.0172869
0.0168586
0.0170069
0.0170912
0.0171649
0.0172235
0.0172625
0.0172837
0.0172915
0.0172903
0.0172844
0.0172773
0.0172713
0.017268
0.0169597
0.0170505
0.017137
0.0172071
0.0172568
0.0172838
0.0172923
0.0172885
0.0172778
0.0172646
0.0172524
0.0172432
0.0172383
0.0168407
0.0170069
0.0170947
0.0171764
0.0172395
0.0172773
0.0172915
0.0172885
0.017275
0.0172569
0.0172383
0.0172224
0.0172108
0.0172048
0.0169005
0.0170384
0.0171313
0.017208
0.0172614
0.0172874
0.0172903
0.0172778
0.0172569
0.0172333
0.0172108
0.0171922
0.0171789
0.0171721
0.0169673
0.0170636
0.0171582
0.0172307
0.0172746
0.0172905
0.0172844
0.0172647
0.0172384
0.0172108
0.0171856
0.0171651
0.0171508
0.0171434
0.0170135
0.0170866
0.0171791
0.0172462
0.017282
0.01729
0.0172773
0.0172524
0.0172224
0.0171922
0.0171651
0.0171434
0.0171283
0.0171206
0.0168406
0.0170226
0.0170988
0.0171909
0.0172549
0.0172854
0.0172883
0.0172714
0.0172432
0.0172108
0.017179
0.0171508
0.0171283
0.0171128
0.0171048
0.0168482
0.0170305
0.0171056
0.0171963
0.0172587
0.0172867
0.017287
0.017268
0.0172384
0.0172048
0.0171722
0.0171435
0.0171206
0.0171048
0.0170968
0.0164504
0.0164585
0.0164471
0.0164864
0.0165183
0.0165568
0.0165666
0.0165743
0.0164604
0.0165376
0.0165589
0.0165865
0.0166102
0.016633
0.0166456
0.0166527
0.0164834
0.0165587
0.0165989
0.0166392
0.0166735
0.0167004
0.0167227
0.0167367
0.0167435
0.0165407
0.0165803
0.0166342
0.0166797
0.0167206
0.0167556
0.016783
0.0168036
0.0168164
0.0168226
0.0165408
0.016588
0.0166513
0.0167065
0.016754
0.0167945
0.0168263
0.0168493
0.0168651
0.0168746
0.016879
0.0164834
0.0165803
0.0166512
0.0167163
0.016772
0.0168177
0.0168527
0.0168774
0.0168935
0.0169034
0.0169088
0.0169111
0.0164604
0.0165588
0.0166342
0.0167065
0.016772
0.0168255
0.0168651
0.0168918
0.016908
0.0169167
0.0169207
0.0169222
0.0169226
0.0165376
0.0165989
0.0166797
0.016754
0.0168177
0.0168651
0.0168962
0.0169137
0.0169217
0.0169236
0.0169227
0.016921
0.0169198
0.0164471
0.0165589
0.0166392
0.0167206
0.0167945
0.0168527
0.0168918
0.0169137
0.0169228
0.0169237
0.0169202
0.0169153
0.016911
0.0169086
0.0164864
0.0165865
0.0166735
0.0167556
0.0168263
0.0168775
0.016908
0.0169217
0.0169237
0.0169189
0.0169112
0.0169034
0.0168972
0.0168938
0.0165183
0.0166102
0.0167005
0.016783
0.0168493
0.0168936
0.0169167
0.0169237
0.0169202
0.0169112
0.0169004
0.0168904
0.0168828
0.0168788
0.0165568
0.016633
0.0167227
0.0168036
0.0168652
0.0169034
0.0169207
0.0169227
0.0169153
0.0169034
0.0168904
0.0168788
0.0168704
0.0168659
0.0164504
0.0165666
0.0166456
0.0167367
0.0168165
0.0168747
0.0169088
0.0169223
0.016921
0.0169111
0.0168972
0.0168829
0.0168704
0.0168613
0.0168566
0.0164585
0.0165744
0.0166527
0.0167436
0.0168226
0.0168791
0.0169112
0.0169227
0.0169198
0.0169087
0.0168939
0.0168789
0.0168659
0.0168566
0.0168517
0.016095
0.0161026
0.0160936
0.01612
0.0161313
0.0161622
0.0161713
0.016178
0.0161033
0.0161648
0.0161691
0.0161923
0.0162128
0.0162334
0.0162452
0.016252
0.01612
0.016169
0.0162041
0.0162395
0.01627
0.0162947
0.0163157
0.0163296
0.0163367
0.0161503
0.0161868
0.0162343
0.0162761
0.0163146
0.0163488
0.0163769
0.0163989
0.0164132
0.0164204
0.0161504
0.0161938
0.0162492
0.0163004
0.0163472
0.0163894
0.0164247
0.0164523
0.0164725
0.0164853
0.0164916
0.01612
0.0161868
0.0162492
0.0163092
0.0163648
0.0164145
0.0164562
0.0164888
0.0165126
0.016529
0.016539
0.0165438
0.0161033
0.016169
0.0162343
0.0163004
0.0163648
0.0164231
0.0164716
0.0165092
0.0165364
0.0165548
0.0165667
0.0165736
0.0165768
0.0161648
0.0162041
0.0162761
0.0163472
0.0164145
0.0164717
0.0165157
0.0165471
0.016568
0.016581
0.0165886
0.0165926
0.0165943
0.0160936
0.016169
0.0162395
0.0163146
0.0163894
0.0164562
0.0165092
0.0165471
0.016572
0.0165869
0.016595
0.0165989
0.0166005
0.016601
0.01612
0.0161923
0.01627
0.0163488
0.0164248
0.0164888
0.0165364
0.016568
0.0165869
0.0165967
0.0166008
0.0166018
0.0166015
0.0166011
0.0161313
0.0162128
0.0162947
0.0163769
0.0164523
0.0165126
0.0165548
0.016581
0.016595
0.0166008
0.0166019
0.0166006
0.0165989
0.0165977
0.0161622
0.0162334
0.0163158
0.0163989
0.0164725
0.016529
0.0165667
0.0165886
0.0165989
0.0166018
0.0166006
0.0165978
0.016595
0.0165934
0.0160949
0.0161713
0.0162452
0.0163296
0.0164133
0.0164854
0.0165391
0.0165737
0.0165926
0.0166005
0.0166015
0.0165989
0.016595
0.0165917
0.0165897
0.0161025
0.0161781
0.016252
0.0163368
0.0164204
0.0164916
0.0165438
0.0165768
0.0165944
0.0166011
0.0166011
0.0165978
0.0165934
0.0165897
0.0165877
0.0157687
0.0157754
0.0157696
0.0157879
0.0157866
0.0158112
0.015819
0.0158246
0.0157772
0.0158274
0.0158202
0.0158395
0.0158569
0.0158746
0.015885
0.015891
0.0157902
0.0158204
0.0158505
0.0158809
0.0159074
0.015929
0.0159478
0.0159606
0.0159672
0.0158032
0.0158353
0.0158763
0.0159132
0.0159478
0.0159792
0.0160057
0.0160269
0.0160412
0.0160485
0.0158032
0.0158414
0.0158892
0.0159347
0.0159779
0.0160182
0.0160534
0.0160821
0.0161037
0.016118
0.0161251
0.0157902
0.0158353
0.0158891
0.0159424
0.0159942
0.016043
0.0160862
0.0161219
0.0161496
0.0161695
0.0161822
0.0161884
0.0157772
0.0158204
0.0158763
0.0159347
0.0159942
0.0160515
0.0161028
0.0161454
0.0161786
0.016203
0.0162199
0.0162304
0.0162354
0.0158274
0.0158505
0.0159132
0.0159779
0.016043
0.0161028
0.016153
0.0161924
0.0162215
0.0162419
0.0162554
0.0162636
0.0162674
0.0157696
0.0158202
0.0158809
0.0159478
0.0160182
0.0160862
0.0161454
0.0161924
0.0162273
0.0162519
0.0162683
0.0162788
0.0162849
0.0162876
0.0157879
0.0158395
0.0159074
0.0159792
0.0160534
0.0161219
0.0161786
0.0162215
0.0162519
0.0162723
0.0162853
0.0162931
0.0162974
0.0162993
0.0157866
0.0158569
0.015929
0.0160057
0.0160821
0.0161496
0.016203
0.0162419
0.0162684
0.0162853
0.0162955
0.0163013
0.0163042
0.0163055
0.0158112
0.0158746
0.0159478
0.0160269
0.0161038
0.0161695
0.0162199
0.0162555
0.0162788
0.0162931
0.0163013
0.0163055
0.0163075
0.0163082
0.0157686
0.015819
0.015885
0.0159606
0.0160413
0.016118
0.0161822
0.0162304
0.0162636
0.0162849
0.0162975
0.0163043
0.0163075
0.0163089
0.0163093
0.0157752
0.0158246
0.015891
0.0159673
0.0160486
0.0161251
0.0161885
0.0162355
0.0162675
0.0162877
0.0162994
0.0163055
0.0163083
0.0163093
0.0163096
0.0154661
0.0154717
0.0154687
0.0154821
0.0154719
0.0154917
0.0154981
0.0155027
0.0154748
0.0155165
0.0155013
0.0155173
0.0155319
0.0155468
0.0155555
0.0155607
0.0154855
0.015502
0.0155275
0.0155533
0.0155759
0.0155944
0.0156107
0.0156218
0.0156277
0.0154869
0.0155147
0.0155496
0.0155815
0.0156117
0.0156395
0.0156632
0.0156826
0.0156959
0.0157028
0.015487
0.0155201
0.0155608
0.0156002
0.0156386
0.0156752
0.0157082
0.0157357
0.0157571
0.0157714
0.0157786
0.0154855
0.0155147
0.0155607
0.015607
0.0156532
0.0156984
0.01574
0.0157758
0.0158044
0.0158257
0.0158396
0.0158465
0.0154748
0.015502
0.0155496
0.0156002
0.0156532
0.0157065
0.0157564
0.0158
0.0158357
0.0158631
0.0158827
0.0158953
0.0159015
0.0155165
0.0155275
0.0155815
0.0156386
0.0156984
0.0157564
0.0158081
0.015851
0.0158845
0.0159094
0.0159268
0.0159377
0.0159429
0.0154687
0.0155013
0.0155533
0.0156117
0.0156752
0.01574
0.0158
0.015851
0.0158915
0.0159221
0.0159441
0.015959
0.0159683
0.0159727
0.0154821
0.0155173
0.0155759
0.0156394
0.0157082
0.0157758
0.0158357
0.0158845
0.0159221
0.0159496
0.0159688
0.0159816
0.0159894
0.015993
0.0154719
0.0155319
0.0155944
0.0156632
0.0157357
0.0158044
0.0158631
0.0159094
0.0159441
0.0159688
0.0159858
0.0159968
0.0160034
0.0160064
0.0154917
0.0155468
0.0156106
0.0156826
0.0157571
0.0158257
0.0158827
0.0159268
0.0159591
0.0159816
0.0159968
0.0160065
0.0160122
0.0160148
0.0154659
0.0154981
0.0155555
0.0156218
0.015696
0.0157714
0.0158396
0.0158953
0.0159377
0.0159683
0.0159894
0.0160034
0.0160122
0.0160173
0.0160196
0.0154715
0.0155027
0.0155607
0.0156277
0.0157028
0.0157787
0.0158465
0.0159015
0.015943
0.0159727
0.0159931
0.0160065
0.0160149
0.0160197
0.0160218
0.0151818
0.0151865
0.0151856
0.0151961
0.0151794
0.0151955
0.0152006
0.0152044
0.0151908
0.0152261
0.0152051
0.0152184
0.0152305
0.0152429
0.01525
0.0152544
0.0152002
0.0152065
0.015228
0.0152497
0.0152686
0.0152841
0.0152977
0.0153071
0.0153122
0.0151937
0.0152175
0.0152471
0.0152741
0.0152998
0.0153236
0.0153442
0.0153612
0.0153731
0.0153792
0.0151937
0.0152223
0.0152568
0.0152904
0.0153235
0.0153556
0.0153851
0.0154102
0.0154301
0.0154436
0.0154505
0.0152002
0.0152175
0.0152568
0.0152963
0.0153364
0.0153766
0.0154147
0.0154483
0.015476
0.0154971
0.0155111
0.0155181
0.0151908
0.0152064
0.0152471
0.0152904
0.0153364
0.0153839
0.0154301
0.015472
0.0155074
0.0155355
0.0155562
0.0155698
0.0155764
0.0152261
0.0152279
0.0152741
0.0153234
0.0153765
0.0154301
0.01548
0.0155231
0.0155583
0.0155853
0.0156047
0.0156172
0.0156233
0.0151855
0.0152051
0.0152496
0.0152998
0.0153555
0.0154146
0.015472
0.0155231
0.0155657
0.0155994
0.0156246
0.0156424
0.0156537
0.0156592
0.0151961
0.0152184
0.0152686
0.0153236
0.015385
0.0154483
0.0155074
0.0155582
0.0155994
0.0156311
0.0156543
0.0156705
0.0156806
0.0156855
0.0151793
0.0152305
0.015284
0.0153442
0.0154102
0.015476
0.0155355
0.0155853
0.0156246
0.0156543
0.0156759
0.0156906
0.0156998
0.0157042
0.0151955
0.0152429
0.0152977
0.0153612
0.01543
0.0154971
0.0155562
0.0156047
0.0156424
0.0156705
0.0156906
0.0157043
0.0157128
0.0157168
0.0151817
0.0152005
0.01525
0.0153071
0.0153731
0.0154436
0.0155111
0.0155698
0.0156172
0.0156537
0.0156807
0.0156998
0.0157128
0.0157207
0.0157245
0.0151864
0.0152044
0.0152544
0.0153122
0.0153792
0.0154505
0.0155182
0.0155765
0.0156234
0.0156592
0.0156856
0.0157042
0.0157168
0.0157245
0.0157281
0.0149118
0.0149159
0.0149165
0.0149256
0.0149038
0.0149171
0.0149209
0.0149242
0.0149214
0.0149517
0.0149266
0.0149376
0.0149475
0.0149576
0.0149632
0.0149669
0.01493
0.0149287
0.0149467
0.0149648
0.0149804
0.014993
0.0150041
0.0150117
0.015016
0.0149182
0.0149387
0.0149635
0.014986
0.0150074
0.0150271
0.0150443
0.0150587
0.0150687
0.015074
0.0149183
0.014943
0.0149721
0.0150001
0.0150278
0.015055
0.0150804
0.0151024
0.01512
0.0151322
0.0151384
0.0149299
0.0149387
0.014972
0.0150052
0.015039
0.0150735
0.015107
0.0151373
0.0151628
0.0151825
0.0151959
0.0152026
0.0149214
0.0149287
0.0149635
0.0150001
0.015039
0.01508
0.015121
0.0151594
0.0151928
0.01522
0.0152405
0.015254
0.0152608
0.0149517
0.0149467
0.014986
0.0150278
0.0150735
0.015121
0.0151669
0.015208
0.0152427
0.0152701
0.0152902
0.0153034
0.0153099
0.0149164
0.0149265
0.0149647
0.0150073
0.0150549
0.0151069
0.0151594
0.015208
0.0152502
0.0152847
0.0153113
0.0153306
0.015343
0.0153491
0.0149255
0.0149376
0.0149803
0.0150271
0.0150803
0.0151372
0.0151928
0.0152427
0.0152847
0.0153183
0.0153437
0.0153619
0.0153736
0.0153792
0.0149037
0.0149474
0.0149929
0.0150443
0.0151023
0.0151628
0.01522
0.0152701
0.0153113
0.0153438
0.0153681
0.0153852
0.0153961
0.0154014
0.014917
0.0149576
0.0150041
0.0150586
0.01512
0.0151825
0.0152405
0.0152902
0.0153306
0.0153619
0.0153852
0.0154016
0.0154119
0.0154169
0.0149117
0.0149208
0.0149631
0.0150117
0.0150687
0.0151322
0.0151959
0.0152541
0.0153034
0.0153431
0.0153736
0.0153962
0.0154119
0.0154219
0.0154267
0.0149158
0.0149242
0.0149669
0.015016
0.0150741
0.0151385
0.0152027
0.0152608
0.0153099
0.0153492
0.0153793
0.0154015
0.015417
0.0154267
0.0154314
0.0146528
0.0146565
0.0146584
0.0146666
0.0146417
0.0146528
0.0146552
0.0146581
0.0146637
0.0146902
0.0146623
0.0146713
0.0146791
0.0146871
0.0146912
0.0146943
0.0146719
0.0146654
0.0146802
0.014695
0.0147074
0.0147172
0.0147258
0.0147316
0.014735
0.0146574
0.0146747
0.0146952
0.0147133
0.0147304
0.0147461
0.0147598
0.0147713
0.0147795
0.0147838
0.0146574
0.0146787
0.0147029
0.0147256
0.0147478
0.0147699
0.0147907
0.0148092
0.0148241
0.0148346
0.01484
0.0146718
0.0146747
0.0147029
0.01473
0.0147574
0.0147858
0.014814
0.0148401
0.0148626
0.0148803
0.0148925
0.0148987
0.0146636
0.0146654
0.0146952
0.0147255
0.0147574
0.0147914
0.0148264
0.0148601
0.0148903
0.0149154
0.0149348
0.0149478
0.0149543
0.0146901
0.0146801
0.0147133
0.0147477
0.0147857
0.0148264
0.0148669
0.0149045
0.0149371
0.0149636
0.0149834
0.0149966
0.0150031
0.0146583
0.0146622
0.0146948
0.0147303
0.0147698
0.0148139
0.01486
0.0149045
0.0149444
0.0149781
0.0150047
0.0150244
0.0150373
0.0150437
0.0146665
0.0146712
0.0147073
0.014746
0.0147907
0.01484
0.0148902
0.0149371
0.0149781
0.0150118
0.0150381
0.0150572
0.0150697
0.0150758
0.0146416
0.014679
0.0147171
0.0147597
0.0148091
0.0148626
0.0149154
0.0149636
0.0150047
0.0150381
0.0150638
0.0150823
0.0150943
0.0151001
0.0146527
0.0146871
0.0147257
0.0147713
0.0148241
0.0148803
0.0149347
0.0149834
0.0150244
0.0150572
0.0150823
0.0151003
0.0151118
0.0151175
0.0146527
0.0146551
0.0146912
0.0147315
0.0147794
0.0148346
0.0148925
0.0149477
0.0149966
0.0150373
0.0150697
0.0150943
0.0151119
0.0151231
0.0151286
0.0146565
0.0146581
0.0146943
0.014735
0.0147838
0.0148401
0.0148987
0.0149543
0.0150032
0.0150437
0.0150758
0.0151002
0.0151175
0.0151287
0.0151341
0.0144022
0.014406
0.0144093
0.0144169
0.0143911
0.0144
0.0144008
0.0144037
0.014415
0.0144391
0.0144098
0.0144168
0.0144225
0.0144284
0.014431
0.0144336
0.0144236
0.0144141
0.0144258
0.0144373
0.0144466
0.0144534
0.0144594
0.0144634
0.014466
0.0144096
0.0144233
0.0144394
0.0144531
0.0144657
0.0144773
0.0144873
0.0144958
0.014502
0.0145054
0.0144096
0.014427
0.0144464
0.0144636
0.0144801
0.0144968
0.014513
0.0145275
0.0145396
0.0145481
0.0145527
0.0144235
0.0144232
0.0144464
0.0144673
0.0144881
0.0145101
0.0145326
0.0145541
0.0145731
0.0145884
0.0145991
0.0146046
0.0144149
0.014414
0.0144394
0.0144635
0.0144881
0.0145148
0.0145432
0.0145716
0.0145978
0.0146203
0.0146379
0.0146499
0.014656
0.014439
0.0144257
0.014453
0.01448
0.01451
0.0145432
0.0145776
0.0146108
0.0146405
0.0146651
0.014684
0.0146966
0.014703
0.0144091
0.0144096
0.0144371
0.0144655
0.0144967
0.0145325
0.0145715
0.0146108
0.0146473
0.014679
0.0147047
0.0147241
0.0147369
0.0147433
0.0144167
0.0144166
0.0144464
0.0144771
0.0145128
0.014554
0.0145978
0.0146404
0.014679
0.0147117
0.0147378
0.0147571
0.0147698
0.0147761
0.0143909
0.0144223
0.0144533
0.0144872
0.0145274
0.014573
0.0146203
0.0146651
0.0147047
0.0147378
0.0147638
0.0147829
0.0147954
0.0148016
0.0143998
0.0144282
0.0144593
0.0144957
0.0145395
0.0145883
0.0146379
0.0146839
0.0147241
0.0147571
0.0147829
0.0148017
0.014814
0.01482
0.0144021
0.0144007
0.0144309
0.0144633
0.0145019
0.0145481
0.014599
0.0146499
0.0146966
0.0147369
0.0147699
0.0147954
0.014814
0.0148261
0.014832
0.0144059
0.0144037
0.0144336
0.014466
0.0145054
0.0145527
0.0146046
0.014656
0.014703
0.0147433
0.0147762
0.0148016
0.01482
0.014832
0.0148379
0.0141576
0.0141617
0.0141671
0.0141749
0.0141509
0.0141569
0.0141559
0.0141592
0.0141736
0.0141965
0.0141676
0.0141723
0.0141754
0.0141786
0.0141798
0.0141822
0.0141831
0.0141733
0.0141816
0.0141895
0.0141953
0.0141988
0.0142018
0.0142039
0.0142058
0.0141755
0.0141825
0.0141939
0.0142025
0.0142102
0.0142173
0.0142234
0.0142288
0.0142329
0.0142354
0.0141755
0.0141861
0.0142
0.0142111
0.0142215
0.0142325
0.0142437
0.0142542
0.0142633
0.0142699
0.0142735
0.0141831
0.0141825
0.0142
0.0142142
0.0142279
0.014243
0.0142596
0.0142763
0.0142916
0.0143044
0.0143134
0.0143181
0.0141735
0.0141732
0.0141938
0.014211
0.0142278
0.0142468
0.0142684
0.0142912
0.0143132
0.0143327
0.0143483
0.0143591
0.0143647
0.0141963
0.0141814
0.0142023
0.0142214
0.0142429
0.0142683
0.0142964
0.0143247
0.014351
0.0143735
0.014391
0.0144029
0.014409
0.0141669
0.0141673
0.0141893
0.01421
0.0142323
0.0142595
0.0142911
0.0143247
0.0143573
0.0143865
0.0144108
0.0144294
0.0144419
0.0144481
0.0141746
0.014172
0.014195
0.014217
0.0142435
0.0142762
0.0143131
0.014351
0.0143865
0.0144175
0.0144428
0.0144618
0.0144745
0.0144808
0.0141506
0.0141751
0.0141985
0.0142232
0.014254
0.0142915
0.0143326
0.0143734
0.0144108
0.0144428
0.0144685
0.0144876
0.0145003
0.0145066
0.0141567
0.0141784
0.0142016
0.0142287
0.0142631
0.0143042
0.0143482
0.014391
0.0144294
0.0144618
0.0144876
0.0145068
0.0145193
0.0145256
0.0141574
0.0141558
0.0141796
0.0142038
0.0142328
0.0142698
0.0143133
0.0143591
0.0144029
0.0144419
0.0144745
0.0145003
0.0145194
0.0145319
0.014538
0.0141616
0.0141592
0.0141822
0.0142058
0.0142354
0.0142735
0.0143181
0.0143647
0.014409
0.0144481
0.0144808
0.0145066
0.0145256
0.0145381
0.0145442
0.0139151
0.0139203
0.0139292
0.0139386
0.0139219
0.0139224
0.0139191
0.0139236
0.0139367
0.013961
0.0139351
0.0139363
0.0139357
0.0139353
0.0139348
0.0139374
0.0139487
0.0139422
0.013946
0.0139491
0.0139503
0.0139498
0.0139493
0.0139494
0.0139507
0.013966
0.0139505
0.0139559
0.0139583
0.0139602
0.0139622
0.0139642
0.0139664
0.0139684
0.0139701
0.013966
0.0139536
0.0139601
0.0139643
0.0139678
0.0139728
0.013979
0.0139855
0.0139917
0.0139966
0.0139994
0.0139488
0.0139505
0.0139601
0.0139665
0.0139723
0.0139804
0.0139912
0.0140033
0.0140152
0.0140255
0.0140331
0.0140371
0.0139366
0.0139421
0.0139558
0.0139642
0.0139722
0.0139832
0.0139982
0.0140157
0.0140338
0.0140504
0.0140641
0.0140738
0.0140789
0.0139608
0.0139457
0.013958
0.0139676
0.0139803
0.0139981
0.0140201
0.0140439
0.0140669
0.0140872
0.0141034
0.0141145
0.0141202
0.0139287
0.0139346
0.0139487
0.0139598
0.0139725
0.013991
0.0140156
0.0140438
0.0140726
0.0140993
0.0141221
0.0141398
0.0141518
0.0141579
0.0139382
0.0139358
0.0139499
0.0139619
0.0139787
0.0140031
0.0140336
0.0140669
0.0140993
0.0141285
0.0141527
0.0141713
0.0141837
0.01419
0.0139215
0.0139353
0.0139494
0.0139639
0.0139853
0.014015
0.0140503
0.0140871
0.0141221
0.0141527
0.0141778
0.0141968
0.0142094
0.0142157
0.0139221
0.013935
0.013949
0.0139661
0.0139915
0.0140253
0.014064
0.0141033
0.0141398
0.0141713
0.0141968
0.0142159
0.0142286
0.0142349
0.0139149
0.0139189
0.0139346
0.0139492
0.0139683
0.0139964
0.014033
0.0140738
0.0141145
0.0141518
0.0141837
0.0142094
0.0142286
0.0142413
0.0142476
0.0139203
0.0139235
0.0139373
0.0139506
0.0139701
0.0139993
0.0140371
0.0140789
0.0141202
0.0141579
0.01419
0.0142158
0.0142349
0.0142476
0.0142539
0.0136691
0.0136769
0.0136889
0.0137056
0.0137107
0.0136947
0.0136879
0.0136957
0.0136985
0.0137324
0.0137128
0.0137071
0.0137011
0.0136945
0.0136918
0.0136951
0.0137185
0.0137203
0.0137165
0.0137121
0.0137066
0.0137009
0.0136966
0.0136946
0.0136956
0.013808
0.01373
0.0137204
0.0137149
0.0137102
0.0137065
0.0137043
0.0137036
0.013704
0.013705
0.0138077
0.0137363
0.0137231
0.0137172
0.0137134
0.0137125
0.0137141
0.0137172
0.0137211
0.0137246
0.0137268
0.0137192
0.0137303
0.0137231
0.0137184
0.0137157
0.0137173
0.0137231
0.0137315
0.0137406
0.0137491
0.0137555