/*--------------------------------*- C++ -*----------------------------------*\
| =========                 |                                                 |
| \\      /  F ield         | OpenFOAM: The Open Source CFD Toolbox           |
|  \\    /   O peration     | Version:  2.1.1                                 |
|   \\  /    A nd           | Web:      www.OpenFOAM.org                      |
|    \\/     M anipulation  |                                                 |
\*---------------------------------------------------------------------------*/
FoamFile
{
    version     2.0;
    format      ascii;
    class       volScalarField;
    location    "0.03";
    object      p;
}
// * * * * * * * * * * * * * * * * * * * * * * * * * * * * * * * * * * * * * //

dimensions      [0 2 -2 0 0 0 0];

internalField   nonuniform List<scalar> 
163952
(
0.0418284
0.0412521
0.0365159
0.0313212
0.0301245
0.0275131
0.0269231
0.0265994
0.036836
0.0324939
0.0274524
0.0249628
0.0237192
0.0229403
0.0226261
0.0224849
0.0338671
0.0281303
0.0246266
0.022987
0.0220746
0.0215368
0.0211982
0.021018
0.0209325
0.0337369
0.0262381
0.0234038
0.0220573
0.0213021
0.0208235
0.020504
0.0202924
0.0201663
0.0201029
0.0337381
0.0256961
0.0228796
0.0216015
0.0208867
0.0204231
0.0200992
0.0198685
0.0197091
0.0196087
0.0195563
0.0338673
0.0262381
0.0228795
0.0214579
0.0206955
0.0202069
0.0198616
0.0196078
0.0194213
0.0192894
0.0192039
0.0191585
0.0368357
0.0281302
0.0234038
0.0216014
0.0206955
0.0201373
0.0197492
0.0194627
0.0192472
0.0190867
0.0189719
0.0188965
0.0188561
0.032494
0.0246266
0.0220573
0.0208867
0.0202069
0.0197492
0.0194158
0.0191642
0.0189731
0.01883
0.0187269
0.0186588
0.0186221
0.036516
0.0274525
0.0229871
0.0213021
0.0204231
0.0198616
0.0194627
0.0191642
0.0189364
0.0187622
0.0186313
0.0185368
0.018474
0.01844
0.0313213
0.0249628
0.0220746
0.0208235
0.0200992
0.0196078
0.0192472
0.0189731
0.0187622
0.0186004
0.0184784
0.0183899
0.018331
0.0182991
0.0301245
0.0237193
0.0215368
0.020504
0.0198685
0.0194213
0.0190867
0.01883
0.0186313
0.0184784
0.0183627
0.0182786
0.0182226
0.0181922
0.0275131
0.0229403
0.0211982
0.0202924
0.0197091
0.0192894
0.0189719
0.0187269
0.0185368
0.0183899
0.0182786
0.0181977
0.0181436
0.0181142
0.0418284
0.0269231
0.0226261
0.021018
0.0201663
0.0196087
0.0192039
0.0188965
0.0186588
0.018474
0.018331
0.0182226
0.0181436
0.0180908
0.0180621
0.0412521
0.0265994
0.0224849
0.0209325
0.0201029
0.0195563
0.0191585
0.0188561
0.0186221
0.01844
0.0182991
0.0181922
0.0181142
0.0180621
0.0180338
0.0236544
0.0237112
0.022649
0.0238583
0.0225893
0.0222753
0.0222305
0.0222097
0.0227537
0.0245676
0.0222549
0.0219427
0.0216822
0.0214915
0.0214168
0.0213651
0.0235319
0.0223067
0.0218889
0.0214771
0.0211364
0.0208578
0.0206732
0.0205771
0.0205277
0.0222762
0.021986
0.0215489
0.0211077
0.0207151
0.020404
0.0201679
0.0200083
0.0199162
0.0198719
0.0222769
0.0218568
0.0213648
0.020861
0.0204342
0.0200918
0.0198324
0.0196413
0.0195096
0.0194294
0.0193909
0.023532
0.0219862
0.0213648
0.020781
0.0202923
0.0199145
0.0196254
0.0194077
0.019247
0.0191348
0.0190646
0.0190306
0.0227538
0.0223067
0.0215489
0.020861
0.0202923
0.0198559
0.0195266
0.0192764
0.0190872
0.018947
0.0188481
0.0187853
0.0187548
0.0245676
0.0218889
0.0211077
0.0204342
0.0199145
0.0195266
0.019234
0.0190109
0.0188415
0.0187154
0.0186259
0.0185686
0.0185407
0.022649
0.0222549
0.0214771
0.0207151
0.0200918
0.0196254
0.0192764
0.0190109
0.0188074
0.0186521
0.0185359
0.0184531
0.0183999
0.0183739
0.0238583
0.0219428
0.0211364
0.020404
0.0198324
0.0194077
0.0190872
0.0188416
0.0186521
0.0185068
0.0183978
0.0183198
0.0182696
0.018245
0.0225893
0.0216823
0.0208579
0.0201679
0.0196413
0.0192471
0.018947
0.0187154
0.0185359
0.0183978
0.0182938
0.0182194
0.0181713
0.0181477
0.0222753
0.0214915
0.0206732
0.0200083
0.0195096
0.0191348
0.0188481
0.0186259
0.0184532
0.0183198
0.0182194
0.0181473
0.0181007
0.0180778
0.0236544
0.0222305
0.0214169
0.0205772
0.0199162
0.0194294
0.0190646
0.0187853
0.0185686
0.0183999
0.0182696
0.0181713
0.0181007
0.0180551
0.0180327
0.0237112
0.0222097
0.0213651
0.0205277
0.019872
0.0193909
0.0190306
0.0187548
0.0185407
0.0183739
0.018245
0.0181477
0.0180778
0.0180327
0.0180105
0.0200107
0.020025
0.0200897
0.0204716
0.0206951
0.0205795
0.020472
0.0204315
0.0200965
0.0209404
0.0204902
0.0204122
0.0203175
0.0202788
0.0202495
0.0202241
0.0203068
0.0205039
0.0204037
0.0202832
0.0201467
0.0200023
0.019911
0.0198561
0.0198257
0.0206539
0.020437
0.020312
0.0201323
0.0199405
0.0197748
0.0196351
0.0195351
0.0194729
0.0194417
0.0206546
0.0203918
0.020239
0.0200176
0.0197928
0.0195904
0.0194244
0.0192933
0.0191987
0.0191388
0.0191093
0.0203069
0.0204372
0.020239
0.0199797
0.019714
0.0194807
0.0192844
0.0191263
0.0190038
0.0189154
0.0188589
0.0188311
0.0200965
0.020504
0.0203121
0.0200176
0.0197141
0.0194432
0.0192151
0.019028
0.0188792
0.0187649
0.0186825
0.0186294
0.0186033
0.0209404
0.0204037
0.0201323
0.0197929
0.0194807
0.0192151
0.0189957
0.0188181
0.0186779
0.0185708
0.0184935
0.0184435
0.018419
0.0200897
0.0204902
0.0202832
0.0199405
0.0195904
0.0192844
0.019028
0.0188181
0.0186494
0.0185167
0.0184154
0.0183422
0.0182948
0.0182715
0.0204716
0.0204122
0.0201467
0.0197748
0.0194244
0.0191263
0.0188792
0.0186779
0.0185167
0.0183898
0.0182931
0.0182231
0.0181777
0.0181554
0.0206951
0.0203175
0.0200023
0.0196351
0.0192933
0.0190038
0.0187649
0.0185708
0.0184154
0.0182931
0.0181997
0.0181322
0.0180884
0.0180668
0.0205795
0.0202788
0.0199111
0.0195351
0.0191988
0.0189154
0.0186825
0.0184935
0.0183422
0.0182231
0.0181322
0.0180664
0.0180237
0.0180026
0.0200107
0.020472
0.0202495
0.0198561
0.0194729
0.0191389
0.0188589
0.0186294
0.0184435
0.0182948
0.0181777
0.0180884
0.0180237
0.0179816
0.0179609
0.020025
0.0204315
0.0202241
0.0198257
0.0194417
0.0191093
0.0188311
0.0186033
0.018419
0.0182715
0.0181554
0.0180668
0.0180026
0.0179609
0.0179404
0.0186634
0.0186737
0.0187805
0.0190075
0.0193383
0.019338
0.0192856
0.0192636
0.0187953
0.0192212
0.0192612
0.0192488
0.0192196
0.0192211
0.0192199
0.0192164
0.0189362
0.019265
0.0192526
0.0192457
0.0192171
0.0191655
0.0191298
0.0191046
0.0190903
0.0193684
0.0192684
0.0192625
0.0192124
0.0191464
0.0190823
0.0190197
0.01897
0.0189354
0.0189172
0.019369
0.0192488
0.0192439
0.019181
0.0190918
0.0189986
0.018913
0.0188387
0.0187817
0.0187436
0.0187243
0.0189362
0.0192685
0.0192438
0.0191697
0.0190612
0.0189453
0.0188353
0.0187384
0.0186582
0.0185979
0.018558
0.018538
0.0187954
0.0192651
0.0192625
0.019181
0.0190612
0.0189267
0.018795
0.0186757
0.0185741
0.0184923
0.0184313
0.0183911
0.0183711
0.0192212
0.0192526
0.0192124
0.0190918
0.0189454
0.018795
0.0186546
0.0185315
0.0184288
0.0183473
0.018287
0.0182473
0.0182276
0.0187805
0.0192612
0.0192457
0.0191464
0.0189986
0.0188353
0.0186757
0.0185315
0.0184076
0.0183056
0.0182253
0.0181661
0.0181271
0.0181079
0.0190075
0.0192488
0.0192171
0.0190823
0.018913
0.0187384
0.0185741
0.0184288
0.0183056
0.0182049
0.018126
0.018068
0.0180298
0.0180109
0.0193383
0.0192196
0.0191655
0.0190197
0.0188387
0.0186582
0.0184923
0.0183473
0.0182253
0.018126
0.0180484
0.0179914
0.017954
0.0179355
0.019338
0.0192211
0.0191298
0.01897
0.0187817
0.0185979
0.0184313
0.018287
0.0181661
0.018068
0.0179914
0.0179352
0.0178983
0.0178801
0.0186634
0.0192856
0.0192199
0.0191046
0.0189354
0.0187436
0.018558
0.0183911
0.0182473
0.0181272
0.0180298
0.017954
0.0178983
0.0178618
0.0178438
0.0186737
0.0192636
0.0192164
0.0190903
0.0189172
0.0187243
0.018538
0.0183711
0.0182276
0.0181079
0.018011
0.0179355
0.0178801
0.0178438
0.0178258
0.0179453
0.0179535
0.0180062
0.0181548
0.0183711
0.0184147
0.0184051
0.0184035
0.0180311
0.0182635
0.0183713
0.0183904
0.0183959
0.0184084
0.0184167
0.0184213
0.018121
0.0183726
0.018399
0.0184322
0.0184507
0.0184503
0.0184474
0.0184415
0.0184372
0.0184052
0.0183947
0.0184387
0.0184522
0.0184526
0.0184452
0.01843
0.0184141
0.0184005
0.0183926
0.0184055
0.0183894
0.0184456
0.0184612
0.018449
0.0184241
0.0183929
0.0183602
0.0183326
0.0183127
0.0183022
0.018121
0.0183948
0.0184455
0.0184639
0.0184462
0.0184074
0.0183599
0.0183114
0.018267
0.0182315
0.018207
0.0181944
0.0180312
0.0183727
0.0184387
0.0184613
0.0184462
0.0184013
0.0183414
0.0182778
0.0182181
0.0181666
0.0181265
0.0180993
0.0180855
0.0182635
0.018399
0.0184522
0.018449
0.0184074
0.0183414
0.0182661
0.018192
0.0181255
0.0180699
0.0180273
0.0179986
0.0179842
0.0180062
0.0183713
0.0184322
0.0184526
0.0184241
0.0183599
0.0182778
0.018192
0.0181114
0.0180409
0.017983
0.0179391
0.0179097
0.017895
0.0181548
0.0183904
0.0184507
0.0184452
0.0183929
0.0183114
0.0182181
0.0181255
0.0180409
0.0179681
0.0179091
0.0178645
0.0178348
0.01782
0.0183711
0.018396
0.0184503
0.0184301
0.0183602
0.018267
0.0181666
0.0180699
0.017983
0.0179091
0.0178494
0.0178047
0.0177749
0.01776
0.0184147
0.0184084
0.0184474
0.0184142
0.0183326
0.0182315
0.0181265
0.0180273
0.0179391
0.0178645
0.0178047
0.0177599
0.0177301
0.0177152
0.0179453
0.0184051
0.0184167
0.0184415
0.0184005
0.0183127
0.018207
0.0180993
0.0179986
0.0179097
0.0178348
0.0177749
0.0177301
0.0177003
0.0176855
0.0179535
0.0184035
0.0184213
0.0184373
0.0183926
0.0183022
0.0181945
0.0180855
0.0179842
0.017895
0.01782
0.01776
0.0177152
0.0176855
0.0176707
0.017435
0.0174417
0.0174541
0.017547
0.017672
0.0177224
0.0177275
0.0177336
0.0174762
0.0176201
0.017702
0.017733
0.0177544
0.0177739
0.0177845
0.0177906
0.0175311
0.0177024
0.0177439
0.0177881
0.0178222
0.017843
0.017857
0.0178628
0.0178648
0.017703
0.0177297
0.017788
0.0178267
0.0178561
0.0178761
0.0178865
0.017891
0.0178914
0.0178907
0.0177032
0.017734
0.0178048
0.017851
0.0178768
0.0178899
0.0178925
0.0178881
0.0178816
0.0178754
0.0178718
0.0175311
0.0177298
0.0178047
0.0178595
0.0178875
0.0178951
0.0178896
0.0178762
0.0178595
0.0178441
0.0178324
0.0178262
0.0174763
0.0177024
0.017788
0.017851
0.0178875
0.0178966
0.0178863
0.0178647
0.0178385
0.0178127
0.0177908
0.0177752
0.0177671
0.0176201
0.0177439
0.0178267
0.0178768
0.0178951
0.0178863
0.0178603
0.0178262
0.0177907
0.0177583
0.0177321
0.0177138
0.0177045
0.0174542
0.017702
0.0177881
0.0178561
0.0178899
0.0178896
0.0178647
0.0178262
0.0177829
0.0177408
0.017704
0.0176749
0.0176549
0.0176447
0.017547
0.017733
0.0178222
0.0178761
0.0178925
0.0178762
0.0178385
0.0177907
0.0177408
0.0176944
0.0176546
0.0176236
0.0176025
0.0175918
0.017672
0.0177544
0.017843
0.0178865
0.0178882
0.0178595
0.0178127
0.0177583
0.017704
0.0176546
0.017613
0.0175808
0.0175589
0.0175479
0.0177224
0.0177739
0.017857
0.017891
0.0178816
0.0178441
0.0177908
0.0177321
0.0176749
0.0176236
0.0175808
0.0175478
0.0175255
0.0175143
0.017435
0.0177276
0.0177846
0.0178629
0.0178914
0.0178754
0.0178324
0.0177752
0.0177138
0.0176549
0.0176025
0.0175589
0.0175255
0.017503
0.0174916
0.0174417
0.0177336
0.0177906
0.0178648
0.0178907
0.0178718
0.0178262
0.0177671
0.0177045
0.0176447
0.0175918
0.0175479
0.0175143
0.0174916
0.0174802
0.0170014
0.017009
0.0170016
0.0170613
0.017128
0.0171741
0.0171833
0.0171911
0.0170195
0.0171206
0.0171677
0.0171991
0.0172243
0.0172473
0.0172595
0.0172663
0.0170539
0.0171677
0.0172113
0.0172555
0.0172921
0.0173191
0.01734
0.0173518
0.0173572
0.0171549
0.0171934
0.017252
0.0172979
0.0173374
0.0173691
0.0173918
0.0174074
0.0174161
0.0174199
0.017155
0.017201
0.0172705
0.0173259
0.0173682
0.0174007
0.0174227
0.017436
0.0174435
0.0174469
0.0174482
0.0170539
0.0171934
0.0172705
0.0173359
0.0173847
0.0174181
0.0174387
0.017449
0.0174522
0.0174517
0.0174501
0.0174488
0.0170196
0.0171677
0.017252
0.0173259
0.0173847
0.0174239
0.0174453
0.0174532
0.0174522
0.0174464
0.0174393
0.0174334
0.0174301
0.0171206
0.0172113
0.017298
0.0173682
0.0174181
0.0174453
0.0174541
0.0174504
0.0174398
0.0174268
0.0174147
0.0174056
0.0174007
0.0170016
0.0171677
0.0172555
0.0173374
0.0174007
0.0174387
0.0174532
0.0174504
0.0174371
0.0174192
0.0174007
0.0173849
0.0173734
0.0173674
0.0170613
0.0171991
0.0172921
0.0173691
0.0174227
0.017449
0.0174522
0.0174398
0.0174192
0.0173957
0.0173734
0.0173548
0.0173417
0.0173349
0.017128
0.0172243
0.0173191
0.0173918
0.017436
0.0174522
0.0174464
0.0174268
0.0174007
0.0173734
0.0173483
0.0173279
0.0173137
0.0173063
0.0171741
0.0172473
0.01734
0.0174074
0.0174435
0.0174518
0.0174393
0.0174147
0.0173849
0.0173548
0.0173279
0.0173063
0.0172913
0.0172836
0.0170014
0.0171833
0.0172595
0.0173518
0.0174161
0.0174469
0.0174501
0.0174334
0.0174056
0.0173734
0.0173417
0.0173137
0.0172913
0.0172758
0.0172679
0.017009
0.0171911
0.0172663
0.0173572
0.0174199
0.0174482
0.0174488
0.0174301
0.0174007
0.0173674
0.0173349
0.0173063
0.0172836
0.0172679
0.0172599
0.0166111
0.0166192
0.0166079
0.0166471
0.0166789
0.0167173
0.0167271
0.0167348
0.0166213
0.0166984
0.0167195
0.0167471
0.0167707
0.0167935
0.0168062
0.0168133
0.0166442
0.0167195
0.0167596
0.0167999
0.0168343
0.0168612
0.0168835
0.0168975
0.0169044
0.0167015
0.0167411
0.016795
0.0168405
0.0168815
0.0169165
0.0169441
0.0169647
0.0169776
0.0169838
0.0167016
0.0167489
0.0168121
0.0168675
0.0169151
0.0169557
0.0169876
0.0170107
0.0170266
0.0170362
0.0170406
0.0166442
0.0167411
0.016812
0.0168772
0.0169332
0.016979
0.0170142
0.0170391
0.0170553
0.0170653
0.0170708
0.0170732
0.0166213
0.0167195
0.016795
0.0168675
0.0169332
0.0169869
0.0170267
0.0170536
0.01707
0.0170788
0.017083
0.0170846
0.017085
0.0166984
0.0167596
0.0168405
0.0169151
0.016979
0.0170267
0.017058
0.0170758
0.0170839
0.0170861
0.0170853
0.0170836
0.0170825
0.0166079
0.0167195
0.0167999
0.0168815
0.0169557
0.0170142
0.0170536
0.0170758
0.0170852
0.0170862
0.0170829
0.0170781
0.0170739
0.0170716
0.0166471
0.0167471
0.0168343
0.0169165
0.0169876
0.0170391
0.01707
0.0170839
0.0170862
0.0170817
0.0170741
0.0170664
0.0170603
0.017057
0.0166789
0.0167708
0.0168612
0.0169441
0.0170107
0.0170554
0.0170788
0.0170861
0.0170829
0.0170741
0.0170635
0.0170536
0.0170461
0.0170422
0.0167173
0.0167936
0.0168835
0.0169647
0.0170267
0.0170653
0.017083
0.0170853
0.0170781
0.0170664
0.0170536
0.0170422
0.0170338
0.0170294
0.0166111
0.0167271
0.0168062
0.0168975
0.0169776
0.0170362
0.0170708
0.0170846
0.0170836
0.017074
0.0170603
0.0170461
0.0170338
0.0170248
0.0170201
0.0166191
0.0167348
0.0168133
0.0169044
0.0169838
0.0170406
0.0170732
0.017085
0.0170825
0.0170716
0.017057
0.0170422
0.0170294
0.0170201
0.0170153
0.0162555
0.0162631
0.0162543
0.0162806
0.0162917
0.0163225
0.0163316
0.0163383
0.0162642
0.0163255
0.0163295
0.0163527
0.0163732
0.0163938
0.0164056
0.0164123
0.0162808
0.0163296
0.0163647
0.0164
0.0164306
0.0164553
0.0164764
0.0164903
0.0164974
0.016311
0.0163475
0.016395
0.0164368
0.0164754
0.0165097
0.0165379
0.0165599
0.0165744
0.0165816
0.0163111
0.0163545
0.01641
0.0164613
0.0165082
0.0165505
0.0165861
0.0166138
0.0166341
0.016647
0.0166533
0.0162808
0.0163475
0.0164099
0.0164701
0.0165259
0.0165758
0.0166178
0.0166505
0.0166745
0.0166911
0.0167012
0.016706
0.0162642
0.0163296
0.016395
0.0164613
0.0165259
0.0165845
0.0166333
0.0166712
0.0166985
0.0167172
0.0167292
0.0167362
0.0167395
0.0163255
0.0163647
0.0164368
0.0165082
0.0165758
0.0166333
0.0166778
0.0167095
0.0167306
0.0167438
0.0167515
0.0167556
0.0167574
0.0162543
0.0163295
0.0164
0.0164754
0.0165505
0.0166178
0.0166712
0.0167095
0.0167346
0.0167498
0.0167581
0.0167622
0.0167639
0.0167644
0.0162806
0.0163527
0.0164306
0.0165097
0.0165861
0.0166505
0.0166986
0.0167306
0.0167498
0.0167599
0.0167642
0.0167653
0.0167651
0.0167647
0.0162917
0.0163732
0.0164553
0.0165379
0.0166138
0.0166745
0.0167172
0.0167438
0.0167581
0.0167642
0.0167654
0.0167643
0.0167627
0.0167616
0.0163225
0.0163938
0.0164764
0.0165599
0.0166341
0.0166911
0.0167292
0.0167515
0.0167622
0.0167653
0.0167643
0.0167616
0.016759
0.0167574
0.0162554
0.0163316
0.0164056
0.0164903
0.0165744
0.016647
0.0167012
0.0167362
0.0167556
0.0167639
0.0167651
0.0167627
0.016759
0.0167557
0.0167538
0.016263
0.0163383
0.0164124
0.0164974
0.0165816
0.0166533
0.016706
0.0167395
0.0167574
0.0167644
0.0167647
0.0167616
0.0167574
0.0167538
0.0167518
0.0159291
0.0159357
0.0159303
0.0159483
0.0159468
0.0159713
0.0159791
0.0159846
0.0159379
0.015988
0.0159805
0.0159997
0.016017
0.0160348
0.0160451
0.0160511
0.0159509
0.0159809
0.0160109
0.0160413
0.0160678
0.0160894
0.0161083
0.0161211
0.0161278
0.0159639
0.0159959
0.0160368
0.0160738
0.0161085
0.01614
0.0161666
0.0161879
0.0162024
0.0162097
0.0159639
0.0160021
0.0160498
0.0160954
0.0161388
0.0161793
0.0162148
0.0162436
0.0162654
0.0162798
0.0162869
0.0159509
0.0159959
0.0160498
0.0161033
0.0161553
0.0162043
0.0162479
0.0162839
0.0163117
0.0163318
0.0163447
0.0163509
0.015938
0.0159809
0.0160368
0.0160954
0.0161553
0.016213
0.0162646
0.0163075
0.016341
0.0163657
0.0163828
0.0163934
0.0163985
0.015988
0.0160109
0.0160738
0.0161388
0.0162043
0.0162646
0.0163153
0.016355
0.0163844
0.0164051
0.0164188
0.0164271
0.016431
0.0159303
0.0159805
0.0160413
0.0161085
0.0161793
0.0162479
0.0163075
0.016355
0.0163904
0.0164153
0.016432
0.0164426
0.0164488
0.0164516
0.0159483
0.0159997
0.0160678
0.01614
0.0162148
0.0162839
0.0163411
0.0163844
0.0164153
0.016436
0.0164493
0.0164573
0.0164617
0.0164637
0.0159468
0.016017
0.0160894
0.0161666
0.0162436
0.0163117
0.0163657
0.0164051
0.016432
0.0164493
0.0164597
0.0164657
0.0164688
0.01647
0.0159713
0.0160348
0.0161083
0.0161879
0.0162654
0.0163318
0.0163828
0.0164188
0.0164426
0.0164573
0.0164657
0.0164701
0.0164722
0.016473
0.015929
0.0159791
0.0160451
0.0161211
0.0162024
0.0162798
0.0163447
0.0163934
0.0164271
0.0164488
0.0164617
0.0164688
0.0164722
0.0164736
0.0164741
0.0159356
0.0159846
0.0160511
0.0161278
0.0162097
0.0162869
0.0163509
0.0163985
0.016431
0.0164516
0.0164637
0.01647
0.016473
0.0164741
0.0164745
0.0156263
0.0156318
0.0156293
0.0156423
0.0156318
0.0156515
0.0156578
0.0156623
0.0156354
0.015677
0.0156614
0.0156773
0.0156918
0.0157067
0.0157154
0.0157205
0.0156462
0.0156623
0.0156877
0.0157135
0.0157361
0.0157546
0.0157709
0.0157821
0.0157881
0.0156476
0.0156751
0.01571
0.015742
0.0157723
0.0158001
0.015824
0.0158436
0.015857
0.0158639
0.0156476
0.0156806
0.0157213
0.0157609
0.0157995
0.0158364
0.0158696
0.0158974
0.0159189
0.0159334
0.0159407
0.0156462
0.0156752
0.0157213
0.0157678
0.0158143
0.0158599
0.0159019
0.0159379
0.0159668
0.0159883
0.0160024
0.0160094
0.0156355
0.0156623
0.01571
0.0157609
0.0158143
0.0158681
0.0159185
0.0159625
0.0159985
0.0160262
0.0160462
0.0160589
0.0160651
0.015677
0.0156877
0.015742
0.0157995
0.0158599
0.0159185
0.0159707
0.0160141
0.016048
0.0160733
0.0160909
0.0161019
0.0161072
0.0156293
0.0156614
0.0157135
0.0157723
0.0158364
0.0159019
0.0159625
0.0160141
0.0160551
0.0160861
0.0161084
0.0161236
0.016133
0.0161374
0.0156423
0.0156773
0.0157361
0.0158001
0.0158696
0.0159379
0.0159985
0.0160481
0.0160861
0.016114
0.0161336
0.0161466
0.0161545
0.0161582
0.0156318
0.0156918
0.0157546
0.015824
0.0158974
0.0159669
0.0160263
0.0160733
0.0161084
0.0161336
0.0161508
0.0161621
0.0161688
0.0161719
0.0156515
0.0157067
0.0157709
0.0158436
0.0159189
0.0159883
0.0160462
0.0160909
0.0161236
0.0161466
0.0161621
0.016172
0.0161778
0.0161805
0.0156261
0.0156579
0.0157154
0.0157821
0.015857
0.0159334
0.0160024
0.0160589
0.0161019
0.016133
0.0161545
0.0161688
0.0161778
0.016183
0.0161854
0.0156317
0.0156623
0.0157206
0.0157881
0.015864
0.0159407
0.0160094
0.0160651
0.0161072
0.0161374
0.0161582
0.0161719
0.0161805
0.0161854
0.0161877
0.0153419
0.0153465
0.0153461
0.0153563
0.015339
0.0153549
0.0153599
0.0153636
0.0153514
0.0153864
0.0153649
0.0153781
0.0153901
0.0154024
0.0154095
0.0154138
0.0153607
0.0153665
0.0153879
0.0154096
0.0154285
0.0154441
0.0154578
0.0154673
0.0154724
0.0153542
0.0153778
0.0154073
0.0154344
0.0154603
0.0154843
0.015505
0.0155222
0.0155342
0.0155404
0.0153543
0.0153827
0.0154172
0.015451
0.0154843
0.0155168
0.0155466
0.0155721
0.0155922
0.0156059
0.0156129
0.0153607
0.0153778
0.0154172
0.015457
0.0154975
0.0155382
0.0155767
0.0156109
0.0156389
0.0156603
0.0156745
0.0156816
0.0153514
0.0153665
0.0154073
0.015451
0.0154975
0.0155457
0.0155925
0.0156349
0.0156709
0.0156994
0.0157204
0.0157341
0.0157409
0.0153864
0.0153879
0.0154344
0.0154843
0.0155382
0.0155925
0.0156431
0.0156868
0.0157225
0.0157499
0.0157696
0.0157823
0.0157885
0.0153461
0.0153649
0.0154096
0.0154603
0.0155168
0.0155767
0.0156349
0.0156868
0.0157301
0.0157643
0.0157899
0.015808
0.0158194
0.015825
0.0153563
0.0153781
0.0154285
0.0154843
0.0155466
0.0156109
0.0156709
0.0157225
0.0157643
0.0157964
0.0158201
0.0158365
0.0158468
0.0158518
0.015339
0.0153901
0.0154441
0.015505
0.0155721
0.0156389
0.0156994
0.0157499
0.0157899
0.0158201
0.015842
0.015857
0.0158663
0.0158708
0.0153549
0.0154024
0.0154578
0.0155222
0.0155922
0.0156603
0.0157204
0.0157697
0.015808
0.0158365
0.015857
0.0158709
0.0158795
0.0158836
0.0153418
0.0153599
0.0154095
0.0154673
0.0155342
0.0156059
0.0156745
0.0157341
0.0157823
0.0158194
0.0158468
0.0158663
0.0158795
0.0158876
0.0158914
0.0153464
0.0153636
0.0154138
0.0154724
0.0155404
0.0156129
0.0156816
0.0157409
0.0157885
0.015825
0.0158518
0.0158708
0.0158836
0.0158914
0.0158951
0.0150718
0.0150756
0.0150769
0.0150857
0.015063
0.015076
0.0150798
0.0150828
0.015082
0.0151118
0.015086
0.0150969
0.0151067
0.0151167
0.0151223
0.0151259
0.0150904
0.0150885
0.0151063
0.0151244
0.01514
0.0151528
0.015164
0.0151717
0.0151759
0.0150788
0.0150988
0.0151235
0.0151461
0.0151676
0.0151877
0.0152052
0.0152198
0.01523
0.0152354
0.0150788
0.0151034
0.0151324
0.0151607
0.0151887
0.0152163
0.0152422
0.0152646
0.0152826
0.015295
0.0153013
0.0150904
0.0150989
0.0151324
0.015166
0.0152003
0.0152354
0.0152695
0.0153004
0.0153264
0.0153465
0.0153601
0.015367
0.015082
0.0150885
0.0151235
0.0151607
0.0152003
0.0152421
0.015284
0.015323
0.0153571
0.0153848
0.0154056
0.0154194
0.0154263
0.0151118
0.0151064
0.0151461
0.0151887
0.0152354
0.015284
0.0153307
0.0153727
0.0154079
0.0154358
0.0154563
0.0154697
0.0154763
0.0150769
0.015086
0.0151244
0.0151677
0.0152163
0.0152695
0.015323
0.0153727
0.0154156
0.0154507
0.0154778
0.0154974
0.01551
0.0155162
0.0150857
0.0150969
0.01514
0.0151877
0.0152422
0.0153004
0.0153571
0.0154079
0.0154507
0.0154848
0.0155108
0.0155293
0.0155411
0.0155468
0.015063
0.0151067
0.0151528
0.0152052
0.0152646
0.0153264
0.0153848
0.0154358
0.0154778
0.0155108
0.0155355
0.0155529
0.015564
0.0155694
0.015076
0.0151167
0.015164
0.0152198
0.0152826
0.0153465
0.0154056
0.0154563
0.0154974
0.0155293
0.0155529
0.0155695
0.0155801
0.0155851
0.0150717
0.0150798
0.0151223
0.0151717
0.01523
0.015295
0.0153601
0.0154194
0.0154697
0.01551
0.0155411
0.015564
0.0155801
0.0155902
0.0155951
0.0150755
0.0150828
0.0151259
0.0151759
0.0152354
0.0153014
0.015367
0.0154263
0.0154763
0.0155162
0.0155468
0.0155694
0.0155851
0.0155951
0.0155998
0.0148128
0.014816
0.0148188
0.0148264
0.0148004
0.014811
0.0148134
0.0148159
0.0148241
0.0148501
0.0148212
0.0148301
0.0148379
0.0148458
0.0148498
0.0148527
0.0148322
0.0148247
0.0148394
0.0148542
0.0148668
0.0148768
0.0148855
0.0148914
0.0148948
0.014818
0.0148347
0.014855
0.0148733
0.0148906
0.0149068
0.0149209
0.0149328
0.0149411
0.0149456
0.014818
0.0148391
0.0148632
0.0148861
0.0149089
0.0149315
0.0149531
0.014972
0.0149875
0.0149982
0.0150038
0.0148322
0.0148347
0.0148632
0.0148908
0.014919
0.0149482
0.0149772
0.0150041
0.0150272
0.0150454
0.0150579
0.0150642
0.0148242
0.0148247
0.014855
0.0148861
0.014919
0.0149541
0.0149901
0.0150247
0.0150557
0.0150815
0.0151012
0.0151145
0.0151212
0.0148501
0.0148394
0.0148733
0.0149089
0.0149482
0.0149901
0.0150318
0.0150704
0.0151038
0.0151308
0.015151
0.0151644
0.0151711
0.0148188
0.0148212
0.0148542
0.0148906
0.0149315
0.0149772
0.0150247
0.0150704
0.0151112
0.0151456
0.0151728
0.0151928
0.0152059
0.0152124
0.0148264
0.0148301
0.0148668
0.0149068
0.0149531
0.0150041
0.0150557
0.0151038
0.0151456
0.01518
0.0152067
0.0152262
0.0152388
0.0152451
0.0148004
0.0148379
0.0148768
0.0149209
0.014972
0.0150272
0.0150815
0.0151308
0.0151728
0.0152067
0.0152328
0.0152517
0.0152638
0.0152698
0.014811
0.0148458
0.0148856
0.0149328
0.0149875
0.0150454
0.0151013
0.015151
0.0151928
0.0152262
0.0152517
0.0152699
0.0152817
0.0152874
0.0148127
0.0148134
0.0148498
0.0148914
0.0149411
0.0149982
0.0150579
0.0151145
0.0151644
0.0152059
0.0152389
0.0152638
0.0152817
0.0152931
0.0152987
0.0148159
0.0148159
0.0148527
0.0148948
0.0149456
0.0150038
0.0150642
0.0151212
0.0151711
0.0152124
0.0152451
0.0152698
0.0152874
0.0152987
0.0153042
0.0145622
0.0145651
0.0145696
0.0145765
0.0145488
0.0145575
0.0145581
0.0145601
0.0145756
0.0145987
0.0145679
0.0145749
0.0145807
0.0145867
0.014589
0.0145912
0.0145837
0.0145727
0.0145844
0.0145961
0.0146057
0.014613
0.0146193
0.0146233
0.0146258
0.0145703
0.014583
0.0145989
0.0146129
0.014626
0.0146382
0.014649
0.014658
0.0146644
0.0146679
0.0145703
0.0145876
0.0146068
0.0146243
0.0146416
0.0146592
0.0146762
0.0146915
0.0147042
0.0147131
0.0147178
0.0145837
0.014583
0.0146067
0.0146285
0.0146503
0.0146734
0.014697
0.0147195
0.0147393
0.0147551
0.0147661
0.0147718
0.0145756
0.0145727
0.0145989
0.0146243
0.0146503
0.0146784
0.0147082
0.0147378
0.014765
0.0147882
0.0148063
0.0148186
0.0148248
0.0145987
0.0145844
0.0146129
0.0146416
0.0146734
0.0147082
0.0147441
0.0147784
0.0148089
0.0148343
0.0148535
0.0148665
0.014873
0.0145696
0.0145679
0.0145961
0.014626
0.0146592
0.014697
0.0147378
0.0147784
0.014816
0.0148485
0.0148748
0.0148945
0.0149076
0.0149141
0.0145765
0.014575
0.0146057
0.0146382
0.0146762
0.0147195
0.014765
0.014809
0.0148485
0.0148819
0.0149085
0.0149281
0.014941
0.0149474
0.0145488
0.0145808
0.014613
0.014649
0.0146915
0.0147393
0.0147882
0.0148343
0.0148748
0.0149085
0.0149349
0.0149543
0.014967
0.0149732
0.0145575
0.0145867
0.0146193
0.0146581
0.0147042
0.0147551
0.0148063
0.0148536
0.0148945
0.0149281
0.0149543
0.0149734
0.0149858
0.0149919
0.0145622
0.0145581
0.014589
0.0146233
0.0146644
0.0147131
0.0147662
0.0148186
0.0148665
0.0149076
0.0149411
0.014967
0.0149858
0.014998
0.015004
0.0145651
0.0145602
0.0145913
0.0146258
0.0146679
0.0147178
0.0147718
0.0148249
0.014873
0.0149141
0.0149475
0.0149732
0.0149919
0.015004
0.01501
0.0143182
0.0143208
0.0143276
0.0143343
0.014307
0.0143138
0.0143117
0.0143135
0.0143342
0.0143558
0.0143246
0.0143297
0.0143332
0.014337
0.0143374
0.0143389
0.0143431
0.0143305
0.0143394
0.0143478
0.0143543
0.0143587
0.0143624
0.0143644
0.014366
0.0143367
0.0143418
0.0143531
0.0143623
0.0143709
0.0143791
0.0143863
0.0143925
0.0143969
0.0143994
0.0143367
0.0143472
0.0143606
0.0143724
0.0143839
0.0143961
0.0144086
0.0144202
0.01443
0.014437
0.0144408
0.0143431
0.0143418
0.0143606
0.014376
0.0143912
0.0144079
0.0144259
0.0144438
0.0144601
0.0144735
0.014483
0.0144879
0.0143342
0.0143305
0.0143531
0.0143724
0.0143912
0.0144121
0.0144354
0.0144596
0.0144828
0.0145031
0.0145193
0.0145304
0.0145361
0.0143558
0.0143394
0.0143623
0.0143839
0.0144079
0.0144354
0.0144651
0.0144948
0.014522
0.0145452
0.0145631
0.0145754
0.0145815
0.0143276
0.0143246
0.0143478
0.0143709
0.0143961
0.0144259
0.0144596
0.0144948
0.0145285
0.0145585
0.0145834
0.0146023
0.014615
0.0146214
0.0143343
0.0143297
0.0143543
0.0143791
0.0144086
0.0144438
0.0144828
0.014522
0.0145585
0.0145902
0.014616
0.0146353
0.0146481
0.0146545
0.0143071
0.0143332
0.0143587
0.0143863
0.0144202
0.0144601
0.0145031
0.0145452
0.0145834
0.014616
0.014642
0.0146615
0.0146743
0.0146806
0.0143138
0.014337
0.0143624
0.0143926
0.01443
0.0144735
0.0145193
0.0145632
0.0146023
0.0146353
0.0146615
0.0146808
0.0146935
0.0146998
0.0143182
0.0143117
0.0143374
0.0143645
0.0143969
0.0144371
0.014483
0.0145304
0.0145754
0.014615
0.0146481
0.0146743
0.0146935
0.0147061
0.0147123
0.0143208
0.0143135
0.014339
0.014366
0.0143994
0.0144408
0.0144879
0.0145361
0.0145815
0.0146214
0.0146546
0.0146806
0.0146998
0.0147123
0.0147185
0.014078
0.0140804
0.0140904
0.0140981
0.0140752
0.0140793
0.0140728
0.0140743
0.0140976
0.01412
0.0140902
0.014093
0.0140934
0.0140946
0.0140924
0.0140933
0.0141083
0.0140969
0.0141027
0.014107
0.0141099
0.0141109
0.0141119
0.0141116
0.0141123
0.014129
0.0141089
0.0141149
0.0141188
0.0141222
0.014126
0.0141296
0.014133
0.0141354
0.0141369
0.014129
0.014116
0.0141215
0.0141268
0.0141322
0.0141389
0.0141468
0.0141547
0.0141619
0.0141672
0.0141701
0.0141083
0.0141089
0.0141215
0.0141298
0.0141378
0.014148
0.0141606
0.0141742
0.0141872
0.0141982
0.0142062
0.0142104
0.0140976
0.0140969
0.0141149
0.0141269
0.0141378
0.0141513
0.0141684
0.0141875
0.0142068
0.0142243
0.0142385
0.0142486
0.0142537
0.01412
0.0141027
0.0141188
0.0141322
0.014148
0.0141684
0.0141922
0.0142173
0.0142413
0.0142622
0.0142788
0.0142902
0.014296
0.0140904
0.0140902
0.0141069
0.0141222
0.0141389
0.0141606
0.0141875
0.0142173
0.0142472
0.0142746
0.0142979
0.0143158
0.014328
0.0143342
0.0140981
0.014093
0.0141099
0.0141261
0.0141468
0.0141742
0.0142068
0.0142413
0.0142746
0.0143043
0.0143289
0.0143477
0.0143603
0.0143666
0.0140753
0.0140935
0.014111
0.0141296
0.0141548
0.0141872
0.0142243
0.0142622
0.0142979
0.0143289
0.0143543
0.0143734
0.0143861
0.0143925
0.0140794
0.0140947
0.0141119
0.0141331
0.0141619
0.0141982
0.0142386
0.0142788
0.0143158
0.0143477
0.0143734
0.0143926
0.0144054
0.0144117
0.0140781
0.0140729
0.0140924
0.0141117
0.0141354
0.0141672
0.0142062
0.0142486
0.0142902
0.014328
0.0143603
0.0143861
0.0144054
0.0144181
0.0144244
0.0140805
0.0140743
0.0140933
0.0141124
0.014137
0.0141701
0.0142104
0.0142537
0.014296
0.0143342
0.0143666
0.0143925
0.0144117
0.0144244
0.0144307
0.0138364
0.0138386
0.0138534
0.0138651
0.0138564
0.0138544
0.0138394
0.0138409
0.0138614
0.0138911
0.0138647
0.0138638
0.0138595
0.013857
0.013851
0.0138512
0.0138769
0.0138704
0.0138725
0.0138703
0.0138684
0.0138653
0.0138637
0.0138611
0.013861
0.0139734
0.0138867
0.0138802
0.0138779
0.0138755
0.0138746
0.0138745
0.0138756
0.0138762
0.013877
0.0139733
0.013902
0.0138865
0.0138828
0.0138817
0.0138832
0.0138869
0.0138916
0.0138967
0.0139005
0.0139028
0.0138769
0.0138866
0.0138865
0.0138848
0.0138852
0.0138896
0.0138974
0.0139073
0.0139176
0.0139268
0.0139336
0.0139372
0.0138613
0.0138704