/*--------------------------------*- C++ -*----------------------------------*\
| =========                 |                                                 |
| \\      /  F ield         | OpenFOAM: The Open Source CFD Toolbox           |
|  \\    /   O peration     | Version:  2.1.1                                 |
|   \\  /    A nd           | Web:      www.OpenFOAM.org                      |
|    \\/     M anipulation  |                                                 |
\*---------------------------------------------------------------------------*/
FoamFile
{
    version     2.0;
    format      ascii;
    class       surfaceScalarField;
    location    "0.002";
    object      phi;
}
// * * * * * * * * * * * * * * * * * * * * * * * * * * * * * * * * * * * * * //

dimensions      [0 3 -1 0 0 0 0];

internalField   nonuniform List<scalar> 
29298
(
-1.43558e-11
-5.88541e-13
5.65391e-11
-4.15952e-11
-1.34364e-13
1.87198e-13
8.76735e-10
6.20157e-11
6.28591e-11
-6.20178e-11
-6.28629e-11
-8.76788e-10
1.78015e-13
-3.10487e-13
1.12539e-09
-1.1254e-09
-4.45076e-14
2.28467e-13
1.12814e-09
-1.12815e-09
9.85901e-14
-1.64151e-13
1.13028e-09
-1.13026e-09
-3.16319e-14
1.06254e-13
1.13518e-09
-1.13517e-09
1.54018e-14
-8.31269e-14
1.13815e-09
-1.13812e-09
-3.68447e-14
2.02442e-14
1.13989e-09
-1.13986e-09
-3.06485e-14
-4.41431e-14
1.14124e-09
-1.14121e-09
-5.96711e-14
5.88118e-15
1.14234e-09
-1.14233e-09
-6.00334e-14
-1.66302e-14
1.14344e-09
-1.14344e-09
-6.28299e-14
1.1297e-14
1.14452e-09
-1.14453e-09
-5.22565e-14
6.68838e-15
1.14565e-09
-1.14568e-09
-3.30085e-14
2.05915e-14
1.14674e-09
-1.14679e-09
1.34625e-14
1.14761e-09
-1.14766e-09
1.40813e-12
-1.42039e-11
-2.03533e-12
4.97884e-11
-3.49573e-11
-2.28911e-14
1.04782e-15
8.82671e-10
6.47554e-11
6.61069e-11
-6.45958e-11
-6.6008e-11
-8.8272e-10
3.29182e-13
-6.54354e-13
1.13887e-09
-1.13888e-09
-2.53955e-15
5.92401e-13
1.13619e-09
-1.13622e-09
1.29655e-13
-3.04245e-13
1.13468e-09
-1.13468e-09
-1.20237e-14
2.36021e-13
1.1372e-09
-1.13718e-09
2.53134e-14
-1.49507e-13
1.1388e-09
-1.13877e-09
-3.26148e-14
5.45406e-14
1.13988e-09
-1.13986e-09
-2.79253e-14
-8.1339e-14
1.14099e-09
-1.14096e-09
-5.58918e-14
2.36067e-14
1.14201e-09
-1.142e-09
-5.76864e-14
-2.17523e-14
1.14313e-09
-1.14312e-09
-6.49501e-14
3.22733e-14
1.1442e-09
-1.14421e-09
-6.56397e-14
1.30124e-14
1.14528e-09
-1.14529e-09
-2.74838e-14
2.70031e-14
1.14623e-09
-1.14627e-09
3.09393e-14
1.14678e-09
-1.14682e-09
1.96636e-12
-8.45672e-12
1.52066e-11
-8.71623e-12
-2.63275e-13
9.02824e-13
9.79247e-10
5.75096e-11
4.01202e-11
-5.74492e-11
-4.07747e-11
-9.79293e-10
1.24038e-14
-8.94325e-13
1.18511e-09
-1.18515e-09
-1.11336e-13
7.18765e-13
1.15272e-09
-1.15273e-09
1.35572e-14
-4.29783e-13
1.14013e-09
-1.14013e-09
-1.35276e-14
2.51276e-13
1.13943e-09
-1.13942e-09
8.8556e-15
-1.96399e-13
1.13952e-09
-1.1395e-09
-5.81196e-15
4.71474e-14
1.13981e-09
-1.13979e-09
-7.88297e-15
-1.08816e-13
1.14057e-09
-1.14054e-09
-1.8447e-14
2.3828e-14
1.14147e-09
-1.14146e-09
-3.3068e-14
-2.69967e-14
1.14254e-09
-1.14252e-09
-4.14477e-14
2.48242e-14
1.14357e-09
-1.14356e-09
-4.29281e-14
5.51938e-15
1.14458e-09
-1.14457e-09
-1.61733e-14
4.07037e-14
1.14531e-09
-1.14535e-09
4.53049e-14
1.14568e-09
-1.1457e-09
-2.48891e-13
5.785e-11
7.65364e-10
4.27145e-11
4.83395e-11
-4.23755e-11
-4.82325e-11
4.45043e-11
-5.66905e-11
-4.49074e-11
-7.65415e-10
9.756e-13
-2.0978e-12
1.16367e-09
-1.16369e-09
-1.36874e-13
1.87114e-12
1.16747e-09
-1.16751e-09
1.03011e-13
-6.5163e-13
1.14346e-09
-1.14348e-09
8.14926e-15
3.46741e-13
1.13928e-09
-1.13928e-09
3.03267e-14
-2.42587e-13
1.1389e-09
-1.13887e-09
-2.62601e-15
5.97571e-14
1.13886e-09
-1.13884e-09
-9.69621e-15
-1.28255e-13
1.13951e-09
-1.13948e-09
-3.44953e-14
2.11154e-14
1.14042e-09
-1.1404e-09
-5.24373e-14
-4.72865e-14
1.14156e-09
-1.14153e-09
-4.80087e-14
2.44998e-14
1.14264e-09
-1.14264e-09
-4.45418e-14
1.54633e-14
1.14359e-09
-1.14361e-09
-2.68734e-14
4.64561e-14
1.14422e-09
-1.14424e-09
4.41872e-14
1.14455e-09
-1.14456e-09
6.50517e-12
-1.35225e-11
1.2402e-11
1.16721e-10
-6.42555e-11
-1.33203e-12
7.70632e-13
9.05323e-10
4.66111e-11
5.50659e-11
-4.79539e-11
-5.52195e-11
-9.05363e-10
1.21517e-13
4.36878e-13
1.15603e-09
-1.15605e-09
-3.60098e-13
-1.69033e-13
1.14563e-09
-1.14563e-09
6.11399e-14
-9.7366e-14
1.13653e-09
-1.13651e-09
1.11072e-14
-2.12118e-13
1.13637e-09
-1.13635e-09
6.01995e-14
-1.44299e-14
1.13678e-09
-1.13675e-09
3.86511e-14
-1.42366e-13
1.13773e-09
-1.1377e-09
3.8205e-14
-8.27903e-15
1.13899e-09
-1.13896e-09
1.70805e-14
-5.10655e-14
1.14036e-09
-1.14034e-09
2.05326e-14
2.36223e-14
1.14153e-09
-1.14154e-09
6.07395e-15
1.63907e-14
1.14252e-09
-1.14251e-09
1.34355e-15
4.60182e-14
1.14312e-09
-1.14311e-09
4.67106e-14
1.14346e-09
-1.14345e-09
-2.55026e-12
-9.67097e-12
-8.45261e-13
4.24105e-11
-2.9344e-11
-1.8187e-13
6.50533e-11
7.25993e-10
5.79671e-11
6.16461e-11
-5.75233e-11
-6.09009e-11
4.47452e-11
-6.46717e-11
-4.53021e-11
-7.26055e-10
1.03709e-12
-7.4459e-13
1.13346e-09
-1.1335e-09
-3.51947e-14
9.18777e-13
1.15327e-09
-1.15328e-09
1.07276e-13
-2.11819e-13
1.13386e-09
-1.13389e-09
2.14804e-14
-1.56666e-13
1.13222e-09
-1.13219e-09
3.71355e-14
-4.68929e-14
1.1337e-09
-1.13369e-09
3.32672e-15
-1.33438e-13
1.13543e-09
-1.1354e-09
-4.82721e-15
-1.71681e-14
1.13728e-09
-1.13726e-09
-3.92452e-14
-4.63861e-14
1.13897e-09
-1.13894e-09
-3.63354e-14
1.98384e-15
1.14037e-09
-1.14036e-09
-3.82926e-14
1.45576e-15
1.14145e-09
-1.14143e-09
-2.09169e-14
1.80545e-14
1.142e-09
-1.14199e-09
2.12452e-14
1.14234e-09
-1.14233e-09
1.63139e-11
-1.44721e-11
1.40376e-11
1.02162e-10
-5.29886e-11
-1.36299e-12
1.75785e-12
8.85662e-10
4.70136e-11
5.89491e-11
-4.81664e-11
-5.89349e-11
-8.85662e-10
2.59925e-14
-4.27255e-13
1.14575e-09
-1.14579e-09
-1.32664e-13
-5.59301e-14
1.13523e-09
-1.13522e-09
1.83653e-13
-4.56599e-13
1.12759e-09
-1.12761e-09
1.34249e-13
-1.02284e-14
1.12981e-09
-1.1298e-09
1.24882e-13
-1.46028e-13
1.13289e-09
-1.13286e-09
1.27872e-13
-4.86942e-14
1.13543e-09
-1.13541e-09
1.18528e-13
-7.01514e-14
1.13768e-09
-1.13764e-09
9.75682e-14
-5.54207e-15
1.13946e-09
-1.13943e-09
6.90067e-14
-1.25486e-15
1.14053e-09
-1.1405e-09
3.45167e-14
2.25379e-14
1.14096e-09
-1.14093e-09
3.05176e-14
1.14123e-09
-1.1412e-09
-1.8745e-12
-1.13205e-11
-3.10569e-12
5.16295e-11
-3.53289e-11
-1.89448e-13
5.84309e-11
7.50839e-10
5.84781e-11
6.28544e-11
-5.79485e-11
-6.19328e-11
4.3846e-11
-5.72586e-11
-4.44613e-11
-7.50902e-10
1.21363e-12
-1.804e-12
1.13802e-09
-1.13805e-09
-1.06771e-13
1.29492e-12
1.14247e-09
-1.1425e-09
2.24002e-15
-5.64422e-13
1.12309e-09
-1.12309e-09
-2.45376e-15
-9.64519e-15
1.125e-09
-1.125e-09
3.68028e-14
-2.0163e-13
1.12991e-09
-1.1299e-09
1.12098e-15
-2.70071e-14
1.13366e-09
-1.13365e-09
-7.11726e-14
-1.87201e-14
1.1367e-09
-1.13668e-09
-6.08598e-14
-3.62176e-14
1.13878e-09
-1.13876e-09
-6.92262e-14
-1.60452e-14
1.13973e-09
-1.13972e-09
-3.49344e-14
-3.02932e-14
1.13983e-09
-1.13981e-09
-2.25734e-14
1.13987e-09
-1.13985e-09
1.14563e-11
-1.43771e-11
6.04254e-12
1.27845e-10
-7.25365e-11
-1.77343e-12
1.22093e-12
8.84688e-10
4.52634e-11
5.28509e-11
-4.62983e-11
-5.30335e-11
-8.84723e-10
5.52683e-13
-1.0084e-12
1.13137e-09
-1.13139e-09
5.58102e-13
-5.54796e-13
1.12572e-09
-1.12574e-09
4.48669e-13
9.94493e-14
1.1233e-09
-1.12331e-09
1.35547e-13
1.24854e-13
1.12758e-09
-1.1276e-09
2.03178e-13
-1.16631e-13
1.13214e-09
-1.13211e-09
2.36445e-13
-6.80733e-14
1.13625e-09
-1.13623e-09
1.88394e-13
-1.38345e-14
1.13876e-09
-1.13873e-09
1.40426e-13
5.73599e-15
1.1394e-09
-1.13937e-09
7.36825e-14
7.64856e-15
1.1387e-09
-1.13867e-09
2.44524e-14
1.13811e-09
-1.13807e-09
2.64453e-12
-1.23394e-11
2.35275e-11
-1.38326e-11
9.88873e-13
4.32873e-11
7.22924e-10
5.68273e-11
5.06158e-11
-5.63433e-11
-5.08425e-11
3.37216e-11
-4.23279e-11
-3.46809e-11
-7.22949e-10
1.00074e-12
-9.8793e-13
1.12436e-09
-1.1244e-09
-1.30546e-12
1.77141e-12
1.13142e-09
-1.13145e-09
4.56858e-14
-1.22271e-12
1.1424e-09
-1.14243e-09
1.99695e-13
-3.41115e-14
1.13509e-09
-1.13508e-09
7.82651e-14
2.44334e-14
1.13369e-09
-1.13371e-09
-3.49159e-13
3.52386e-13
1.13635e-09
-1.13635e-09
-2.62363e-13
-1.01919e-13
1.13909e-09
-1.13908e-09
-2.51059e-13
-1.88526e-14
1.13924e-09
-1.13923e-09
-1.21535e-13
-1.32271e-13
1.13704e-09
-1.13704e-09
-1.03752e-13
1.13511e-09
-1.1351e-09
1.06356e-11
4.52244e-11
-1.25734e-11
-1.2268e-12
5.05566e-11
7.21657e-10
3.38738e-11
4.33169e-11
-3.48238e-11
-4.23492e-11
5.68185e-11
-5.07866e-11
-5.63344e-11
-7.21692e-10
1.79546e-12
5.29916e-11
8.84055e-10
4.53161e-11
-5.31715e-11
-4.63542e-11
-8.84088e-10
4.20326e-13
1.79627e-13
1.13758e-09
-1.13761e-09
-9.24766e-13
1.3513e-12
1.14547e-09
-1.14551e-09
1.58595e-13
-1.04683e-12
1.15304e-09
-1.15305e-09
6.51593e-13
-1.2535e-13
1.1454e-09
-1.14542e-09
4.22898e-13
1.33144e-13
1.1432e-09
-1.14321e-09
2.96884e-13
1.0042e-13
1.13984e-09
-1.13984e-09
1.56562e-13
-1.6835e-15
1.13443e-09
-1.13442e-09
3.84873e-14
1.13015e-09
-1.13013e-09
1.88977e-11
4.71897e-11
-1.55311e-11
-6.88493e-12
3.09171e-13
1.02139e-11
9.05233e-11
-4.11707e-11
-1.75314e-12
6.28617e-11
7.50557e-10
4.37968e-11
5.83935e-11
-4.44163e-11
-5.72246e-11
5.84894e-11
-6.19408e-11
-5.79642e-11
-7.50617e-10
7.35804e-13
5.89591e-11
8.85414e-10
4.70207e-11
-5.89479e-11
-4.81778e-11
-8.8541e-10
-4.48018e-13
1.72291e-13
1.13324e-09
-1.13328e-09
-1.8768e-12
1.32171e-12
1.1558e-09
-1.15582e-09
-7.27637e-13
-9.80691e-13
1.16716e-09
-1.1672e-09
-6.05147e-13
-2.09206e-14
1.15234e-09
-1.15234e-09
-2.39631e-13
-3.33836e-13
1.13579e-09
-1.13582e-09
-1.8625e-13
1.12795e-09
-1.12796e-09
5.80829e-12
-4.47742e-12
1.08426e-11
1.0737e-10
-5.66817e-11
5.54577e-12
-6.96761e-12
1.27067e-11
9.09921e-11
-4.33194e-11
-7.68595e-13
6.16452e-11
7.25902e-10
4.47393e-11
6.50448e-11
-4.52971e-11
-6.46692e-11
5.79659e-11
-6.09045e-11
-5.75282e-11
-7.25956e-10
2.09089e-12
5.50662e-11
9.05164e-10
4.66053e-11
-5.52227e-11
-4.79521e-11
-9.05199e-10
8.83239e-13
2.42297e-13
1.16335e-09
-1.16337e-09
6.44359e-13
2.47835e-13
1.18457e-09
-1.1846e-09
3.03814e-13
8.8772e-15
1.13821e-09
-1.13821e-09
1.23312e-13
1.12509e-09
-1.12509e-09
-2.92084e-12
-4.90263e-12
2.65804e-11
-1.87569e-11
1.14152e-11
-8.43133e-12
7.99501e-12
1.19789e-10
-6.91238e-11
5.84889e-12
-7.02726e-12
1.00508e-11
9.04318e-11
-4.42382e-11
-9.05571e-13
4.83371e-11
7.65194e-10
4.45132e-11
5.78527e-11
-4.49168e-11
-5.66964e-11
4.27093e-11
-4.82319e-11
-4.23738e-11
-7.65239e-10
-1.30399e-14
4.01087e-11
9.78744e-10
5.74601e-11
-4.07645e-11
-5.74091e-11
-9.78782e-10
-1.97922e-13
6.60308e-11
8.81904e-10
6.46743e-11
-6.59406e-11
-6.45229e-11
-8.81949e-10
6.27976e-11
8.76413e-10
6.20113e-11
-6.28084e-11
-6.20212e-11
-8.76459e-10
3.43354e-12
6.9476e-12
6.21414e-11
-2.41853e-11
-7.7001e-12
-9.97898e-13
9.09313e-11
-4.21241e-11
4.3714e-12
-1.51708e-12
1.30526e-11
1.02027e-10
-5.19015e-11
-9.54057e-13
1.0849e-12
1.4366e-11
9.6756e-11
-4.84546e-11
-4.15988e-11
-1.43597e-11
-5.88491e-13
5.65459e-11
-1.33209e-13
1.89946e-13
8.76674e-10
6.20291e-11
6.28729e-11
-6.20291e-11
-6.28743e-11
1.54578e-13
-3.0528e-13
1.1254e-09
-8.80457e-14
2.39996e-13
1.12814e-09
3.23377e-14
-1.6007e-13
1.13031e-09
-1.14766e-13
1.14365e-13
1.13521e-09
-8.84084e-14
-8.2184e-14
1.1382e-09
-1.55377e-13
3.43497e-14
1.13991e-09
-1.57373e-13
-2.99266e-14
1.14127e-09
-1.84939e-13
3.15162e-14
1.14232e-09
-1.78699e-13
1.38891e-14
1.14342e-09
-1.64363e-13
4.45018e-14
1.14444e-09
-1.25749e-13
4.21833e-14
1.14556e-09
-6.90602e-14
5.70406e-14
1.14662e-09
5.38519e-14
1.14749e-09
-3.49602e-11
1.40836e-12
-1.42073e-11
-2.03547e-12
4.97946e-11
-2.60853e-14
1.15699e-15
8.82624e-10
6.47687e-11
6.61206e-11
-6.46083e-11
-6.60212e-11
3.38726e-13
-6.56961e-13
1.13885e-09
-3.16468e-14
6.10864e-13
1.13618e-09
7.18365e-14
-2.93224e-13
1.13471e-09
-9.3501e-14
2.55126e-13
1.13722e-09
-7.25864e-14
-1.5074e-13
1.13884e-09
-1.44673e-13
8.32852e-14
1.13991e-09
-1.50511e-13
-4.597e-14
1.14101e-09
-1.78073e-13
7.06143e-14
1.142e-09
-1.7289e-13
3.4905e-14
1.1431e-09
-1.62569e-13
9.29576e-14
1.14414e-09
-1.27476e-13
8.5056e-14
1.14521e-09
-7.02003e-14
1.06229e-13
1.14612e-09
1.08942e-13
1.14667e-09
-8.71792e-12
1.96662e-12
-8.45863e-12
1.52099e-11
-2.69972e-13
9.07106e-13
9.792e-10
5.75206e-11
4.01302e-11
-5.74619e-11
-4.07806e-11
2.05453e-15
-8.993e-13
1.18508e-09
-1.46122e-13
7.49093e-13
1.15273e-09
-4.51325e-14
-4.17818e-13
1.14015e-09
-8.58085e-14
2.69623e-13
1.13946e-09
-8.03349e-14
-2.01484e-13
1.13957e-09
-1.0855e-13
8.62241e-14
1.13984e-09
-1.21084e-13
-6.04288e-14
1.1406e-09
-1.33036e-13
8.55303e-14
1.14146e-09
-1.2683e-13
5.13646e-14
1.14251e-09
-1.35552e-13
1.22565e-13
1.14355e-09
-1.06186e-13
1.05627e-13
1.14453e-09
-5.59047e-14
1.42137e-13
1.14523e-09
1.46691e-13
1.14559e-09
-2.45118e-13
5.78602e-11
7.65314e-10
4.27222e-11
4.83491e-11
-4.23843e-11
-4.82411e-11
4.45156e-11
-5.67049e-11
-4.4915e-11
9.53147e-13
-2.10408e-12
1.16368e-09
-1.61835e-13
1.90836e-12
1.16742e-09
5.14625e-14
-6.49452e-13
1.14348e-09
-6.16304e-14
3.67324e-13
1.13929e-09
-5.1346e-14
-2.54657e-13
1.13894e-09
-9.8818e-14
1.07363e-13
1.13889e-09
-1.17145e-13
-7.39376e-14
1.13954e-09
-1.36883e-13
9.57561e-14
1.14044e-09
-1.33663e-13
3.50311e-14
1.14158e-09
-1.37539e-13
1.20286e-13
1.14265e-09
-1.10721e-13
1.20325e-13
1.14355e-09
-5.93099e-14
1.60655e-13
1.14415e-09
1.63531e-13
1.14448e-09
-6.42626e-11
6.50721e-12
-1.35283e-11
1.24049e-11
1.16739e-10
-1.35207e-12
7.64673e-13
9.05286e-10
4.66224e-11
5.50804e-11
-4.79585e-11
-5.52243e-11
1.18273e-13
4.57514e-13
1.15601e-09
-3.91953e-13
-1.479e-13
1.14564e-09
1.71749e-14
-6.52196e-14
1.13656e-09
-5.4879e-14
-2.16148e-13
1.13641e-09
-1.7412e-14
3.67338e-14
1.13681e-09
-5.02123e-14
-7.86783e-14
1.13777e-09
-4.82108e-14
7.16808e-14
1.13902e-09
-6.09994e-14
3.50715e-14
1.14037e-09
-5.69658e-14
1.2459e-13
1.14152e-09
-4.69281e-14
1.26282e-13
1.14251e-09
-2.60798e-14
1.69202e-13
1.1431e-09
1.73911e-13
1.14343e-09
-2.93463e-11
-2.55021e-12
-9.67405e-12
-8.45687e-13
4.24163e-11
-2.29208e-13
6.50665e-11
7.25958e-10
5.79792e-11
6.16574e-11
-5.75329e-11
-6.09121e-11
4.47586e-11
-6.46846e-11
-4.53058e-11
1.03242e-12
-7.46943e-13
1.1334e-09
-6.55552e-14
9.49785e-13
1.15327e-09
6.64744e-14
-1.91167e-13
1.13385e-09
-4.52042e-14
-1.34306e-13
1.13225e-09
-3.39616e-14
2.27879e-15
1.13372e-09
-7.24134e-14
-7.6149e-14
1.13547e-09
-8.45088e-14
6.06373e-14
1.1373e-09
-1.11376e-13
4.00439e-14
1.13899e-09
-9.74403e-14
1.06906e-13
1.14038e-09
-8.28704e-14
1.14413e-13
1.14145e-09
-4.40916e-14
1.41709e-13
1.14199e-09
1.48806e-13
1.14233e-09
-5.29948e-11
1.632e-11
-1.44779e-11
1.40405e-11
1.02178e-10
-1.41167e-12
1.83022e-12
8.85633e-10
4.70234e-11
5.89591e-11
-4.81727e-11
-5.89474e-11
2.05238e-15
-4.37993e-13
1.14572e-09
-1.56053e-13
-4.37953e-14
1.13523e-09
1.49685e-13
-4.44284e-13
1.12759e-09
8.39195e-14
3.67587e-14
1.12984e-09
6.71607e-14
-9.49101e-14
1.13292e-09
6.77686e-14
2.24916e-14
1.13547e-09
6.24216e-14
7.20071e-15
1.13771e-09
4.91446e-14
9.03523e-14
1.13949e-09
3.35426e-14
1.01332e-13
1.14055e-09
1.59873e-14
1.36603e-13
1.14099e-09
1.48312e-13
1.14125e-09
-3.53308e-11
-1.87398e-12
-1.13246e-11
-3.10615e-12
5.16355e-11
-1.59077e-13
5.84426e-11
7.50802e-10
5.84924e-11
6.28666e-11
-5.79571e-11
-6.19441e-11
4.3858e-11
-5.72702e-11
-4.44659e-11
1.23143e-12
-1.81685e-12
1.138e-09
-1.47378e-13
1.36604e-12
1.14244e-09
-4.03402e-14
-5.70097e-13
1.12311e-09
-4.83616e-14
3.16907e-14
1.12501e-09
-1.61747e-14
-1.60938e-13
1.12994e-09
-4.75888e-14
2.79231e-14
1.13369e-09
-1.17229e-13
4.38736e-14
1.13673e-09
-9.81776e-14
4.71905e-14
1.1388e-09
-9.57355e-14
7.6713e-14
1.13976e-09
-4.85963e-14
7.06329e-14
1.13986e-09
8.2445e-14
1.13989e-09
-7.25447e-11
1.14597e-11
-1.43822e-11
6.04555e-12
1.27863e-10
-1.79555e-12
1.21297e-12
8.84664e-10
4.52752e-11
5.28615e-11
-4.63031e-11
-5.30427e-11
5.67071e-13
-9.97307e-13
1.13137e-09
5.61984e-13
-5.71216e-13
1.12572e-09
4.35952e-13
1.37416e-13
1.12332e-09
1.21057e-13
1.47058e-13
1.12759e-09
1.6985e-13
-6.57542e-14
1.13218e-09
2.01e-13
-2.41779e-14
1.13628e-09
1.57419e-13
5.26632e-14
1.1388e-09
1.20281e-13
7.36839e-14
1.13944e-09
6.34828e-14
8.56168e-14
1.13874e-09
1.05881e-13
1.13815e-09
-1.3834e-11
2.64491e-12
-1.23419e-11
2.3531e-11
9.73159e-13
4.33009e-11
7.22897e-10
5.68363e-11
5.06226e-11
-5.63557e-11
-5.08551e-11
3.37293e-11
-4.23283e-11
-3.46848e-11
9.88853e-13
-9.80137e-13
1.12432e-09
-1.37473e-12
1.79142e-12
1.13143e-09
3.2842e-14
-1.24134e-12
1.14237e-09
1.75543e-13
-1.0904e-14
1.1351e-09
5.21733e-14
5.66827e-14
1.13369e-09
-3.75109e-13
3.81515e-13
1.13638e-09
-2.80626e-13
-5.62428e-14
1.1391e-09
-2.69378e-13
3.64885e-14
1.13927e-09
-1.29073e-13
-7.5405e-14
1.13707e-09
-4.06692e-14
1.13514e-09
-1.2563e-11
1.06301e-11
4.5234e-11
-1.21661e-12
5.05658e-11
7.2164e-10
3.38779e-11
4.33194e-11
-3.48322e-11
-4.23637e-11
5.6829e-11
-5.0796e-11
-5.63449e-11
1.8063e-12
5.30016e-11
8.84031e-10
4.53274e-11
-5.31804e-11
-4.63588e-11
4.29504e-13
1.48578e-13
1.13756e-09
-9.55985e-13
1.39749e-12
1.14544e-09
1.41823e-13
-1.04266e-12
1.15304e-09
6.41373e-13
-1.27205e-13
1.14541e-09
4.09429e-13
1.53567e-13
1.14322e-09
2.86633e-13
1.33725e-13
1.13988e-09
1.53042e-13
2.61051e-14
1.13447e-09
7.8773e-14
1.13018e-09
-1.55317e-11
1.89007e-11
4.71976e-11
-4.11772e-11
-6.88212e-12
3.04032e-13
1.02168e-11
9.0541e-11
-1.83087e-12
6.28749e-11
7.50522e-10
4.38085e-11
5.84041e-11
-4.4421e-11
-5.72358e-11
5.85038e-11
-6.19525e-11
-5.79713e-11
7.37409e-13
5.89689e-11
8.85386e-10
4.70307e-11
-5.89604e-11
-4.8184e-11
-4.66819e-13
2.17962e-13
1.13319e-09
-1.91316e-12
1.33679e-12
1.15578e-09
-7.55271e-13
-9.61751e-13
1.16712e-09
-6.23365e-13
-1.07676e-14
1.15235e-09
-2.46186e-13
-3.47094e-13
1.13579e-09
-1.6425e-13
1.12796e-09
-5.66874e-11
5.80861e-12
-4.47873e-12
1.08464e-11
1.07386e-10
-4.33263e-11
5.54715e-12
-6.9721e-12
1.27113e-11
9.10104e-11
-7.65148e-13
6.16572e-11
7.25868e-10
4.47525e-11
6.50588e-11
-4.53006e-11
-6.4681e-11
5.7979e-11
-6.09148e-11
-5.75364e-11
2.09395e-12
5.50798e-11
9.05129e-10
4.66166e-11
-5.5228e-11
-4.79572e-11
8.88806e-13
2.31169e-13
1.16336e-09
6.47232e-13
2.54257e-13
1.18454e-09
2.96562e-13
1.4052e-14
1.1382e-09
1.21876e-13
1.12511e-09
-1.87579e-11
-2.92171e-12
-4.90378e-12
2.65834e-11
-6.91294e-11
1.14163e-11
-8.43282e-12
7.99858e-12
1.19805e-10
-4.42467e-11
5.85029e-12
-7.02999e-12
1.00553e-11
9.04499e-11
-9.07883e-13
4.83458e-11
7.65145e-10
4.45234e-11
5.78615e-11
-4.4925e-11
-5.67107e-11
4.27166e-11
-4.82412e-11
-4.23837e-11
-1.07567e-14
4.0119e-11
9.78707e-10
5.74727e-11
-4.07706e-11
-5.74205e-11
-1.99747e-13
6.60452e-11
8.81865e-10
6.46888e-11
-6.59529e-11
-6.45345e-11
6.28116e-11
8.76359e-10
6.20251e-11
-6.28189e-11
-6.20326e-11
-2.4189e-11
3.43283e-12
6.95133e-12
6.21527e-11
-4.21315e-11
-7.70241e-12
-9.96546e-13
9.09487e-11
-5.19101e-11
4.3711e-12
-1.51734e-12
1.3056e-11
1.02045e-10
-4.84632e-11
-9.52764e-13
1.08359e-12
1.43702e-11
9.67743e-11
-4.16027e-11
-1.43641e-11
-5.88596e-13
5.65544e-11
-1.83457e-13
2.01056e-13
8.76648e-10
6.20448e-11
6.28882e-11
-6.2042e-11
-6.28875e-11
1.19034e-13
-3.12054e-13
1.12541e-09
-1.59237e-13
2.63709e-13
1.12815e-09
-7.02929e-14
-1.55117e-13
1.13037e-09
-2.41521e-13
1.27616e-13
1.13524e-09
-2.47956e-13
-6.25468e-14
1.13825e-09
-3.3126e-13
5.70747e-14
1.13992e-09
-3.47737e-13
-1.68334e-15
1.14127e-09
-3.74866e-13
6.63198e-14
1.14227e-09
-3.57495e-13
5.31225e-14
1.14333e-09
-3.12184e-13
9.30461e-14
1.1443e-09
-2.33315e-13
9.45989e-14
1.14539e-09
-1.28686e-13
1.13074e-13
1.14639e-09
1.15808e-13
1.14725e-09
-3.49634e-11
1.40857e-12
-1.42117e-11
-2.03581e-12
4.98023e-11
-3.49004e-14
1.00026e-14
8.82589e-10
6.47847e-11
6.61345e-11
-6.46223e-11
-6.60374e-11
2.94367e-13
-6.54097e-13
1.13886e-09
-8.87746e-14
6.30352e-13
1.1362e-09
-2.05749e-14
-2.8211e-13
1.13477e-09
-2.14411e-13
2.83393e-13
1.13725e-09
-2.25644e-13
-1.12094e-13
1.1389e-09
-3.15617e-13
1.26759e-13
1.13993e-09
-3.36502e-13
6.10895e-15
1.14103e-09
-3.63705e-13
1.37814e-13
1.14195e-09
-3.46585e-13
1.09663e-13
1.14302e-09
-3.0425e-13
1.82209e-13
1.14401e-09
-2.29578e-13
1.8213e-13
1.14504e-09
-1.25912e-13
2.14296e-13
1.14591e-09
2.20243e-13
1.14644e-09
-8.71984e-12
1.9668e-12
-8.46105e-12
1.52141e-11
-2.68122e-13
9.0827e-13
9.79159e-10
5.75326e-11
4.01419e-11
-5.74767e-11
-4.07879e-11
-1.30631e-14
-8.97809e-13
1.18507e-09
-2.07868e-13
8.33179e-13
1.15273e-09
-1.38117e-13
-4.0516e-13
1.1402e-09
-1.95279e-13
2.99169e-13
1.1395e-09
-2.2218e-13
-1.46794e-13
1.13963e-09
-2.66149e-13
1.44485e-13
1.13986e-09
-2.93718e-13
1.17157e-14
1.14062e-09
-3.06315e-13
1.77307e-13
1.14144e-09
-2.95033e-13
1.49221e-13
1.14246e-09
-2.61741e-13
2.41782e-13
1.14346e-09
-1.97499e-13
2.44867e-13
1.1444e-09
-1.06541e-13
2.90552e-13
1.14506e-09
2.975e-13
1.14541e-09
-2.41545e-13
5.78696e-11
7.65269e-10
4.27309e-11
4.83605e-11
-4.23955e-11
-4.8252e-11
4.4528e-11
-5.67241e-11
-4.49249e-11
9.17131e-13
-2.05784e-12
1.16368e-09
-2.0057e-13
1.94901e-12
1.16743e-09
-1.90147e-14
-6.38167e-13
1.14353e-09
-1.61764e-13
4.06799e-13
1.13933e-09
-1.78555e-13
-1.93138e-13
1.139e-09
-2.44051e-13
1.7766e-13
1.13892e-09
-2.75006e-13
1.16245e-14
1.13957e-09
-2.94539e-13
2.08119e-13
1.14042e-09
-2.89025e-13
1.71024e-13
1.14155e-09
-2.5479e-13
2.76585e-13
1.14257e-09
-1.94705e-13
2.83201e-13
1.14345e-09
-1.04285e-13
3.3573e-13
1.14401e-09
3.42415e-13
1.14433e-09
-6.42714e-11
6.51068e-12
-1.35365e-11
1.24063e-11
1.1676e-10
-1.37292e-12
7.64189e-13
9.05298e-10
4.66357e-11
5.5097e-11
-4.79643e-11
-5.52313e-11
9.27267e-14
4.8593e-13
1.15601e-09
-4.43515e-13
-1.32512e-13
1.14567e-09
-5.95743e-14
-2.31898e-14
1.1366e-09
-1.5514e-13
-1.67025e-13
1.13647e-09
-1.36765e-13
1.12801e-13
1.13685e-09
-1.84328e-13
1.29637e-14
1.13781e-09
-1.83418e-13
1.90546e-13
1.13903e-09
-1.85897e-13
1.716e-13
1.14037e-09
-1.60747e-13
2.84084e-13
1.14149e-09
-1.21881e-13
2.97208e-13
1.14246e-09
-6.61016e-14
3.54762e-13
1.14302e-09
3.64687e-13
1.14335e-09
-2.93494e-11
-2.55052e-12
-9.6776e-12
-8.4596e-13
4.24234e-11
-2.36785e-13
6.50816e-11
7.25917e-10
5.79935e-11
6.16709e-11
-5.75442e-11
-6.09262e-11
4.47744e-11
-6.47007e-11
-4.53109e-11
1.02806e-12
-7.43248e-13
1.13336e-09
-1.09897e-13
9.8752e-13
1.15329e-09
-5.78563e-15
-1.53572e-13
1.13388e-09
-1.32421e-13
-9.00129e-14
1.1323e-09
-1.42051e-13
8.02343e-14
1.13376e-09
-1.90101e-13
1.15945e-14
1.13551e-09
-2.02202e-13
1.79202e-13
1.13732e-09
-2.20399e-13
1.74098e-13
1.139e-09
-1.88222e-13
2.6533e-13
1.14036e-09
-1.48676e-13
2.85048e-13
1.14142e-09
-7.81329e-14
3.27971e-13
1.14195e-09
3.39712e-13
1.14228e-09
-5.30032e-11
1.63264e-11
-1.4485e-11
1.4044e-11
1.02199e-10
-1.46164e-12
1.85966e-12
8.85621e-10
4.7036e-11
5.89718e-11
-4.81785e-11
-5.89606e-11
-3.56456e-14
-4.38039e-13
1.14572e-09
-2.00188e-13
-1.71419e-14
1.13526e-09
8.68655e-14
-4.21084e-13
1.12764e-09
7.94676e-15
1.05226e-13
1.1299e-09
-2.11518e-14
-1.87304e-14
1.13298e-09
-2.30529e-14
1.31781e-13
1.13552e-09
-2.2885e-14
1.26864e-13
1.13776e-09
-2.30579e-14
2.34894e-13
1.13952e-09
-1.77597e-14
2.57688e-13
1.14058e-09
-1.05537e-14
3.07662e-13
1.141e-09
3.23848e-13
1.14126e-09
-3.53341e-11
-1.87379e-12
-1.13289e-11
-3.10667e-12
5.16435e-11
-1.67165e-13
5.84552e-11
7.50791e-10
5.85079e-11
6.28797e-11
-5.79686e-11
-6.19606e-11
4.38734e-11
-5.72835e-11
-4.44712e-11
1.2379e-12
-1.82202e-12
1.13798e-09
-1.97965e-13
1.42135e-12
1.14244e-09
-9.9386e-14
-5.62899e-13
1.12315e-09
-1.17119e-13
8.91776e-14
1.12504e-09
-9.20862e-14
-9.66925e-14
1.13e-09
-1.24354e-13
1.21893e-13
1.13373e-09
-1.88807e-13
1.45278e-13
1.13677e-09
-1.54821e-13
1.72395e-13
1.13883e-09
-1.43783e-13
2.149e-13
1.13979e-09
-7.47563e-14
2.1991e-13
1.13987e-09
2.39465e-13
1.13991e-09
-7.2554e-11
1.14632e-11
-1.43881e-11
6.04757e-12
1.27886e-10
-1.81963e-12
1.20385e-12
8.84657e-10
4.52889e-11
5.28732e-11
-4.63089e-11
-5.30534e-11
5.73943e-13
-9.82995e-13
1.13137e-09
5.53687e-13
-5.7897e-13
1.12576e-09
4.13935e-13
1.88155e-13
1.12336e-09
8.31337e-14
1.89326e-13
1.12763e-09
1.60987e-13
-2.18063e-15
1.13222e-09
1.91482e-13
5.03284e-14
1.13635e-09
1.4399e-13
1.54841e-13
1.13886e-09
1.07063e-13
1.85624e-13
1.1395e-09
5.49909e-14
2.08962e-13
1.13881e-09
2.33736e-13
1.13821e-09
-1.38358e-11
2.64493e-12
-1.23446e-11
2.35355e-11
9.65202e-13
4.33056e-11
7.22881e-10
5.68489e-11
5.06347e-11
-5.63683e-11
-5.08666e-11
3.37343e-11
-4.23425e-11
-3.46944e-11
9.72997e-13
-9.65885e-13
1.1243e-09
-1.43105e-12
1.8136e-12
1.13144e-09
7.08953e-15
-1.24768e-12
1.14236e-09
1.44524e-13
2.48757e-14
1.13513e-09
1.17285e-14
1.02091e-13
1.13371e-09
-4.1636e-13
4.31942e-13
1.13642e-09
-3.1109e-13
1.19416e-14
1.13913e-09
-2.95985e-13
1.29571e-13
1.13931e-09
-1.41084e-13
1.61883e-14
1.1371e-09
6.0558e-14
1.13517e-09
-1.25814e-11
1.06423e-11
4.52448e-11
-1.21164e-12
5.05745e-11
7.21618e-10
3.38881e-11
4.33377e-11
-3.48378e-11
-4.23651e-11
5.68403e-11
-5.08097e-11
-5.63594e-11
1.81027e-12
5.30125e-11
8.84025e-10
4.53412e-11
-5.31916e-11
-4.63643e-11
4.2905e-13
1.55387e-13
1.13754e-09
-9.94381e-13
1.44817e-12
1.14544e-09
1.27863e-13
-1.0378e-12
1.15306e-09
6.27653e-13
-1.02214e-13
1.14545e-09
3.96365e-13
1.91007e-13
1.14328e-09
2.75712e-13
1.95433e-13
1.13993e-09
1.47489e-13
8.33416e-14
1.13453e-09
1.50124e-13
1.13025e-09
-1.55359e-11
1.89031e-11
4.72072e-11
-4.11868e-11
-6.88065e-12
2.97831e-13
1.02185e-11
9.05616e-11
-1.86285e-12
6.28888e-11
7.50514e-10
4.38243e-11
5.84163e-11
-4.44259e-11
-5.72492e-11
5.85204e-11
-6.19672e-11
-5.79825e-11
7.34006e-13
5.89817e-11
8.85378e-10
4.70432e-11
-5.89736e-11
-4.81897e-11
-4.94886e-13
2.25877e-13
1.13316e-09
-1.953e-12
1.35634e-12
1.15578e-09
-8.39112e-13
-9.25305e-13
1.16713e-09
-6.42675e-13
4.29503e-15
1.15235e-09
-2.74424e-13
-3.01919e-13
1.13581e-09
-1.27885e-13
1.12796e-09
-5.6694e-11
5.80942e-12
-4.47955e-12
1.08502e-11
1.07404e-10
-4.3336e-11
5.54886e-12
-6.97723e-12
1.27159e-11
9.10319e-11
-7.66229e-13
6.16707e-11
7.25829e-10
4.47685e-11
6.50741e-11
-4.53051e-11
-6.4697e-11
5.79944e-11
-6.09281e-11
-5.7548e-11
2.04649e-12
5.50961e-11
9.05145e-10
4.66307e-11
-5.52349e-11
-4.79628e-11
8.87155e-13
2.30115e-13
1.16337e-09
6.455e-13
2.54199e-13
1.18454e-09
3.04013e-13
2.66934e-14
1.13821e-09
1.72507e-13
1.12511e-09
-1.87596e-11
-2.92258e-12
-4.90531e-12
2.65875e-11
-6.91377e-11
1.14163e-11
-8.43445e-12
8.00092e-12
1.19825e-10
-4.42562e-11
5.85145e-12
-7.03069e-12
1.00608e-11
9.0472e-11
-9.08101e-13
4.83581e-11
7.65107e-10
4.45358e-11
5.78704e-11
-4.49344e-11
-5.67293e-11
4.27265e-11
-4.82518e-11
-4.23942e-11
-1.75313e-14
4.01306e-11
9.78668e-10
5.74844e-11
-4.07781e-11
-5.74342e-11
-2.09781e-13
6.60614e-11
8.81829e-10
6.47055e-11
-6.59672e-11
-6.45481e-11
6.28276e-11
8.76337e-10
6.20404e-11
-6.28317e-11
-6.20445e-11
-2.41926e-11
3.43372e-12
6.9531e-12
6.21647e-11
-4.21394e-11
-7.70253e-12
-9.95837e-13
9.09686e-11
-5.19196e-11
4.37171e-12
-1.51787e-12
1.30608e-11
1.02067e-10
-4.8474e-11
-9.53631e-13
1.08462e-12
1.43744e-11
9.67967e-11
-4.16075e-11
-1.43687e-11
-5.88209e-13
5.65652e-11
-2.22944e-13
2.12e-13
8.76647e-10
6.2063e-11
6.29066e-11
-6.20574e-11
-6.29034e-11
6.02868e-14
-3.15842e-13
1.12543e-09
-2.63039e-13
2.84203e-13
1.12818e-09
-2.2641e-13
-1.49295e-13
1.13048e-09
-4.37315e-13
1.51867e-13
1.13529e-09
-4.81298e-13
-5.37904e-14
1.13835e-09
-5.91407e-13
9.83143e-14
1.13993e-09
-6.27765e-13
3.98484e-14
1.14126e-09
-6.5715e-13
1.18147e-13
1.14217e-09
-6.14702e-13
1.12911e-13
1.14317e-09
-5.58065e-13
1.6985e-13
1.14407e-09
-4.11909e-13
1.69298e-13
1.14506e-09
-2.34046e-13
2.09297e-13
1.14601e-09
2.12292e-13
1.14682e-09
-3.4968e-11
1.40852e-12
-1.42169e-11
-2.03586e-12
4.98122e-11
-5.59281e-14
2.06116e-14
8.82573e-10
6.48039e-11
6.6152e-11
-6.46382e-11
-6.60559e-11
2.28397e-13
-6.44369e-13
1.13891e-09
-1.81308e-13
6.53675e-13
1.13624e-09
-1.65047e-13
-2.67671e-13
1.13487e-09
-3.99846e-13
3.29791e-13
1.13731e-09
-4.51449e-13
-9.195e-14
1.13899e-09
-5.69342e-13
2.09062e-13
1.13993e-09
-6.09015e-13
8.31673e-14
1.14102e-09
-6.37614e-13
2.36581e-13
1.14187e-09
-5.9916e-13
2.2102e-13
1.14288e-09
-5.46058e-13
3.207e-13
1.1438e-09
-4.04833e-13
3.24082e-13
1.14474e-09
-2.28124e-13
3.84564e-13
1.14556e-09
3.90006e-13
1.14605e-09
-8.72222e-12
1.9667e-12
-8.4635e-12
1.5219e-11
-2.74204e-13
9.08854e-13
9.79132e-10
5.75474e-11
4.01557e-11
-5.74933e-11
-4.07963e-11
-4.96819e-14
-8.84258e-13
1.18508e-09
-2.99226e-13
8.75914e-13
1.15276e-09
-2.73499e-13
-3.88081e-13
1.1403e-09
-3.65077e-13
3.51741e-13
1.13957e-09
-4.3381e-13
-1.1257e-13
1.13972e-09
-4.99919e-13
2.34015e-13
1.1399e-09
-5.4613e-13
1.18347e-13
1.14063e-09
-5.58189e-13
3.12361e-13
1.14137e-09
-5.30709e-13
3.02069e-13
1.14235e-09
-4.60455e-13
4.28448e-13
1.14328e-09
-3.39487e-13
4.43105e-13
1.14416e-09
-1.87994e-13
5.2826e-13
1.14476e-09
5.36808e-13
1.14508e-09
-2.37049e-13
5.78807e-11
7.65231e-10
4.27413e-11
4.83741e-11
-4.24085e-11
-4.82648e-11
4.45435e-11
-5.67465e-11
-4.49362e-11
8.72126e-13
-2.01448e-12
1.1637e-09
-2.73841e-13
2.00114e-12
1.16745e-09
-1.30568e-13
-6.25623e-13
1.14362e-09
-3.15749e-13
4.73706e-13
1.13939e-09
-3.69664e-13
-1.52328e-13
1.13909e-09
-4.60301e-13
2.85607e-13
1.13896e-09
-5.08126e-13
1.38293e-13
1.1396e-09
-5.26985e-13
3.70851e-13
1.14038e-09
-5.05619e-13
3.58419e-13
1.14147e-09
-4.47536e-13
4.95521e-13
1.14245e-09
-3.37311e-13
5.18518e-13
1.14326e-09
-1.84528e-13
5.89974e-13
1.1438e-09
6.01512e-13
1.14409e-09
-6.42825e-11
6.5145e-12
-1.35455e-11
1.24073e-11
1.16787e-10
-1.41037e-12
8.3072e-13
9.05307e-10
4.66507e-11
5.51159e-11
-4.79715e-11
-5.52411e-11
4.01494e-14
5.20053e-13
1.15603e-09
-5.31569e-13
-1.27553e-13
1.14575e-09
-1.74819e-13
3.16668e-14
1.13669e-09
-3.16973e-13
-9.90478e-14
1.13656e-09
-3.18802e-13
2.26664e-13
1.13691e-09
-3.83831e-13
1.48041e-13
1.13787e-09
-3.82353e-13
3.65066e-13
1.13903e-09
-3.69548e-13
3.72251e-13
1.14034e-09
-3.13474e-13
5.16766e-13
1.14141e-09
-2.32648e-13
5.47455e-13
1.14235e-09
-1.2355e-13
6.26011e-13
1.14288e-09
6.41358e-13
1.14319e-09
-2.93526e-11
-2.55075e-12
-9.68199e-12
-8.46335e-13
4.24317e-11
-2.26994e-13
6.50981e-11
7.25923e-10
5.80115e-11
6.16872e-11
-5.75581e-11
-6.09428e-11
4.47931e-11
-6.47227e-11
-4.53183e-11
1.02171e-12
-7.27945e-13
1.13336e-09
-1.8366e-13
1.03387e-12
1.15333e-09
-1.06814e-13
-1.16331e-13
1.13395e-09
-2.6832e-13
-2.14473e-14