/*--------------------------------*- C++ -*----------------------------------*\
| =========                 |                                                 |
| \\      /  F ield         | OpenFOAM: The Open Source CFD Toolbox           |
|  \\    /   O peration     | Version:  2.1.1                                 |
|   \\  /    A nd           | Web:      www.OpenFOAM.org                      |
|    \\/     M anipulation  |                                                 |
\*---------------------------------------------------------------------------*/
FoamFile
{
    version     2.0;
    format      ascii;
    class       volScalarField;
    location    "0.0035";
    object      p;
}
// * * * * * * * * * * * * * * * * * * * * * * * * * * * * * * * * * * * * * //

dimensions      [0 2 -2 0 0 0 0];

internalField   nonuniform List<scalar> 
10154
(
0.0867984
0.08658
0.0848246
0.0864681
0.082814
0.0826551
0.0864507
0.0828648
0.0827218
0.0826801
0.0827713
0.082406
0.0824559
0.0902122
0.0829103
0.0827536
0.0825305
0.0825237
0.0824503
0.0824642
0.0825199
0.0825149
0.0865495
0.0829953
0.0825348
0.0825862
0.0825768
0.0825682
0.0825147
0.0825482
0.0824451
0.0824624
0.0865483
0.0829761
0.0824326
0.0826703
0.0825361
0.0825414
0.0824864
0.0824763
0.0824709
0.0824743
0.0824749
0.0902066
0.0829941
0.0824277
0.0827039
0.082511
0.0825662
0.0825116
0.0825229
0.0824793
0.0824819
0.0824533
0.0824611
0.0829123
0.0825318
0.0826632
0.082508
0.0825678
0.0825002
0.0825076
0.0824799
0.0824715
0.0824687
0.0824718
0.0824698
0.086453
0.0827503
0.0825815
0.0825293
0.0825614
0.0824979
0.0825169
0.0824851
0.0824907
0.0824727
0.082478
0.0824666
0.0824679
0.082861
0.0825263
0.0825716
0.0825342
0.0825044
0.0825045
0.0824843
0.0824857
0.0824766
0.0824768
0.0824752
0.0824752
0.082475
0.0865751
0.0827153
0.0825161
0.0825623
0.0824807
0.0825142
0.0824782
0.0824898
0.0824759
0.082482
0.0824772
0.082481
0.0824784
0.0824798
0.0848184
0.0826731
0.082443
0.0825098
0.0824707
0.0824758
0.0824748
0.0824722
0.0824757
0.0824767
0.0824808
0.082483
0.0824852
0.0824861
0.0864615
0.082765
0.0824581
0.082541
0.0824674
0.082486
0.0824683
0.0824759
0.0824735
0.08248
0.0824825
0.0824871
0.0824886
0.0824898
0.0828071
0.0824006
0.0825139
0.0824403
0.08247
0.0824501
0.0824635
0.0824627
0.082473
0.0824772
0.0824844
0.0824883
0.0824906
0.082491
0.0867967
0.0826524
0.0824518
0.0825116
0.0824587
0.0824717
0.0824566
0.082462
0.0824642
0.082473
0.0824785
0.0824852
0.0824893
0.0824908
0.0824897
0.0858196
0.0854256
0.0830016
0.0843772
0.0811949
0.0810272
0.0844736
0.081277
0.0811227
0.0811574
0.0811569
0.0809318
0.0809898
0.0892518
0.0813035
0.0811937
0.0810401
0.0810469
0.0810021
0.0809847
0.081064
0.0810463
0.084538
0.0814515
0.0810115
0.0810994
0.0811176
0.0811097
0.0811006
0.0811071
0.0810588
0.0810699
0.0845324
0.081467
0.0809049
0.0812248
0.0810992
0.0811273
0.0811004
0.0811076
0.0810972
0.0811112
0.0811092
0.0892471
0.0814374
0.0808862
0.0812375
0.0810785
0.0811535
0.0811231
0.0811465
0.0811399
0.0811473
0.081135
0.081139
0.0812991
0.0809976
0.0811932
0.0810698
0.081169
0.0811274
0.0811605
0.0811502
0.0811643
0.0811635
0.081171
0.0811702
0.084473
0.0811895
0.0810909
0.0810852
0.0811439
0.0811242
0.0811631
0.0811605
0.0811792
0.0811814
0.081191
0.0811911
0.0811937
0.0812748
0.0810355
0.0811116
0.0811202
0.0811181
0.0811574
0.0811595
0.0811849
0.0811893
0.081204
0.0812083
0.0812154
0.0812168
0.0854216
0.0811159
0.0810406
0.0811034
0.0810947
0.0811423
0.0811475
0.0811777
0.0811886
0.0812068
0.0812162
0.0812261
0.0812308
0.081234
0.0829954
0.081151
0.0809954
0.0810929
0.0811016
0.0811358
0.0811619
0.0811799
0.0812029
0.0812157
0.081231
0.0812392
0.0812468
0.0812495
0.0843713
0.0811516
0.0809802
0.081105
0.0810934
0.081144
0.0811608
0.081189
0.0812069
0.0812252
0.0812388
0.0812495
0.0812566
0.08126
0.0811896
0.0809272
0.0810596
0.0810556
0.0811079
0.081132
0.0811677
0.0811885
0.0812136
0.0812297
0.0812461
0.0812562
0.081264
0.0812668
0.0858166
0.0810237
0.0809859
0.0810432
0.0810671
0.0811068
0.0811361
0.081167
0.0811912
0.081215
0.0812327
0.0812487
0.0812595
0.0812666
0.0812683
0.0844405
0.0839842
0.0814123
0.0826821
0.0795407
0.0794068
0.0828397
0.0796821
0.0795092
0.0796054
0.0795375
0.0794629
0.0795285
0.0878467
0.0797251
0.0796415
0.0795608
0.0795883
0.0795727
0.0795376
0.0796069
0.0795832
0.0829331
0.0798766
0.0795197
0.0796259
0.0796548
0.0796457
0.0796814
0.0796695
0.0796783
0.0796865
0.0829264
0.0799232
0.079424
0.079746
0.079657
0.0797246
0.0797149
0.0797457
0.079738
0.0797591
0.0797538
0.0878406
0.0798709
0.0794185
0.0797509
0.0796419
0.0797407
0.0797489
0.0797799
0.0798037
0.0798099
0.0798236
0.0798267
0.0797212
0.079513
0.0797376
0.0796377
0.0797719
0.0797587
0.0798221
0.0798284
0.0798618
0.0798653
0.0798819
0.0798828
0.0828396
0.079638
0.07962
0.0796501
0.0797359
0.0797565
0.0798155
0.0798431
0.0798747
0.0798977
0.0799119
0.0799246
0.0799287
0.0796838
0.0795571
0.0796499
0.0797188
0.0797448
0.0798196
0.0798422
0.0798918
0.0799099
0.0799393
0.0799498
0.079964
0.079967
0.0839808
0.0794997
0.0795823
0.0796404
0.07971
0.0797761
0.0798257
0.0798733
0.0799092
0.0799391
0.079963
0.0799789
0.0799909
0.0799959
0.0814055
0.0795989
0.0795671
0.0796761
0.0797404
0.0798001
0.0798592
0.0798961
0.0799383
0.0799626
0.0799889
0.0800027
0.0800156
0.08002
0.0826768
0.0795328
0.079533
0.0796646
0.07973
0.079806
0.0798628
0.0799101
0.0799485
0.0799781
0.0800025
0.0800189
0.0800309
0.0800362
0.0795368
0.0794589
0.0796033
0.0796753
0.079757
0.0798218
0.0798797
0.0799226
0.0799625
0.0799899
0.080015
0.0800305
0.0800427
0.0800475
0.0844375
0.0794026
0.0795248
0.07958
0.0796847
0.0797552
0.0798244
0.0798804
0.0799268
0.0799656
0.0799948
0.0800193
0.0800358
0.0800474
0.0800522
0.0829586
0.0824678
0.0798384
0.0810352
0.0778411
0.0777591
0.0812543
0.0780863
0.0778656
0.0780399
0.077882
0.0779954
0.0780609
0.0863138
0.0781596
0.0781021
0.0780819
0.0781232
0.0781322
0.0780907
0.0781385
0.0781199
0.0813922
0.0783073
0.0780125
0.0781418
0.0781827
0.0781769
0.0782651
0.0782263
0.0783074
0.0783126
0.0813854
0.0783769
0.0779387
0.0782666
0.0782201
0.0783293
0.0783396
0.078395
0.0783865
0.0784185
0.0784136
0.086308
0.0783041
0.0779376
0.0782591
0.0782124
0.0783332
0.0783792
0.0784239
0.0784822
0.0784783
0.0785233
0.0785261
0.0781565
0.0780091
0.0782632
0.0782109
0.0783785
0.0783985
0.0784927
0.0785177
0.0785712
0.0785803
0.0786068
0.0786026
0.081254
0.0780994
0.0781372
0.0782155
0.0783303
0.078397
0.0784771
0.0785352
0.0785798
0.0786239
0.0786429
0.0786685
0.0786732
0.078088
0.0780793
0.0781796
0.0783255
0.0783764
0.0784909
0.0785346
0.0786083
0.07864
0.0786839
0.0787005
0.0787218
0.0787264
0.0824644
0.0778575
0.0781183
0.0781729
0.0783365
0.0784212
0.0785155
0.0785786
0.0786395
0.0786803
0.0787185
0.07874
0.0787594
0.0787661
0.0798327
0.0780347
0.0781281
0.0782614
0.0783921
0.0784804
0.0785682
0.0786222
0.078683
0.0787181
0.078755
0.0787744
0.0787923
0.0787983
0.081031
0.0778784
0.0780866
0.0782224
0.0783822
0.0784741
0.0785769
0.0786412
0.0786995
0.0787394
0.0787742
0.078796
0.0788128
0.0788198
0.0778389
0.077992
0.0781359
0.0783047
0.078416
0.0785206
0.0786031
0.0786666
0.0787205
0.0787585
0.0787917
0.0788125
0.0788287
0.0788352
0.0829556
0.0777541
0.0780574
0.0781163
0.0783101
0.0784116
0.0785245
0.0786036
0.078672
0.0787253
0.0787652
0.0787977
0.0788194
0.0788351
0.0788419
0.0814322
0.0808867
0.078155
0.0792268
0.0759709
0.0760335
0.0795901
0.0764231
0.0761405
0.0764338
0.0760801
0.0765518
0.0765988
0.0847039
0.0765259
0.0765409
0.0766103
0.0766614
0.0767037
0.0766392
0.076669
0.07666
0.0798145
0.0766812
0.0764972
0.0766369
0.076711
0.0767092
0.0768619
0.0767738
0.0769631
0.0769589
0.0798067
0.0767928
0.0764293
0.0767791
0.0767935
0.0769467
0.0769833
0.0770613
0.077056
0.0770959
0.0770888
0.0846981
0.0766763
0.0764269
0.0767521
0.0767911
0.0769346
0.0770206
0.0770723
0.0771608
0.0771763
0.0772471
0.077246
0.0765231
0.0764939
0.0767763
0.0767901
0.0769921
0.0770534
0.0771765
0.0772196
0.0772902
0.0773037
0.0773399
0.0773505
0.0795887
0.0765381
0.0766334
0.076789
0.0769323
0.0770523
0.0771524
0.0772409
0.0772976
0.0773608
0.0773837
0.077423
0.0774314
0.0764221
0.0766085
0.0767083
0.0769412
0.0770184
0.0771754
0.0772405
0.0773369
0.0773817
0.0774387
0.077461
0.077489
0.0774954
0.080884
0.0761371
0.0766577
0.0767065
0.0769842
0.0770706
0.0772185
0.0772969
0.0773814
0.0774321
0.0774834
0.0775102
0.0775364
0.0775447
0.0781519
0.0764306
0.0767012
0.0768594
0.0770597
0.0771581
0.0772906
0.0773604
0.0774381
0.0774831
0.0775296
0.0775542
0.0775767
0.0775843
0.0792247
0.0760783
0.0766357
0.0767703
0.0770528
0.0771761
0.0773045
0.0773833
0.0774604
0.0775097
0.0775541
0.0775809
0.0776022
0.0776107
0.0759718
0.0765492
0.0766675
0.0769606
0.0770934
0.0772452
0.0773405
0.0774219
0.0774879
0.0775356
0.0775762
0.0776018
0.0776216
0.0776296
0.08143
0.0760271
0.0765956
0.0766562
0.0769565
0.0770864
0.0772436
0.0773442
0.0774294
0.0774944
0.0775439
0.0775838
0.0776103
0.0776295
0.0776379
0.0798512
0.0791411
0.076219
0.0769386
0.0738517
0.0742179
0.0777286
0.0746429
0.0743141
0.0748095
0.0740471
0.0752298
0.0751962
0.0828996
0.0747467
0.0749635
0.0751617
0.0752282
0.0753264
0.0752143
0.0752252
0.0752222
0.0781576
0.0749158
0.0749754
0.0751348
0.075254
0.0752575
0.0754849
0.0753261
0.0756629
0.0756416
0.078146
0.0751184
0.0749109
0.0752778
0.0753967
0.0756065
0.0756519
0.0757621
0.0757394
0.0757936
0.0757839
0.0828939
0.0749081
0.0749072
0.0752188
0.075389
0.075559
0.0756958
0.0757707
0.075891
0.0758493
0.0759749
0.0759782
0.0747434
0.0749682
0.075275
0.0753881
0.0756213
0.0757325
0.0758833
0.0759483
0.0760322
0.0760479
0.0760925
0.0760912
0.0777264
0.074961
0.0751351
0.0753953
0.0755577
0.0757316
0.0758489
0.0759655
0.0760335
0.0761133
0.0761407
0.0761904
0.0761975
0.0746418
0.075161
0.0752536
0.0756085
0.0756946
0.0758823
0.0759652
0.0760804
0.0761373
0.0762052
0.0762327
0.0762661
0.0762736
0.0791389
0.0743118
0.0752246
0.0752535
0.0756456
0.0757683
0.0759471
0.0760328
0.0761369
0.0761962
0.0762586
0.07629
0.076322
0.0763318
0.0762177
0.0748074
0.0753246
0.0754821
0.0757596
0.0758909
0.0760309
0.0761123
0.0762046
0.0762583
0.076313
0.0763422
0.0763686
0.0763777
0.0769393
0.0740474
0.0752114
0.075322
0.075734
0.0758439
0.076045
0.0761395
0.0762321
0.0762897
0.0763421
0.0763734
0.0763985
0.0764084
0.0738577
0.0752286
0.0752249
0.0756599
0.0757889
0.0759712
0.0760893
0.0761888
0.0762651
0.0763213
0.0763682
0.0763982
0.076421
0.0764304
0.079851
0.0742091
0.0751936
0.0752186
0.0756395
0.0757826
0.0759768
0.0760912
0.0761965
0.0762729
0.0763312
0.0763772
0.0764081
0.0764303
0.0764401
0.0773119
0.0760643
0.0737797
0.0734403
0.071464
0.0722743
0.0753913
0.0727736
0.0724096
0.073106
0.0716349
0.0740206
0.0738659
0.0798395
0.072779
0.0733766
0.0737702
0.073862
0.0740406
0.0737803
0.0738357
0.0738138
0.0762463
0.0728742
0.0734513
0.0736646
0.0738192
0.073857
0.0741312
0.0739095
0.0744029
0.0743636
0.0762256
0.0732756
0.0733932
0.0737683
0.0740261
0.0742597
0.0743914
0.0744946
0.0744516
0.0745307
0.0745017
0.0798338
0.0728661
0.0733882
0.0736727
0.0740219
0.0742133
0.0743853
0.0744721
0.0746106
0.0746095
0.0747434
0.0747377
0.0727769
0.0734461
0.073765
0.0740204
0.0742781
0.0744414
0.0746096
0.0746924
0.074789
0.0748077
0.0748603
0.0748615
0.0753894
0.0733727
0.0736599
0.0740204
0.0742107
0.0744403
0.0745729
0.0747116
0.074789
0.074881
0.074912
0.0749705
0.0749793
0.0727729
0.0737688
0.0738152
0.0742522
0.0743826
0.0746084
0.0747112
0.0748408
0.0749083
0.0749839
0.0750157
0.0750535
0.0750623
0.0760625
0.0724069
0.073858
0.073855
0.0743948
0.0744714
0.0746909
0.0747882
0.0749079
0.0749743
0.0750448
0.0750803
0.0751166
0.0751276
0.0737797
0.0731038
0.0740393
0.0741292
0.0744942
0.0746089
0.0747874
0.07488
0.0749833
0.0750446
0.0751055
0.0751387
0.0751681
0.0751784
0.0734449
0.0716385
0.0737783
0.0739047
0.0744421
0.0746048
0.0748057
0.074911
0.0750151
0.0750801
0.0751386
0.0751736
0.0752017
0.0752128
0.0714772
0.0740225
0.0738372
0.0743974
0.0745101
0.0747373
0.0748583
0.0749693
0.0750527
0.075116
0.0751677
0.0752014
0.0752266
0.0752373
0.0773248
0.0722624
0.0738637
0.0738107
0.0743635
0.0745134
0.0747378
0.0748603
0.0749784
0.0750617
0.0751271
0.075178
0.0752125
0.0752372
0.0752482
0.0689681
0.05596
0.0689723
0.0666511
0.070524
0.0703742
0.0715475
0.0706501
0.0703454
0.0707477
0.070266
0.0728697
0.0726997
0.060154
0.0708059
0.0719777
0.0724727
0.0725665
0.0727983
0.0721175
0.0725865
0.0724788
0.0721668
0.0707916
0.0720996
0.0722502
0.0724533
0.0725194
0.0727732
0.072592
0.0731695
0.0731294
0.0721763
0.0712573
0.0720829
0.0723424
0.0727393
0.0730001
0.0731079
0.0732299
0.0731575
0.0732837
0.0732619
0.0601523
0.0707876
0.0720767
0.0722487
0.0727359
0.0729387
0.0731308
0.0732246
0.0733665
0.0733672
0.0735202
0.0735207
0.0708066
0.0720938
0.072339
0.0727346
0.0729954
0.0731977
0.0733687
0.0734651
0.0735629
0.0735833
0.0736444
0.0736474
0.0715461
0.0719794
0.0722396
0.0727324
0.0729364
0.0731965
0.0733363
0.0734858
0.0735696
0.0736661
0.073702
0.0737647
0.0737755
0.0706498
0.072472
0.0724483
0.0729956
0.0731286
0.0733676
0.0734854
0.0736217
0.0736971
0.0737764
0.073812
0.0738525
0.0738626
0.0559559
0.07034
0.0725602
0.0725159
0.0731062
0.0732228
0.0734637
0.0735689
0.0736968
0.0737686
0.0738435
0.0738823
0.0739209
0.0739331
0.0689738
0.0707352
0.072795
0.0727701
0.0732284
0.0733646
0.0735616
0.0736653
0.0737759
0.0738434
0.073908
0.0739444
0.0739757
0.073987
0.0666587
0.0702825
0.0721176
0.0725906
0.0731536
0.0733654
0.0735819
0.0737013
0.0738115
0.0738821
0.0739444
0.0739823
0.0740122
0.0740242
0.0705374
0.0728765
0.0725911
0.0731685
0.0732811
0.073518
0.073643
0.0737637
0.0738517
0.0739204
0.0739753
0.0740119
0.0740389
0.0740504
0.0689846
0.0703651
0.072698
0.0724764
0.0731284
0.0732614
0.0735199
0.0736466
0.0737748
0.0738621
0.0739327
0.0739867
0.074024
0.0740503
0.0740623
0.0769361
0.0729516
0.066708
0.0664677
0.0691972
0.0676458
0.0705929
0.0703183
0.0708254
0.0687843
0.0701189
0.0706946
0.0700708
0.0707707
0.0718277
0.0716303
0.0716589
0.0708075
0.0710762
0.0713059
0.0714078
0.0713517
0.0710103
0.0715408
0.071418
0.0700752
0.069889
0.0709447
0.0711134
0.0713332
0.0714675
0.0715741
0.071596
0.0720096
0.0719852
0.0701107
0.0689682
0.0709814
0.0711665
0.0716026
0.0717922
0.0719279
0.0720029
0.0719617
0.0721037
0.0720858
0.0716617
0.0698916
0.0709719
0.0711416
0.0715754
0.071762
0.071943
0.072047
0.0721667
0.072198
0.0723329
0.0723398
0.0708254
0.0708129
0.0709421
0.0711655
0.0715756
0.0718073
0.0720155
0.0721717
0.0722737
0.0723636
0.0723913
0.0724536
0.0724593
0.0687838
0.0710946
0.071115
0.0715994
0.0717609
0.0720146
0.072149
0.0722955
0.0723816
0.0724747
0.0725163
0.0725769
0.0725895
0.0667053
0.0701114
0.0712804
0.0713277
0.0717898
0.0719417
0.0721709
0.0722953
0.0724286
0.0725078
0.072586
0.0726245
0.0726654
0.0726766
0.0664705
0.0706904
0.0713982
0.0714631
0.0719253
0.0720456
0.0722726
0.072381
0.0725076
0.0725818
0.0726568
0.0726978
0.0727366
0.0727496
0.0692004
0.0700686
0.0713501
0.0715708
0.0720015
0.0721654
0.0723628
0.0724741
0.0725856
0.0726567
0.0727222
0.0727607
0.0727926
0.0728047
0.0676551
0.070776
0.0710104
0.071596
0.0719599
0.0721971
0.0723903
0.0725157
0.0726241
0.0726976
0.0727607
0.0728004
0.0728309
0.0728435
0.0769525
0.070606
0.0718334
0.0715449
0.0720099
0.0721034
0.0723319
0.0724528
0.0725762
0.0726648
0.0727361
0.0727923
0.0728307
0.0728584
0.0728705
0.0729579
0.070312
0.0716302
0.0714167
0.0719848
0.0720852
0.0723393
0.0724588
0.0725891
0.0726762
0.0727493
0.0728045
0.0728434
0.0728705
0.072883
0.0738531
0.0726586
0.0719142
0.0709377
0.0685648
0.0689092
0.0700579
0.0698241
0.0731937
0.071363
0.0699468
0.0703171
0.0699368
0.0704838
0.0707446
0.0706457
0.074666
0.0702945
0.0703802
0.0703148
0.070434
0.0703044
0.0702233
0.0705578
0.070477
0.068539
0.0696164
0.0699589
0.070157
0.0703729
0.0705415
0.0705579
0.0706866
0.0709011
0.0709015
0.0685454
0.0689869
0.0701278
0.0702546
0.0705752
0.0706883
0.0708143
0.0708636
0.0708635
0.07098
0.0709717
0.0746659
0.0696177
0.0701244
0.0703086
0.0705397
0.0706842
0.0708318
0.070935
0.071028
0.071081
0.0711808
0.0711937
0.0731925
0.0702945
0.0699591
0.0702552
0.0705407
0.0707222
0.0708994
0.0710269
0.0711229
0.0712006
0.0712347
0.0712909
0.0712991
0.071362
0.0703807
0.0701573
0.070574
0.0706841
0.0708989
0.0710146
0.071145
0.071227
0.0713108
0.0713554
0.071409
0.0714228
0.0719123
0.069944
0.0703094
0.07037
0.070687
0.0708313
0.0710265
0.0711449
0.0712655
0.0713429
0.0714157
0.0714553
0.0714941
0.071506
0.070938
0.0703152
0.0704301
0.0705392
0.0708122
0.0709341
0.0711222
0.0712267
0.0713427
0.0714155
0.0714865
0.0715279
0.0715649
0.0715782
0.0685678
0.0699367
0.0703041
0.0705564
0.0708628
0.0710272
0.0712
0.0713104
0.0714154
0.0714864
0.0715498
0.0715889
0.0716201
0.0716325
0.0689146
0.0704868
0.0702237
0.070687
0.0708629
0.0710806
0.0712341
0.071355
0.071455
0.0715277
0.0715888
0.0716288
0.0716588
0.0716716
0.0738661
0.0700673
0.0707486
0.0705609
0.0709018
0.0709802
0.0711805
0.0712904
0.0714085
0.0714936
0.0715645
0.0716199
0.0716587
0.0716861
0.0716984
0.0726675
0.0698228
0.070647
0.0704769
0.0709017
0.0709715
0.0711934
0.0712988
0.0714225
0.0715057
0.0715779
0.0716323
0.0716714
0.0716984
0.071711
0.0730543
0.0720523
0.0723529
0.0715427
0.0687779
0.0687796
0.0692237
0.0691554
0.0729806
0.0712796
0.0693401
0.0694668
0.0693381
0.0695333
0.0696617
0.0696512
0.0739878
0.0695761
0.0695742
0.0694343
0.0695073
0.0694225
0.0693827
0.0695757
0.0695358
0.0686547
0.0694037
0.0692424
0.0693465
0.0694653
0.0695853
0.069602
0.0697035
0.0698223
0.0698371
0.0686552
0.0691278
0.0694932
0.0694769
0.069629
0.0696686
0.0697567
0.0697933
0.0698081
0.0698922
0.0698912
0.0739866
0.0694067
0.0694927
0.0695449
0.0696038
0.0696847
0.0697798
0.0698629
0.0699327
0.0699863
0.0700565
0.0700717
0.0729749
0.0695595
0.0692605
0.0694817
0.0696054
0.0697215
0.0698395
0.0699303
0.0700086
0.0700719
0.0701066
0.0701534
0.0701628
0.0712764
0.0695705
0.0693486
0.0696299
0.0696853
0.0698394
0.069926
0.0700306
0.0701016
0.0701726
0.0702155
0.0702602
0.0702741
0.0723516
0.0693389
0.0694327
0.0694645
0.0696685
0.0697799
0.0699302
0.0700307
0.0701317
0.0702016
0.070266
0.0703041
0.070339
0.070351
0.0715428
0.0694661
0.069506
0.0695844
0.0697559
0.0698626
0.0700082
0.0701015
0.0702015
0.0702689
0.070333
0.0703727
0.0704064
0.0704194
0.0687801
0.0693385
0.0694229
0.0696017
0.0697931
0.0699324
0.0700716
0.0701724
0.0702658
0.0703329
0.0703917
0.0704296
0.0704591
0.0704711
0.0687826
0.0695353
0.0693832
0.0697039
0.069808
0.0699862
0.0701063
0.0702153
0.0703039
0.0703726
0.0704296
0.0704683
0.0704967
0.0705092
0.0730612
0.0692293
0.0696645
0.069578
0.0698231
0.0698926
0.0700565
0.0701532
0.0702599
0.0703387
0.0704061
0.0704589
0.0704966
0.0705231
0.0705352
0.0720575
0.069156
0.0696528
0.0695363
0.0698375
0.0698913
0.0700716
0.0701627
0.0702738
0.0703507
0.0704192
0.070471
0.0705091
0.0705352
0.0705475
0.0722951
0.0712267
0.0717916
0.0711163
0.0682898
0.068089
0.0683874
0.0683655
0.0723005
0.0706519
0.0685291
0.0685235
0.068391
0.0685091
0.0686109
0.0686191
0.0729245
0.0687039
0.0686612
0.0685036
0.0685401
0.068501
0.0684695
0.0685897
0.0685719
0.0685334
0.068689
0.0684495
0.0684882
0.0685417
0.0686049
0.0686155
0.0686831
0.0687581
0.0687741
0.0685309
0.0685762
0.0686264
0.0686111
0.0686671
0.0686693
0.0687229
0.068748
0.0687646
0.0688225
0.0688247
0.072925
0.0686893
0.0686263
0.0686562
0.068652
0.0686939
0.068749
0.0688074
0.0688575
0.068902
0.0689513
0.0689655
0.0722964
0.0687015
0.0684512
0.068613
0.0686529
0.068728
0.0687987
0.0688601
0.0689183
0.0689676
0.0689986
0.0690357
0.069045
0.0706492
0.0686596
0.0684886
0.0686677
0.0686944
0.0687987
0.0688604
0.0689394
0.0689968
0.0690542
0.0690921
0.0691281
0.069141
0.0717909
0.0685288
0.0685031
0.0685417
0.0686696
0.0687493
0.0688602
0.0689394
0.0690203
0.0690798
0.0691344
0.0691691
0.0691993
0.0692104
0.0711166
0.0685235
0.0685401
0.0686048
0.0687228
0.0688074
0.0689182
0.0689968
0.0690797
0.0691392
0.069195
0.0692313
0.0692609
0.069273
0.0682914
0.0683917
0.0685019
0.0686159
0.0687482
0.0688576
0.0689675
0.0690541
0.0691344
0.0691949
0.0692476
0.0692829
0.0693096
0.0693211
0.0680911
0.0685106
0.06847
0.0686835
0.0687647
0.0689021
0.0689985
0.0690921
0.069169
0.0692312
0.0692828
0.069319
0.0693451
0.069357
0.0722992
0.0683907
0.0686129
0.0685912
0.0687589
0.0688229
0.0689514
0.0690356
0.069128
0.069199
0.0692607
0.0693095
0.069345
0.0693698
0.0693814
0.07123
0.0683665
0.0686203
0.0685724
0.0687745
0.0688249
0.0689656
0.0690449
0.0691408
0.0692102
0.0692728
0.0693209
0.0693568
0.0693814
0.0693931
0.0714219
0.070305
0.0709448
0.0703773
0.0674945
0.067293
0.0675035
0.0674808
0.0714337
0.0697971
0.0676277
0.067558
0.0674141
0.0675194
0.0675651
0.0675771
0.0718121
0.0677487
0.0676802
0.0675308
0.0675496
0.0675416
0.0675121
0.0675907
0.0675843
0.0677101
0.0676588
0.0675136
0.0675389
0.0675785
0.0676069
0.0676063
0.0676528
0.0676977
0.0677111
0.0677148
0.0675101
0.0676139
0.0676349
0.0676633
0.0676567
0.0676889
0.0677069
0.0677213
0.0677601
0.0677639
0.0718148
0.0676592
0.0676146
0.0676624
0.0676502
0.0676808
0.0677157
0.0677553
0.0677902
0.0678244
0.0678586
0.0678706
0.0714328
0.0677482
0.0675138
0.0676359
0.0676506
0.0677087
0.0677543
0.0677977
0.0678401
0.0678779
0.0679038
0.0679323
0.0679408
0.0697963
0.06768
0.0675391
0.0676639
0.0676812
0.0677544
0.0678
0.0678592
0.0679045
0.0679498
0.0679816
0.0680099
0.0680211
0.0709448
0.0676279
0.0675309
0.0675789
0.0676572
0.0677161
0.0677979
0.0678593
0.0679232
0.0679722
0.0680174
0.0680476
0.0680729
0.068083
0.0703778
0.0675587
0.0675506
0.0676074
0.0676892
0.0677556
0.0678402
0.0679046
0.0679722
0.0680229
0.0680702
0.0681022
0.0681276
0.0681385
0.0674959
0.0674152
0.0675446
0.0676072
0.0677073
0.0677904
0.067878
0.0679498
0.0680174
0.0680702
0.0681162
0.0681479
0.0681717
0.0681823
0.0672945
0.0675203
0.0675106
0.067653
0.0677216
0.0678247
0.0679039
0.0679816
0.0680475
0.0681022
0.0681479
0.0681806
0.0682041
0.068215
0.0714246
0.0675055
0.0675665
0.0675913
0.0676983
0.0677605
0.0678589
0.0679323
0.0680099
0.0680728
0.0681274
0.0681716
0.068204
0.0682267
0.0682373
0.0703073
0.0674819
0.0675781
0.0675848
0.0677116
0.0677642
0.0678707
0.0679408
0.068021
0.0680828
0.0681383
0.0681821
0.0682149
0.0682372
0.0682479
0.0704947
0.0693525
0.0700063
0.0695133
0.0665948
0.0664113
0.0665552
0.0665369
0.0704996
0.0688596
0.0666714
0.0665641
0.0664322
0.0665156
0.0665224
0.0665369
0.0707613
0.066752
0.0666639
0.0665309
0.0665418
0.0665491
0.0665293
0.0665799
0.0665777
0.0667529
0.0666205
0.066524
0.0665408
0.0665817
0.0665898
0.0665836
0.066616
0.0666403
0.0666511
0.0667565
0.0664524
0.0665991
0.066615
0.0666369
0.0666289
0.0666488
0.0666637
0.0666748
0.0667015
0.0667058
0.0707633
0.0666194
0.0666002
0.0666328
0.0666238
0.0666487
0.0666743
0.0667015
0.066726
0.0667515
0.0667749
0.0667845
0.0705003
0.0667519
0.0665241
0.066616
0.066624
0.0666708
0.0667032
0.0667359
0.0667673
0.0667967
0.0668177
0.0668394
0.0668467
0.0688601
0.0666647
0.0665412
0.0666379
0.0666491
0.0667034
0.0667385
0.066784
0.0668195
0.0668551
0.0668809
0.066903
0.0669123
0.0700068
0.0666721
0.0665313
0.0665824
0.0666295
0.0666747
0.0667361
0.0667841
0.0668348
0.0668745
0.0669117
0.0669372
0.0669581
0.0669669
0.0695141
0.066565
0.0665427
0.0665904
0.0666493
0.0667019
0.0667675
0.0668197
0.0668746
0.066917
0.0669565
0.0669839
0.0670053
0.0670148
0.0665959
0.0664331
0.06655
0.0665844
0.0666642
0.0667263
0.0667969
0.0668552
0.0669117
0.0669565
0.066996
0.0670238
0.0670445
0.0670539
0.0664125
0.0665166
0.0665299
0.0666165
0.0666753
0.0667518
0.0668179
0.066881
0.0669372
0.0669839
0.0670238
0.0670526
0.0670732
0.067083
0.0704967
0.0665566
0.0665235
0.0665807
0.066641
0.0667019
0.0667752
0.0668395
0.066903
0.0669581
0.0670052
0.0670444
0.0670732
0.0670933
0.0671026
0.0693542
0.0665379
0.0665378
0.0665783
0.0666516
0.0667062
0.0667847
0.0668468
0.0669122
0.0669668
0.0670147
0.0670538
0.0670828
0.0671025
0.0671117
0.0695884
0.068429
0.0690821
0.0686343
0.0656044
0.0654445
0.0655515
0.0655395
0.0695824
0.0679209
0.0656551
0.0655343
0.065423
0.0654909
0.0654805
0.0654942
0.0697952
0.0657067
0.0656132
0.0655047
0.065513
0.0655361
0.0655193
0.0655547
0.0655543
0.0657752
0.0655723
0.0655061
0.065514
0.0655583
0.065556
0.0655501
0.0655722
0.0655853
0.0655937
0.0657285
0.0654154
0.0655714
0.0655752
0.065595
0.0655888
0.0656026
0.065617
0.0656254
0.0656447
0.0656487
0.0697943
0.0655671
0.0655729
0.0655872
0.0655845
0.0656039
0.0656256
0.0656449
0.0656629
0.0656816
0.0656978
0.0657052
0.0695847
0.0657067
0.0655072
0.0655765
0.0655848
0.065622
0.0656472
0.0656732
0.0656973
0.0657208
0.0657376
0.0657543
0.0657604
0.0679226
0.0656149
0.0655148
0.0655963
0.0656044
0.0656475
0.0656753
0.0657114
0.0657393
0.0657674
0.065788
0.0658052
0.0658127
0.069083
0.0656563
0.0655053
0.0655594
0.0655896
0.0656261
0.0656735
0.0657115
0.0657521
0.0657842
0.0658146
0.0658358
0.065853
0.0658605
0.0686353
0.0655354
0.065514
0.0655568
0.0656033
0.0656453
0.0656975
0.0657395
0.0657843
0.0658192
0.0658519
0.065875
0.0658928
0.0659009
0.0656054
0.0654239
0.0655369
0.0655509
0.0656175
0.0656634
0.0657211
0.0657676
0.0658147
0.065852
0.0658856
0.0659094
0.0659271
0.0659351
0.0654453
0.0654919
0.06552
0.0655729
0.0656259
0.065682
0.0657378
0.0657881
0.0658359
0.065875
0.0659094
0.0659341
0.0659519
0.0659602
0.0695898
0.0655524
0.0654815
0.0655555
0.065586
0.0656452
0.0656982
0.0657545
0.0658053
0.065853
0.0658928
0.065927
0.0659519
0.0659692
0.0659768
0.0684301
0.0655404
0.065495
0.065555
0.0655941
0.0656491
0.0657054
0.0657605
0.0658127
0.0658604
0.0659008
0.065935
0.0659601
0.0659767
0.0659834
0.0777658
0.0687699
0.066047
0.0663399
0.0641818
0.0754107
0.0759635
0.0674928
0.0669508
0.0763509
0.07691
0.0652577
0.0646474
0.073281
0.0636891
0.0551898
0.0774161
0.0652957
0.0677304
0.0770471
0.0806422
0.0664296
0.0689548
0.0528379
0.0655237
0.0666638
0.0667267
0.0786296
0.0672908
0.0688003
0.0596398
0.0741218
0.0559402
0.0754674
0.0728321
0.0646343
0.0665105
0.0604625
0.0577132
0.0577863
0.0751947
0.055982
0.0741233
0.0754881
0.052856
0.0728297
0.0665258
0.0646466
0.0604769
0.0732778
0.0667007
0.0655214
0.066683
0.063687
0.0551877
0.0786354
0.0688551
0.0672884
0.0596446
0.0652914
0.0774119
0.0677267
0.0777609
0.0687644
0.0770427
0.0664243
0.0806369
0.0689491
0.0660401
0.0663335
0.0641753
0.0754051
0.0674872
0.0759554
0.0669469
0.0763461
0.0652597
0.0769074
0.0646423
0.085663
0.0936364
0.0786493
0.0711838
0.0959565
0.0959786
0.0688518
0.0687932
0.0980981
0.0885663
0.0666377
0.0770493
0.0870851
0.0957841
0.0964218
0.0773563
0.0698249
0.069487
0.0863982
0.0978499
0.098359
0.0775836
0.0779046
0.0678611
0.067305
0.0894207
0.0750095
0.0980145
0.107691
0.0666711
0.05877
0.0863961
0.0975215
0.0962991
0.0782358
0.0684611
0.0697348
0.0846592
0.0971299
0.0948942
0.0781133
0.0806336
0.0686433
0.0705498
0.109382
0.0571651
0.0964482
0.0963731
0.0966303
0.0683851
0.0697976
0.0693091
0.0964822
0.0952292
0.102597
0.0791068
0.0693447
0.070157
0.0630634
0.0886335
0.105754
0.0884958
0.0759302
0.0589991
0.0770478
0.0990468
0.097141
0.101699
0.0744372
0.0672343
0.0686513
0.0638589
0.104168
0.104116
0.0886049
0.0606823
0.0607473
0.0768906
0.105722
0.0886315
0.0884921
0.0590365
0.0759327
0.0770565
0.1094
0.0571699
0.0971361
0.0990531
0.101696
0.0744382
0.0686598
0.0672381
0.0638649
0.0894173
0.0750093
0.0963792
0.0964452
0.0966177
0.0698023
0.0683853
0.0693095
0.098011
0.107688
0.0666718
0.0587697
0.0952379
0.0964814
0.102599
0.0791076
0.0701593
0.0693448
0.063064
0.0975169
0.0863914
0.0962946
0.0684583
0.0782317
0.0697318
0.0856581
0.0936311
0.0786452
0.0711785
0.0971243
0.0846538
0.0948886
0.0781093
0.0686387
0.0806285
0.0705444
0.0959508
0.0959726
0.0688457
0.0687877
0.0980921
0.0885597
0.0666324
0.0770443
0.0957779
0.0870811
0.0964139
0.0698199
0.0773505
0.0694837
0.0978422
0.0863989
0.0983553
0.0775791
0.0678624
0.0778964
0.0672997
0.0847947
0.0923902
0.0773689
0.0698823
0.0946859
0.0947381
0.0676002
0.0675024
0.096703
0.0864369
0.0654469
0.0760947
0.0860893
0.0932315
0.09385
0.0761871
0.0691396
0.068919
0.0853808
0.095259
0.0957174
0.0764217
0.0767448
0.0673906
0.0668966
0.0885421
0.0737329
0.0969018
0.106188
0.0654111
0.0574048
0.0852384
0.0953608
0.0937175
0.0769564
0.0677657
0.0689654
0.0829005
0.0948723
0.0925567
0.0768312
0.0792553
0.0680859
0.0698031
0.107659
0.0558824
0.0952628
0.0943015
0.0942077
0.0671107
0.0688939
0.0685475
0.0940779
0.0928973
0.10006
0.0778355
0.0683711
0.0693944
0.0625355
0.087762
0.104579
0.0865116
0.0747456
0.0576866
0.0760759
0.0966471
0.0946748
0.0990407
0.0732162
0.0663417
0.0678805
0.0632841
0.103036
0.102972
0.0866193
0.0593602
0.0594232
0.0759193
0.104542
0.087758
0.086503
0.0577214
0.0747461
0.0760805
0.107658
0.0558836
0.0946636
0.0966445
0.0990298
0.0732155
0.0678845
0.0663419
0.0632849
0.088541
0.0737334
0.0943008
0.0952616
0.0942061
0.068895
0.0671111
0.0685482
0.0968997
0.106187
0.0654129
0.0574079
0.0928953
0.0940765
0.100057
0.0778359
0.0693951
0.0683718
0.0625358
0.0953588
0.0852337
0.093714
0.0677695
0.0769526
0.0689669
0.0847905
0.0923845
0.0773647
0.0698765
0.0948666
0.0828947
0.0925502
0.0768273
0.0680739
0.079249
0.0697944
0.0946801
0.0947324
0.0675943
0.067497
0.0966974
0.0864312
0.065442
0.0760904
0.0932261
0.0860863
0.0938433
0.0691352
0.0761814
0.0689163
0.0952506
0.0853813
0.095714
0.0764167
0.0673911
0.076736
0.0668916
0.0833943
0.0909483
0.0758725
0.0683571
0.0932916
0.0932989
0.0661273
0.065946
0.0952856
0.0848406
0.0639424
0.0746267
0.0847008
0.0916122
0.0922265
0.0747266
0.0677279
0.0675449
0.0840037
0.0936301
0.0940638
0.0749717
0.0753069
0.0660507
0.0655775
0.0871694
0.072209
0.0955786
0.10477
0.0639174
0.0558516
0.0837884
0.093881
0.0920552
0.075447
0.0663813
0.0675034
0.0813124
0.093314
0.0909266
0.0753372
0.0777192
0.0667489
0.0683913
0.106252
0.0543536
0.0938388
0.0927954
0.0926488
0.0655615
0.0674153
0.0671098
0.0923857
0.0912762
0.0984797
0.0763213
0.0668165
0.068019
0.0611549
0.0863971
0.103284
0.0849855
0.0732621
0.0561817
0.0746668
0.0950179
0.0930821
0.0974658
0.0717094