/*--------------------------------*- C++ -*----------------------------------*\
| =========                 |                                                 |
| \\      /  F ield         | OpenFOAM: The Open Source CFD Toolbox           |
|  \\    /   O peration     | Version:  2.1.1                                 |
|   \\  /    A nd           | Web:      www.OpenFOAM.org                      |
|    \\/     M anipulation  |                                                 |
\*---------------------------------------------------------------------------*/
FoamFile
{
    version     2.0;
    format      ascii;
    class       surfaceScalarField;
    location    "0.0035";
    object      phi;
}
// * * * * * * * * * * * * * * * * * * * * * * * * * * * * * * * * * * * * * //

dimensions      [0 3 -1 0 0 0 0];

internalField   nonuniform List<scalar> 
29457
(
-2.90051e-12
-2.22715e-13
1.98437e-13
-3.0446e-12
5.96939e-12
-3.82423e-12
3.52461e-13
5.94319e-13
-3.06968e-12
-2.75965e-12
8.70679e-12
1.44351e-11
2.88213e-13
-5.8745e-11
-2.37247e-12
-1.98709e-11
7.40922e-11
1.38842e-11
-1.10222e-11
-1.06893e-11
1.38275e-11
-4.3367e-11
7.74002e-12
-1.8162e-11
-1.57625e-11
6.44716e-11
1.14893e-11
-1.11442e-11
-9.09276e-12
-2.29952e-12
4.62097e-12
7.97173e-10
7.30916e-11
6.99633e-11
-7.03805e-11
-6.5761e-11
7.47951e-11
4.96788e-11
-7.04548e-11
-4.70079e-11
5.06254e-12
9.80518e-10
6.93506e-11
6.92224e-11
-6.68713e-11
-6.67598e-11
-3.99006e-11
1.1491e-11
1.47101e-11
-1.63466e-11
-1.47035e-11
5.98992e-11
1.28943e-11
-9.02152e-12
-9.83715e-12
9.93012e-12
-1.03441e-11
-8.77115e-12
-4.45444e-12
3.40729e-12
8.07177e-10
6.84746e-11
6.77849e-11
-6.56789e-11
-6.37098e-11
6.69303e-11
4.69703e-11
-6.27123e-11
-4.46478e-11
-2.66997e-12
2.84628e-12
9.78156e-10
6.76107e-11
6.7146e-11
-6.51178e-11
-6.5563e-11
-2.47677e-12
1.85394e-12
9.67581e-10
6.70596e-11
6.48251e-11
-6.51949e-11
-6.28143e-11
1.347e-12
2.28274e-12
9.62897e-10
6.17368e-11
4.79022e-11
-6.06058e-11
-4.66921e-11
1.12302e-13
5.99027e-12
1.20253e-09
6.67659e-12
1.22183e-09
-9.01517e-13
-5.83986e-13
-2.7619e-12
-1.33098e-12
5.57839e-12
-2.72976e-12
1.84748e-12
8.22198e-10
6.40142e-11
6.42233e-11
-6.16795e-11
-6.10736e-11
6.82133e-11
4.66954e-11
-6.3646e-11
-4.51831e-11
6.37517e-13
1.12919e-12
9.44128e-10
6.26865e-11
4.78769e-11
-6.11663e-11
-4.6928e-11
4.58779e-13
4.96151e-12
1.19631e-09
-2.56047e-14
5.30825e-12
1.22246e-09
-1.63783e-12
5.08335e-12
1.21239e-09
-2.22519e-12
5.8272e-12
1.20409e-09
-9.25344e-13
5.73978e-12
1.21432e-09
6.0731e-12
1.19791e-09
1.11143e-11
1.01901e-11
-3.68028e-11
-1.38291e-11
-1.34131e-11
5.73651e-11
9.60951e-12
-9.06634e-12
-8.27405e-12
8.72381e-12
-8.22814e-12
-7.38942e-12
8.00885e-13
1.5251e-12
7.62285e-10
6.7892e-11
4.49583e-11
-6.51575e-11
-4.40433e-11
6.74766e-11
4.93071e-11
-6.45006e-11
-4.63905e-11
2.02171e-12
3.63534e-12
1.19027e-09
-4.86946e-13
4.55876e-12
1.20554e-09
-3.72402e-13
3.90851e-12
1.20763e-09
-1.68301e-13
4.52648e-12
1.19733e-09
3.82045e-13
4.33234e-12
1.19454e-09
1.58367e-12
5.16126e-12
1.19566e-09
8.0885e-13
4.93821e-12
1.18774e-09
4.97653e-12
1.18332e-09
1.02025e-11
1.1111e-11
-3.69698e-11
-1.34487e-11
-1.38431e-11
5.75684e-11
8.71757e-12
-8.23568e-12
-7.37767e-12
9.59722e-12
-9.06313e-12
-8.25862e-12
1.65904e-12
1.71897e-12
7.68841e-10
6.85124e-11
5.04829e-11
-6.67486e-11
-4.82313e-11
6.86024e-11
5.0539e-11
-6.6839e-11
-4.82818e-11
1.71791e-12
2.72944e-12
1.18026e-09
1.51656e-12
3.92123e-12
1.22485e-09
1.48238e-12
2.92207e-12
1.19582e-09
4.39157e-13
3.30257e-12
1.1846e-09
-2.05227e-14
3.54366e-12
1.1829e-09
-5.22719e-13
3.59097e-12
1.18323e-09
-3.24347e-13
4.2105e-12
1.18483e-09
-1.54698e-13
3.64762e-12
1.18298e-09
3.74332e-12
1.1829e-09
-9.01987e-13
-5.84057e-13
-1.33113e-12
-2.76096e-12
5.57813e-12
1.51488e-12
8.10538e-13
7.62873e-10
6.78892e-11
4.49348e-11
-6.51442e-11
-4.40224e-11
6.75215e-11
4.93107e-11
-6.45607e-11
-4.63948e-11
2.67605e-12
1.71939e-12
1.18039e-09
2.72047e-12
2.76531e-12
1.22826e-09
2.18094e-12
2.71908e-12
1.19576e-09
1.03401e-12
2.67289e-12
1.18415e-09
7.27419e-13
2.59636e-12
1.18179e-09
4.48888e-13
2.89002e-12
1.1821e-09
3.91915e-13
2.80034e-12
1.18128e-09
6.03559e-13
3.19232e-12
1.18172e-09
2.96175e-13
2.97569e-12
1.18022e-09
3.09702e-12
1.18021e-09
1.85656e-12
-2.71799e-12
8.22308e-10
6.8222e-11
4.67034e-11
-6.36545e-11
-4.51981e-11
6.40117e-11
6.42056e-11
-6.16853e-11
-6.10764e-11
3.61927e-12
2.04841e-12
1.19059e-09
3.86595e-12
1.5236e-12
1.22502e-09
2.67309e-12
2.18749e-12
1.19594e-09
2.01243e-12
2.03301e-12
1.18378e-09
1.50413e-12
2.09747e-12
1.18196e-09
1.04127e-12
2.25133e-12
1.18065e-09
7.20456e-13
2.39339e-12
1.17998e-09
4.14988e-13
2.33265e-12
1.17912e-09
2.83092e-13
2.58711e-12
1.17912e-09
1.13082e-13
2.36655e-12
1.17847e-09
2.45983e-12
1.17844e-09
-3.9903e-11
1.4711e-11
1.14901e-11
-1.47042e-11
-1.63505e-11
5.98988e-11
9.93305e-12
-1.03433e-11
-8.76931e-12
1.28942e-11
-9.02098e-12
-9.8359e-12
1.12491e-12
6.43145e-13
9.44226e-10
6.2676e-11
4.78718e-11
-6.11596e-11
-4.69229e-11
4.54324e-12
-4.49825e-13
1.2057e-09
2.89439e-12
1.497e-12
1.1959e-09
2.64013e-12
1.04938e-12
1.18419e-09
2.07683e-12
1.51749e-12
1.18203e-09
1.61642e-12
1.63271e-12
1.18131e-09
1.26538e-12
1.76884e-12
1.1795e-09
9.23261e-13
1.86969e-12
1.17867e-09
6.6473e-13
1.83366e-12
1.17774e-09
5.05887e-13
1.98502e-12
1.17754e-09
2.39834e-13
1.89498e-12
1.17691e-09
1.9574e-12
1.17682e-09
3.3973e-12
-4.45198e-12
8.07202e-10
6.69334e-11
4.69693e-11
-6.27109e-11
-4.4649e-11
6.84726e-11
6.77845e-11
-6.56774e-11
-6.3707e-11
4.94368e-12
4.61558e-13
1.19638e-09
3.89236e-12
-3.44372e-13
1.20772e-09
3.28299e-12
4.51101e-13
1.18465e-09
2.57311e-12
7.51592e-13
1.18183e-09
2.23407e-12
1.05139e-12
1.18066e-09
1.75729e-12
1.27798e-12
1.17955e-09
1.34663e-12
1.3554e-12
1.17802e-09
9.62494e-13
1.45391e-12
1.17725e-09
6.45659e-13
1.43281e-12
1.17651e-09
4.1417e-13
1.5257e-12
1.17632e-09
1.90407e-13
1.44952e-12
1.17597e-09
1.48504e-12
1.17591e-09
-3.82419e-12
5.94295e-13
3.52471e-13
-2.75948e-12
-3.06974e-12
8.70663e-12
2.83919e-12
-2.66165e-12
9.78191e-10
6.7608e-11
6.71472e-11
-6.51173e-11
-6.55623e-11
5.29772e-12
-1.75737e-14
1.22252e-09
4.51965e-12
-1.50238e-13
1.19742e-09
3.53523e-12
-7.19512e-15
1.18297e-09
2.86956e-12
4.89325e-13
1.18217e-09
2.38244e-12
7.18608e-13
1.18001e-09
1.85902e-12
9.34156e-13
1.17869e-09
1.44604e-12
9.71303e-13
1.1773e-09
1.05934e-12
1.06821e-12
1.17663e-09
7.54827e-13
1.05645e-12
1.17592e-09
4.96758e-13
1.11984e-12
1.17568e-09
2.39224e-13
1.08507e-12
1.17539e-09
1.11022e-12
1.17533e-09
2.88414e-13
1.44354e-11
-5.87477e-11
-1.98693e-11
-2.37233e-12
7.40932e-11
1.38837e-11
-1.10225e-11
-1.06889e-11
1.85055e-12
-2.46584e-12
9.67622e-10
6.70592e-11
6.48291e-11
-6.51975e-11
-6.28183e-11
5.07082e-12
-1.6216e-12
1.21245e-09
4.32475e-12
3.90786e-13
1.19461e-09
3.57902e-12
-5.01956e-13
1.18326e-09
2.78214e-12
4.36194e-13
1.18133e-09
2.32867e-12
3.83706e-13
1.17917e-09
1.82566e-12
6.7534e-13
1.17777e-09
1.42574e-12
6.52147e-13
1.17652e-09
1.05105e-12
7.61509e-13
1.17593e-09
7.39615e-13
7.4372e-13
1.17544e-09
4.7009e-13
7.88716e-13
1.17526e-09
2.25742e-13
7.6153e-13
1.17513e-09
7.7603e-13
1.17511e-09
1.38277e-11
-4.33694e-11
7.7378e-12
-1.57642e-11
-1.81574e-11
6.44737e-11
1.149e-11
-1.11448e-11
-9.09351e-12
2.27821e-12
1.35996e-12
9.62991e-10
6.17437e-11
4.79098e-11
-6.061e-11
-4.66988e-11
5.82542e-12
-2.21026e-12
1.20419e-09
5.15646e-12
1.59334e-12
1.19575e-09
4.20143e-12
-3.16494e-13
1.1849e-09
3.19146e-12
6.22246e-13
1.18176e-09
2.58055e-12
2.48736e-13
1.17914e-09
1.97836e-12
5.14327e-13
1.17755e-09
1.51958e-12
4.18937e-13
1.17632e-09
1.11493e-12
5.01965e-13
1.17569e-09
7.85243e-13
4.73817e-13
1.17532e-09
5.00308e-13
5.0325e-13
1.17524e-09
2.43799e-13
4.87085e-13
1.17515e-09
4.95364e-13
1.1752e-09
4.61163e-12
-2.29746e-12
7.97391e-10
7.3106e-11
6.9993e-11
-7.0394e-11
-6.57943e-11
7.47856e-11
4.96633e-11
-7.04448e-11
-4.69945e-11
5.97966e-12
1.23972e-13
1.20272e-09
5.72895e-12
-9.12453e-13
1.21441e-09
4.92889e-12
8.22723e-13
1.1878e-09
3.6391e-12
-1.41208e-13
1.183e-09
2.97459e-12
3.04367e-13
1.18024e-09
2.35561e-12
9.43577e-14
1.17847e-09
1.88829e-12
2.46445e-13
1.17692e-09
1.44442e-12
1.95074e-13
1.17597e-09
1.08094e-12
2.43012e-13
1.17539e-09
7.58624e-13
2.28217e-13
1.17514e-09
4.84959e-13
2.46259e-13
1.17522e-09
2.37475e-13
2.39493e-13
1.17536e-09
2.45483e-13
1.17552e-09
-2.90312e-12
-2.23841e-13
-3.05025e-12
1.99794e-13
5.97741e-12
5.07593e-12
9.80782e-10
6.93915e-11
6.92249e-11
-6.69071e-11
-6.67654e-11
6.69042e-12
1.22197e-09
6.08423e-12
1.19799e-09
4.98253e-12
1.18335e-09
3.74651e-12
1.18291e-09
3.10041e-12
1.1802e-09
2.45244e-12
1.17843e-09
1.95298e-12
1.17681e-09
1.48106e-12
1.17589e-09
1.10693e-12
1.17532e-09
7.73642e-13
1.17511e-09
4.93506e-13
1.17521e-09
2.44051e-13
1.17555e-09
1.17595e-09
-3.06738e-12
-2.22908e-13
2.00353e-13
-2.88404e-12
5.97397e-12
-4.06102e-12
3.54658e-13
5.3567e-13
-2.84421e-12
-2.65447e-12
8.66938e-12
1.37891e-11
-8.22569e-14
-5.90379e-11
-1.92486e-12
-1.75918e-11
7.37743e-11
1.32024e-11
-1.12312e-11
-1.08978e-11
1.33711e-11
-4.4381e-11
6.88386e-12
-1.61733e-11
-1.40504e-11
6.42594e-11
1.07421e-11
-1.12467e-11
-9.4051e-12
-1.51209e-12
1.63619e-12
7.93662e-10
7.05127e-11
6.72673e-11
-7.00552e-11
-6.54209e-11
7.24565e-11
4.84215e-11
-7.1337e-11
-4.84572e-11
9.26439e-13
9.76816e-10
6.70744e-11
6.6778e-11
-6.63299e-11
-6.62572e-11
-4.07169e-11
1.09537e-11
1.43156e-11
-1.49652e-11
-1.22769e-11
6.01548e-11
1.23437e-11
-9.30844e-12
-1.0278e-11
9.4555e-12
-1.05756e-11
-9.10222e-12
-2.86143e-12
1.52935e-12
8.04874e-10
6.71133e-11
6.49321e-11
-6.60008e-11
-6.4062e-11
6.59043e-11
4.61572e-11
-6.40421e-11
-4.63644e-11
-1.74154e-12
-6.6653e-14
9.7587e-10
6.62672e-11
6.48976e-11
-6.44543e-11
-6.5476e-11
-9.99077e-13
-1.25034e-12
9.663e-10
6.54829e-11
6.36762e-11
-6.47183e-11
-6.26513e-11
2.28089e-12
-6.26999e-13
9.60405e-10
6.09298e-11
4.71763e-11
-6.06404e-11
-4.76263e-11
9.96719e-13
2.72526e-12
1.20272e-09
2.0413e-12
1.22171e-09
-1.20637e-12
-5.61819e-13
-2.55432e-12
-1.21119e-12
5.5337e-12
-2.72553e-12
1.43811e-12
8.19533e-10
6.36689e-11
6.26492e-11
-6.23135e-11
-6.17978e-11
6.75878e-11
4.52907e-11
-6.43365e-11
-4.67946e-11
1.84796e-12
-1.7917e-12
9.42511e-10
6.10605e-11
4.65901e-11
-6.10592e-11
-4.77531e-11
1.33843e-12
2.32575e-12
1.19602e-09
4.67019e-13
1.70343e-12
1.22156e-09
-1.03932e-12
1.72976e-12
1.21091e-09
-1.94573e-12
2.01181e-12
1.20235e-09
-5.15283e-13
1.39301e-12
1.21422e-09
1.09559e-12
1.19834e-09
1.08313e-11
9.93126e-12
-3.78561e-11
-1.20532e-11
-1.18382e-11
5.76095e-11
9.17607e-12
-9.35583e-12
-8.56992e-12
8.31855e-12
-8.52239e-12
-7.67106e-12
2.50697e-13
-7.8935e-13
7.61054e-10
6.71258e-11
4.31231e-11
-6.47878e-11
-4.51704e-11
6.58799e-11
4.83556e-11
-6.50028e-11
-4.77522e-11
1.77623e-12
1.4588e-12
1.18873e-09
-1.27159e-12
1.77986e-12
1.20502e-09
-5.73804e-13
8.5487e-13
1.20841e-09
-3.53778e-13
7.80483e-13
1.19804e-09
1.17434e-13
6.32187e-13
1.19517e-09
8.88538e-13
9.48093e-13
1.19595e-09
4.73425e-13
9.44656e-13
1.1886e-09
8.25156e-13
1.18407e-09
9.94564e-12
1.08301e-11
-3.8024e-11
-1.18685e-11
-1.2071e-11
5.78103e-11
8.31188e-12
-8.53092e-12
-7.66018e-12
9.16299e-12
-9.35215e-12
-8.55411e-12
-7.61083e-15
2.69887e-14
7.67878e-10
6.73289e-11
4.96948e-11
-6.70094e-11
-4.95477e-11
6.74256e-11
4.9749e-11
-6.70984e-11
-4.95984e-11
5.1112e-13
6.09339e-13
1.17834e-09
-1.72057e-13
1.53896e-12
1.22546e-09
5.49722e-13
4.15605e-13
1.19647e-09
1.79029e-13
8.06631e-13
1.18502e-09
5.41502e-14
6.81195e-13
1.18313e-09
-2.82216e-13
7.20981e-13
1.18347e-09
-3.36101e-13
9.03521e-13
1.18493e-09
-1.80502e-13
6.16068e-13
1.18315e-09
6.35522e-13
1.1829e-09
-1.20732e-12
-5.61533e-13
-1.21056e-12
-2.55438e-12
5.53379e-12
-7.62141e-13
2.53214e-13
7.61633e-10
6.71137e-11
4.31007e-11
-6.47785e-11
-4.51524e-11
6.59332e-11
4.83565e-11
-6.50616e-11
-4.7761e-11
7.18351e-13
4.12617e-13
1.17853e-09
2.33466e-13
2.33699e-13
1.22912e-09
4.76436e-13
5.56555e-13
1.1965e-09
3.31617e-14
6.15205e-13
1.18439e-09
1.76051e-13
5.70548e-13
1.18189e-09
1.36731e-13
6.12364e-13
1.18221e-09
1.78255e-13
5.45765e-13
1.18141e-09
2.73795e-13
6.46297e-13
1.18189e-09
1.22349e-13
5.72938e-13
1.18041e-09
6.25147e-13
1.18035e-09
1.43497e-12
-2.71693e-12
8.19641e-10
6.75894e-11
4.53019e-11
-6.43413e-11
-4.68069e-11
6.36642e-11
6.26413e-11
-6.23077e-11
-6.17909e-11
1.46409e-12
1.78129e-12
1.18904e-09
1.47974e-12
-2.01034e-13
1.22562e-09
5.32195e-13
4.7357e-13
1.19665e-09
3.99372e-13
4.13192e-13
1.18406e-09
3.99605e-13
4.75591e-13
1.1821e-09
2.78808e-13
5.71207e-13
1.18077e-09
1.99971e-13
5.60953e-13
1.18011e-09
8.98135e-14
5.3596e-13
1.17924e-09
4.66919e-14
5.9215e-13
1.17922e-09
8.90271e-15
4.93325e-13
1.17859e-09
5.25975e-13
1.17855e-09
-4.07179e-11
1.43158e-11
1.09528e-11
-1.22745e-11
-1.49655e-11
6.01544e-11
9.4556e-12
-1.05758e-11
-9.10215e-12
1.23428e-11
-9.30802e-12
-1.02774e-11
-1.79278e-12
1.8534e-12
9.42613e-10
6.10524e-11
4.6585e-11
-6.10518e-11
-4.77485e-11
1.77674e-12
-1.26647e-12
1.20518e-09
3.90364e-13
5.46184e-13
1.19654e-09
5.93906e-13
3.02552e-14
1.18443e-09
4.64813e-13
4.02782e-13
1.18217e-09
3.70882e-13
3.77998e-13
1.18149e-09
3.02143e-13
4.29126e-13
1.17971e-09
2.1293e-13
4.25269e-13
1.1789e-09
1.75195e-13
4.08607e-13
1.1779e-09
1.52257e-13
4.42978e-13
1.17771e-09
7.33383e-14
4.08478e-13
1.17708e-09
4.2792e-13
1.17699e-09
1.52753e-12
-2.85807e-12
8.04897e-10
6.5905e-11
4.61579e-11
-6.40422e-11
-4.63654e-11
6.71114e-11
6.49306e-11
-6.60001e-11
-6.40596e-11
2.31856e-12
1.34278e-12
1.1961e-09
8.49794e-13
-5.68392e-13
1.2085e-09
7.96511e-13
1.7935e-13
1.18508e-09
5.60539e-13
1.75366e-13
1.18192e-09
5.62798e-13
2.81666e-13
1.18078e-09
4.24762e-13
3.06939e-13
1.17976e-09
3.22478e-13
3.25626e-13
1.17823e-09
2.22969e-13
3.39135e-13
1.17744e-09
1.47956e-13
3.32084e-13
1.17666e-09
9.30747e-14
3.51687e-13
1.17646e-09
4.30226e-14
3.1772e-13
1.17611e-09
3.27492e-13
1.17605e-09
-4.06091e-12
5.35612e-13
3.54787e-13
-2.65479e-12
-2.84405e-12
8.66935e-12
-6.88051e-14
-1.73993e-12
9.75906e-10
6.62651e-11
6.48977e-11
-6.44512e-11
-6.54747e-11
1.70188e-12
4.68477e-13
1.22163e-09
7.78393e-13
-3.45355e-13
1.19812e-09
6.747e-13
5.66872e-14
1.1832e-09
6.05365e-13
1.34392e-13
1.18228e-09
5.55184e-13
2.01384e-13
1.18014e-09
4.20496e-13
2.16844e-13
1.17892e-09
3.3574e-13
2.25156e-13
1.17749e-09
2.42539e-13
2.45518e-13
1.17682e-09
1.82571e-13
2.40525e-13
1.17607e-09
1.24499e-13
2.54671e-13
1.17583e-09
6.24832e-14
2.40655e-13
1.17553e-09
2.4809e-13
1.17547e-09
-8.17874e-14
1.37898e-11
-5.9041e-11
-1.75911e-11
-1.92468e-12
7.37753e-11
1.3202e-11
-1.12313e-11
-1.08973e-11
-1.25268e-12
-9.97984e-13
9.66343e-10
6.54835e-11
6.36794e-11
-6.47191e-11
-6.26549e-11
1.72672e-12
-1.03729e-12
1.21097e-09
6.27143e-13
1.30983e-13
1.19524e-09
7.15903e-13
-2.80945e-13
1.18351e-09
5.39355e-13
1.79322e-13
1.18146e-09
5.32156e-13
9.1128e-14
1.17928e-09
4.05359e-13
1.78192e-13
1.17794e-09
3.29317e-13
1.49115e-13
1.17668e-09
2.38767e-13
1.84369e-13
1.17608e-09
1.71484e-13
1.72248e-13
1.17557e-09
1.08118e-13
1.83953e-13
1.1754e-09
5.3857e-14
1.72138e-13
1.17525e-09
1.75597e-13
1.17524e-09
1.33714e-11
-4.43837e-11
6.88195e-12
-1.40519e-11
-1.61692e-11
6.42615e-11
1.07427e-11
-1.1247e-11
-9.40577e-12
-6.27418e-13
2.28312e-12
9.60496e-10
6.09352e-11
4.71829e-11
-6.06446e-11
-4.76328e-11
2.01117e-12
-1.94318e-12
1.20246e-09
9.51026e-13
8.93343e-13
1.19605e-09
9.01748e-13
-3.36371e-13
1.18501e-09
6.43081e-13
2.75695e-13
1.18193e-09
5.88444e-13
4.80875e-14
1.17924e-09
4.39801e-13
1.53567e-13
1.17772e-09
3.48809e-13
9.317e-14
1.17647e-09
2.52645e-13
1.24973e-13
1.17584e-09
1.82956e-13
1.08153e-13
1.17545e-09
1.17835e-13
1.17928e-13
1.17538e-09
5.99049e-14
1.11243e-13
1.17527e-09
1.13286e-13
1.17532e-09
1.63021e-12
-1.51339e-12
7.93889e-10
7.05252e-11
6.72971e-11
-7.00687e-11
-6.54513e-11
7.24465e-11
4.84068e-11
-7.13267e-11
-4.8443e-11
2.72096e-12
9.99087e-13
1.20291e-09
1.38805e-12
-5.13803e-13
1.21431e-09
9.41477e-13
4.7587e-13
1.18866e-09
6.13432e-13
-1.81977e-13
1.18317e-09
5.70634e-13
1.22888e-13
1.18043e-09
4.89683e-13
7.5833e-15
1.17859e-09
4.04845e-13
7.3316e-14
1.17708e-09
3.14766e-13
4.19281e-14
1.17611e-09
2.38402e-13
6.16058e-14
1.17553e-09
1.70843e-13
5.25658e-14
1.17526e-09
1.1085e-13
5.89895e-14
1.17534e-09
5.61309e-14
5.5659e-14
1.17547e-09
5.80934e-14
1.17564e-09
-3.07049e-12
-2.22996e-13
-2.88928e-12
2.00947e-13
5.98182e-12
9.31824e-13
9.77062e-10
6.71137e-11
6.67826e-11
-6.63654e-11
-6.62608e-11
2.04728e-12
1.22185e-09
1.09964e-12
1.19842e-09
8.27274e-13
1.18409e-09
6.3679e-13
1.18291e-09
6.24857e-13
1.18034e-09
5.23433e-13
1.17853e-09
4.25404e-13
1.17698e-09
3.25144e-13
1.17603e-09
2.46259e-13
1.17546e-09
1.74456e-13
1.17524e-09
1.129e-13
1.17534e-09
5.84866e-14
1.17566e-09
1.17606e-09
-3.09858e-12
-2.21777e-13
1.99426e-13
-2.87103e-12
5.99196e-12
-4.10212e-12
3.75145e-13
5.25494e-13
-2.84324e-12
-2.64913e-12
8.69385e-12
1.37959e-11
-1.90471e-13
-5.93507e-11
-1.66699e-12
-1.7396e-11
7.39313e-11
1.31735e-11
-1.12959e-11
-1.10006e-11
1.33938e-11
-4.44257e-11
6.54064e-12
-1.57236e-11
-1.3985e-11
6.43855e-11
1.06397e-11
-1.12816e-11
-9.54363e-12
-3.5525e-13
-1.55968e-12
7.95473e-10
7.03364e-11
6.70223e-11
-7.01792e-11
-6.56285e-11
7.17898e-11
4.80953e-11
-7.22636e-11
-4.90682e-11
-2.19353e-12
9.78459e-10
6.67791e-11
6.6407e-11
-6.65315e-11
-6.64637e-11
-4.09069e-11
1.10017e-11
1.43191e-11
-1.46122e-11
-1.21614e-11
6.03242e-11
1.2299e-11
-9.37721e-12
-1.04082e-11
9.40687e-12
-1.06707e-11
-9.21419e-12
-9.20661e-13
3.25144e-13
8.0524e-10
6.70007e-11
6.45738e-11
-6.62333e-11
-6.44172e-11
6.53932e-11
4.5831e-11
-6.49554e-11
-4.6962e-11
-7.34721e-13
-1.68082e-12
9.77211e-10
6.60782e-11
6.45107e-11
-6.46003e-11
-6.58359e-11
-6.01521e-13
-2.71651e-12
9.67374e-10
6.55248e-11
6.3551e-11
-6.47074e-11
-6.2861e-11
2.60546e-13
-3.60102e-12
9.62429e-10
6.14864e-11
4.72953e-11
-6.03945e-11
-4.76739e-11
1.25688e-14
-2.08391e-12
1.20349e-09
-2.73678e-12
1.22227e-09
-1.24984e-12
-5.51865e-13
-2.52722e-12
-1.21928e-12
5.5482e-12
-2.0953e-12
6.1107e-13
8.19456e-10
6.34966e-11
6.24655e-11
-6.26682e-11
-6.21522e-11
6.73897e-11
4.50743e-11
-6.48367e-11
-4.72065e-11
1.21976e-12
-2.77598e-12
9.42377e-10
6.15167e-11
4.67178e-11
-6.08767e-11
-4.77612e-11
1.79158e-12
-4.99616e-13
1.19628e-09
1.49087e-12
-1.60398e-12
1.22178e-09
3.36451e-13
-1.70218e-12
1.21105e-09
-8.95282e-13
-2.44554e-12
1.20243e-09
-2.06276e-13
-3.14647e-12
1.21459e-09
-3.26674e-12
1.19866e-09
1.08701e-11
9.96142e-12
-3.80875e-11
-1.18252e-11
-1.16843e-11
5.77566e-11
9.15424e-12
-9.42543e-12
-8.66974e-12
8.30069e-12
-8.59217e-12
-7.75866e-12
6.24999e-13
-1.46963e-12
7.61192e-10
6.72536e-11
4.31721e-11
-6.48641e-11
-4.52641e-11
6.57495e-11
4.81901e-11
-6.53999e-11
-4.81298e-11
1.46343e-12
-8.98816e-13
1.1894e-09
-8.81411e-13
-7.13349e-13
1.2053e-09
-6.06113e-14
-1.82317e-12
1.20891e-09
1.28315e-13
-2.16905e-12
1.19841e-09
5.7796e-13
-2.39634e-12
1.19542e-09
5.96514e-13
-2.80559e-12
1.1963e-09
1.84344e-13
-2.67017e-12
1.18854e-09
-2.76997e-12
1.18375e-09
9.97591e-12
1.08687e-11
-3.82541e-11
-1.1713e-11
-1.1844e-11
5.79565e-11
8.29374e-12
-8.60075e-12
-7.74807e-12
9.14113e-12
-9.42206e-12
-8.65389e-12
-1.2323e-13
-1.06937e-13
7.68185e-10
6.74232e-11
4.96142e-11
-6.72243e-11
-4.98539e-11
6.75177e-11
4.96668e-11
-6.73147e-11
-4.99047e-11
-6.97633e-13
-1.2874e-12
1.17874e-09
-1.14982e-12
-8.27553e-13
1.22584e-09
-6.60804e-14
-1.64174e-12
1.19631e-09
-2.73286e-14
-1.40591e-12
1.18457e-09
1.87484e-13
-1.83679e-12
1.18258e-09
1.14393e-13
-1.8225e-12
1.18298e-09
-1.02402e-13
-2.11249e-12
1.18446e-09
-6.35618e-14
-2.19685e-12
1.18264e-09
-2.21745e-12
1.18228e-09
-1.25053e-12
-5.51434e-13
-1.21858e-12
-2.52735e-12
5.54789e-12
-1.46908e-12
6.19682e-13
7.61788e-10
6.72406e-11
4.31495e-11
-6.48542e-11
-4.52448e-11
6.58053e-11
4.81922e-11
-6.54557e-11
-4.81369e-11
-1.30973e-12
-7.09142e-13
1.17898e-09
-1.37099e-12
-1.36434e-12
1.22926e-09
-7.63602e-13
-1.18445e-12
1.19625e-09
-7.71528e-13
-1.22842e-12
1.18399e-09
-3.94161e-13
-1.35514e-12
1.18146e-09
-2.80574e-13
-1.52055e-12
1.18178e-09
-8.30556e-14
-1.57744e-12
1.18097e-09
-5.71583e-14
-1.76851e-12
1.18152e-09
-4.15435e-14
-1.735e-12
1.17994e-09
-1.76392e-12
1.17985e-09
6.02855e-13
-2.10133e-12
8.19572e-10
6.73936e-11
4.50869e-11
-6.48395e-11
-4.72172e-11
6.34931e-11
6.2457e-11
-6.26608e-11
-6.21442e-11
-9.02914e-13
1.4528e-12
1.18971e-09
-8.36522e-13
-1.16348e-12
1.22601e-09
-1.18905e-12
-7.70449e-13
1.19641e-09
-9.98557e-13
-9.98472e-13
1.18368e-09
-6.77479e-13
-1.08699e-12
1.18163e-09
-5.07847e-13
-1.08382e-12
1.18032e-09
-3.31161e-13
-1.23446e-12
1.17965e-09
-2.17649e-13
-1.22183e-12
1.17877e-09
-1.58377e-13
-1.35966e-12
1.17875e-09
-7.07045e-14
-1.35428e-12
1.17812e-09
-1.38488e-12
1.17808e-09
-4.0908e-11
1.43192e-11
1.1001e-11
-1.21583e-11
-1.46128e-11
6.03237e-11
9.40692e-12
-1.0671e-11
-9.21404e-12
1.2298e-11
-9.37681e-12
-1.04079e-11
-2.76616e-12
1.20752e-12
9.42481e-10
6.15078e-11
4.6711e-11
-6.08692e-11
-4.77581e-11
-7.10261e-13
-8.93339e-13
1.20547e-09
-1.6449e-12
-8.19103e-14
1.19639e-09
-1.23189e-12
-7.78558e-13
1.18402e-09
-1.08752e-12
-6.82914e-13
1.18171e-09
-8.75078e-13
-8.76976e-13
1.18107e-09
-6.53877e-13
-8.96178e-13
1.1793e-09
-4.86941e-13
-9.95664e-13
1.17849e-09
-3.04432e-13
-9.93414e-13
1.17749e-09
-1.95305e-13
-1.07562e-12
1.17732e-09
-8.93386e-14
-1.05945e-12
1.17667e-09
-1.0846e-12
1.17659e-09
3.28376e-13
-9.13078e-13
8.05263e-10
6.5394e-11
4.58331e-11
-6.49551e-11
-4.69617e-11
6.69944e-11
6.45635e-11
-6.62322e-11
-6.44157e-11
-4.98515e-13
1.78281e-12
1.19635e-09
-1.81913e-12
-6.88905e-14
1.20899e-09
-1.40433e-12
-4.0394e-14
1.18462e-09
-1.35307e-12
-3.99309e-13
1.18149e-09
-1.08183e-12
-5.12934e-13
1.18033e-09
-8.93016e-13
-6.56689e-13
1.17935e-09
-6.83515e-13
-6.86806e-13
1.17781e-09
-5.02828e-13
-7.597e-13
1.17703e-09
-3.42506e-13
-7.54958e-13
1.17626e-09
-2.21527e-13
-8.10899e-13
1.17608e-09
-1.02026e-13
-8.03946e-13
1.17573e-09
-8.21577e-13
1.17567e-09
-4.1019e-12
5.25149e-13
3.75434e-13
-2.64992e-12
-2.84252e-12
8.69376e-12
-1.67732e-12
-7.41138e-13
9.77244e-10
6.60874e-11
6.45123e-11
-6.4596e-11
-6.58362e-11
-1.59969e-12
1.47904e-12
1.22185e-09
-2.16589e-12
1.17527e-13
1.1985e-09
-1.83581e-12
1.74937e-13
1.18266e-09
-1.51969e-12
-2.84671e-13
1.18185e-09
-1.23378e-12
-3.36699e-13
1.17968e-09
-9.94162e-13
-4.9049e-13
1.17851e-09
-7.58078e-13
-5.06882e-13
1.17708e-09
-5.65501e-13
-5.67978e-13
1.17644e-09
-3.85447e-13
-5.66979e-13
1.1757e-09
-2.46281e-13
-6.04244e-13
1.17549e-09
-1.14419e-13
-5.97694e-13
1.1752e-09
-6.09221e-13
1.17514e-09
-1.89762e-13
1.37966e-11
-5.93537e-11
-1.73953e-11
-1.66672e-12
7.39321e-11
1.31729e-11
-1.12959e-11
-1.10003e-11
-2.71758e-12
-6.07935e-13
9.67417e-10
6.55267e-11
6.35543e-11
-6.47072e-11
-6.28649e-11
-1.70177e-12
3.24223e-13
1.21111e-09
-2.39378e-12
5.68776e-13
1.19548e-09
-1.82127e-12
1.08689e-13
1.18301e-09
-1.57536e-12
-8.8498e-14
1.18102e-09
-1.22017e-12
-2.23005e-13
1.17882e-09
-9.91662e-13
-3.08399e-13
1.17753e-09
-7.53323e-13
-3.46766e-13
1.17628e-09
-5.64846e-13
-3.88472e-13
1.17571e-09
-3.93187e-13
-3.95755e-13
1.17523e-09
-2.5165e-13
-4.20104e-13
1.17507e-09
-1.18515e-13
-4.18053e-13
1.17494e-09
-4.25874e-13
1.17494e-09
1.33942e-11
-4.44284e-11
6.53874e-12
-1.39867e-11
-1.57196e-11
6.43876e-11
1.06404e-11
-1.12819e-11
-9.54433e-12
-3.59666e-12
2.5541e-13
9.62514e-10
6.14916e-11
4.73019e-11
-6.03988e-11
-4.76806e-11
-2.43977e-12
-9.10365e-13
1.20254e-09
-2.79996e-12
5.82789e-13
1.1964e-09
-2.11581e-12
-9.77055e-14
1.18453e-09
-1.76961e-12
-6.76286e-14
1.18156e-09
-1.35983e-12
-1.66428e-13
1.17877e-09
-1.07534e-12
-2.00643e-13
1.17733e-09
-8.10341e-13
-2.26895e-13
1.17609e-09
-6.03085e-13
-2.50436e-13
1.1755e-09
-4.18471e-13
-2.55206e-13
1.17513e-09
-2.66081e-13
-2.68627e-13
1.17507e-09
-1.2521e-13
-2.66338e-13
1.17498e-09
-2.71755e-13
1.17504e-09
-1.55699e-12
-3.54856e-13
7.95693e-10
7.03502e-11
6.70538e-11
-7.01924e-11
-6.56578e-11
7.17796e-11
4.80813e-11
-7.22537e-11
-4.90535e-11
-2.08188e-12
8.54559e-15
1.20368e-09
-3.1458e-12
-2.14197e-13
1.21468e-09
-2.66947e-12
1.69659e-13
1.1886e-09
-2.19508e-12
-6.17771e-14
1.18266e-09
-1.73361e-12
-5.14884e-14
1.17996e-09
-1.35469e-12
-8.00437e-14
1.17813e-09
-1.06006e-12
-9.52113e-14
1.17668e-09
-8.04478e-13
-1.08044e-13
1.17573e-09
-5.97707e-13
-1.19371e-13
1.17519e-09
-4.1747e-13
-1.22772e-13
1.17495e-09
-2.65193e-13
-1.28647e-13
1.17505e-09
-1.2619e-13
-1.28352e-13
1.17519e-09
-1.29018e-13
1.17536e-09
-3.10167e-12
-2.21807e-13
-2.87616e-12
1.99916e-13
5.99972e-12
-2.19335e-12
9.78707e-10
6.68163e-11
6.64119e-11
-6.65692e-11
-6.6468e-11
-2.73664e-12
1.22241e-09
-3.26775e-12
1.19874e-09
-2.77343e-12
1.18378e-09
-2.21673e-12
1.18229e-09
-1.766e-12
1.17984e-09
-1.38619e-12
1.17807e-09
-1.08532e-12
1.17658e-09
-8.22097e-13
1.17566e-09
-6.09192e-13
1.17513e-09
-4.25331e-13
1.17493e-09
-2.7053e-13
1.17505e-09
-1.27102e-13
1.17539e-09
1.17579e-09
-3.11106e-12
-2.21071e-13
1.98276e-13
-2.87407e-12
6.00792e-12
-4.11565e-12
3.81942e-13
5.19233e-13
-2.83009e-12
-2.66731e-12
8.71187e-12
1.3861e-11
-2.66778e-13
-5.95871e-11
-1.47409e-12
-1.76753e-11
7.43244e-11
1.31919e-11
-1.13127e-11
-1.10615e-11
1.34631e-11
-4.45772e-11
6.29524e-12
-1.54018e-11
-1.42263e-11
6.47281e-11
1.06271e-11
-1.12898e-11
-9.61852e-12
-1.7595e-13
-5.5439e-12
8.02878e-10
7.06687e-11
6.7217e-11
-7.02522e-11
-6.58229e-11
7.13051e-11
4.77911e-11
-7.3033e-11
-4.95605e-11
-5.17082e-12
9.83478e-10
6.69004e-11
6.6506e-11
-6.67599e-11
-6.66719e-11
-4.1006e-11
1.10335e-11
1.42788e-11
-1.43441e-11
-1.23567e-11
6.04743e-11
1.2294e-11
-9.36719e-12
-1.04395e-11
9.37862e-12
-1.07173e-11
-9.22849e-12
9.16334e-13
-1.58685e-12
8.07711e-10
6.72036e-11
6.45711e-11
-6.62045e-11
-6.46199e-11
6.47934e-11
4.5474e-11
-6.56327e-11
-4.73873e-11
5.16242e-13
-3.85749e-12
9.81103e-10
6.63329e-11
6.46087e-11
-6.459e-11
-6.59877e-11
-5.7102e-13
-5.17564e-12
9.70769e-10
6.61186e-11
6.39429e-11
-6.4415e-11
-6.27806e-11
-2.1414e-12
-7.59233e-12
9.69073e-10
6.23704e-11
4.76586e-11
-5.99133e-11
-4.75992e-11
-1.69545e-12
-7.28768e-12
1.20479e-09
-7.50247e-12
1.2229e-09
-1.25959e-12
-5.52875e-13
-2.51632e-12
-1.22448e-12
5.55326e-12
-2.13187e-12
-7.5378e-13
8.21253e-10
6.35575e-11
6.25e-11
-6.26199e-11
-6.21526e-11
6.72326e-11
4.4921e-11
-6.49982e-11
-4.73524e-11
3.20754e-13
-4.32748e-12
9.43157e-10
6.20946e-11
4.69718e-11
-6.03838e-11
-4.75855e-11
2.09643e-12
-3.28827e-12
1.1962e-09
2.79469e-12
-4.9293e-12
1.22216e-09
2.54263e-12
-5.08788e-12
1.21122e-09
3.95531e-13
-6.87911e-12
1.20386e-09
2.68066e-13
-7.407e-12
1.21484e-09
-7.23729e-12
1.19865e-09
1.08846e-11
9.96875e-12
-3.81475e-11
-1.17707e-11
-1.17071e-11
5.78244e-11
9.15176e-12
-9.43415e-12
-8.68978e-12
8.30041e-12
-8.60576e-12
-7.77492e-12
1.34837e-13
-2.45676e-12
7.62983e-10
6.7402e-11
4.32395e-11
-6.47725e-11
-4.52302e-11
6.56351e-11
4.80837e-11
-6.55629e-11
-4.82623e-11
1.48819e-12
-2.72836e-12
1.19002e-09
-5.09216e-13
-3.00443e-12
1.20598e-09
6.60213e-13
-4.3923e-12
1.20884e-09
6.54798e-13
-4.97933e-12
1.19847e-09
1.05221e-12
-5.19259e-12
1.19513e-09
-9.33486e-14
-6.34897e-12
1.19691e-09
-2.55734e-13
-6.15353e-12
1.18745e-09
-6.29294e-12
1.18254e-09
9.98344e-12
1.0883e-11
-3.83141e-11
-1.17356e-11
-1.17908e-11
5.80248e-11
8.29334e-12
-8.61404e-12
-7.7643e-12
9.13883e-12
-9.43091e-12
-8.67368e-12
-7.24575e-13
-7.01592e-13
7.69549e-10
6.75203e-11
4.96041e-11
-6.72018e-11
-4.98935e-11
6.76156e-11
4.96577e-11
-6.72931e-11
-4.99449e-11
-1.82384e-12
-2.65651e-12
1.18004e-09
-2.00289e-12
-2.75306e-12
1.22605e-09
-7.10832e-13
-3.62501e-12
1.19564e-09
-3.76478e-13
-3.69972e-12
1.18354e-09
1.31733e-13
-4.40198e-12
1.1815e-09
4.065e-13
-4.36425e-12
1.18187e-09
5.48155e-14
-5.11684e-12
1.18358e-09
4.04135e-14
-4.99154e-12
1.18149e-09
-5.09418e-12
1.18111e-09
-1.26009e-12
-5.52451e-13
-1.22367e-12
-2.51653e-12
5.55274e-12
-2.46022e-12
1.17181e-13
7.6361e-10
6.73865e-11
4.32155e-11
-6.4763e-11
-4.52119e-11
6.5692e-11
4.80842e-11
-6.56141e-11
-4.82671e-11
-2.57717e-12
-1.8578e-12
1.18025e-09
-2.82193e-12
-2.8171e-12
1.22966e-09
-2.02333e-12
-2.96394e-12
1.19566e-09
-1.63475e-12
-3.16533e-12
1.18314e-09
-1.01229e-12
-3.33973e-12
1.18048e-09
-7.43531e-13
-3.6864e-12
1.1808e-09
-4.16693e-13
-3.69002e-12
1.17997e-09
-4.30531e-13
-4.18388e-12
1.1806e-09
-2.24344e-13
-4.04e-12
1.17878e-09
-4.1631e-12
1.17868e-09
-7.54724e-13
-2.14996e-12
8.21374e-10
6.72382e-11
4.49347e-11
-6.49984e-11
-4.73598e-11
6.35543e-11
6.24913e-11
-6.26126e-11
-6.21455e-11
-2.72045e-12
1.44877e-12
1.19035e-09
-2.74655e-12
-2.031e-12
1.22621e-09
-2.95209e-12
-2.03492e-12
1.19583e-09
-2.53896e-12
-2.55173e-12
1.18285e-09
-1.87495e-12
-2.73351e-12
1.18054e-09
-1.35065e-12
-2.78184e-12
1.17924e-09
-8.8033e-13
-3.04448e-12
1.17854e-09
-5.2948e-13
-2.97874e-12
1.17771e-09
-3.77302e-13
-3.30584e-12
1.17772e-09
-1.77592e-13
-3.17956e-12
1.17706e-09
-3.27888e-12
1.17701e-09
-4.10069e-11
1.42789e-11
1.1033e-11
-1.23538e-11
-1.43451e-11
6.04736e-11
9.37873e-12
-1.07174e-11
-9.22812e-12
1.2293e-11
-9.3666e-12
-1.04392e-11
-4.30925e-12
2.81405e-13
9.43273e-10
6.20856e-11
4.69637e-11
-6.03768e-11
-4.75837e-11
-2.9932e-12
-5.30597e-13
1.20613e-09
-3.61574e-12
-7.35129e-13
1.19572e-09
-3.15415e-12
-1.64896e-12
1.18318e-09
-2.72326e-12
-1.89058e-12
1.18062e-09
-2.16445e-12
-2.1754e-12
1.17995e-09
-1.61684e-12
-2.22588e-12
1.1782e-09
-1.18457e-12
-2.40502e-12
1.17742e-09
-7.81712e-13
-2.37478e-12
1.17649e-09
-5.43519e-13
-2.57076e-12
1.17635e-09
-2.52305e-13
-2.49793e-12
1.1757e-09
-2.56624e-12
1.17561e-09
-1.58009e-12
9.15095e-13
8.07734e-10
6.47943e-11
4.54765e-11
-6.56313e-11
-4.73857e-11
6.71981e-11
6.45616e-11
-6.62015e-11
-6.46196e-11
-3.27964e-12
2.07314e-12
1.19626e-09
-4.37758e-12
6.27625e-13
1.20893e-09
-3.6849e-12
-4.04964e-13
1.1836e-09
-3.32488e-12
-1.02556e-12
1.18051e-09
-2.76936e-12
-1.36446e-12
1.17926e-09
-2.21486e-12
-1.62738e-12
1.17825e-09
-1.68651e-12
-1.6964e-12
1.17675e-09
-1.22363e-12
-1.84715e-12
1.17601e-09
-8.28257e-13
-1.82503e-12
1.17532e-09
-5.33994e-13
-1.95391e-12
1.17517e-09
-2.46779e-13
-1.90262e-12
1.17485e-09
-1.94491e-12
1.17479e-09
-4.11535e-12
5.18609e-13
3.82208e-13
-2.66773e-12
-2.82934e-12
8.7116e-12