/*--------------------------------*- C++ -*----------------------------------*\
| =========                 |                                                 |
| \\      /  F ield         | OpenFOAM: The Open Source CFD Toolbox           |
|  \\    /   O peration     | Version:  2.1.1                                 |
|   \\  /    A nd           | Web:      www.OpenFOAM.org                      |
|    \\/     M anipulation  |                                                 |
\*---------------------------------------------------------------------------*/
FoamFile
{
    version     2.0;
    format      ascii;
    class       volScalarField;
    location    "0.0035";
    object      Th;
}
// * * * * * * * * * * * * * * * * * * * * * * * * * * * * * * * * * * * * * //

dimensions      [0 0 0 0 0 0 0];

internalField   nonuniform List<scalar> 
10154
(
4.18883e-13
1e-14
2.1278e-14
1.04004e-14
1.17131e-14
1.06164e-14
3.703e-14
1.23722e-14
1.00674e-14
1.00356e-14
1e-14
1.00059e-14
1.00021e-14
3.36382e-13
1.41924e-14
1.00596e-14
1.00054e-14
1.00001e-14
1.00001e-14
1.00001e-14
1.00001e-14
1e-14
2.89731e-14
1.02855e-14
1.00049e-14
1e-14
1e-14
1e-14
1e-14
1.00001e-14
1.00001e-14
1e-14
2.87734e-14
1.03149e-14
1.00003e-14
1.00001e-14
1e-14
1e-14
1e-14
1e-14
1e-14
1e-14
1.00001e-14
3.36393e-13
1.02847e-14
1.00003e-14
1.00001e-14
1e-14
1e-14
1.00001e-14
1e-14
1e-14
1e-14
1e-14
1.00001e-14
1.41963e-14
1.0005e-14
1.00001e-14
1e-14
1e-14
1e-14
1e-14
1e-14
1e-14
1e-14
1e-14
1e-14
3.70248e-14
1.00596e-14
1e-14
1e-14
1e-14
1e-14
1e-14
1e-14
1e-14
1e-14
1e-14
1e-14
1.00001e-14
1.2372e-14
1.00054e-14
1e-14
1e-14
1.00001e-14
1e-14
1e-14
1e-14
1.00001e-14
1.00001e-14
1e-14
1e-14
1e-14
1e-14
1.00673e-14
1.00001e-14
1e-14
1e-14
1e-14
1e-14
1e-14
1.00001e-14
1.00001e-14
1.00001e-14
1e-14
1.00001e-14
1e-14
2.12782e-14
1.00357e-14
1.00001e-14
1e-14
1e-14
1e-14
1e-14
1e-14
1.00001e-14
1.00001e-14
1.00001e-14
1.00001e-14
1.00001e-14
1.00001e-14
1.04004e-14
1e-14
1.00001e-14
1.00001e-14
1e-14
1e-14
1e-14
1e-14
1e-14
1e-14
1.00001e-14
1.00001e-14
1.00001e-14
1.00002e-14
1.1713e-14
1.00058e-14
1.00001e-14
1.00001e-14
1e-14
1e-14
1e-14
1e-14
1e-14
1.00001e-14
1.00001e-14
1.00001e-14
1e-14
1.00002e-14
4.18787e-13
1.06166e-14
1.00021e-14
1e-14
1e-14
1.00001e-14
1.00002e-14
1e-14
1.00001e-14
1e-14
1e-14
1.00001e-14
1.00002e-14
1.00002e-14
1.00004e-14
4.2344e-13
1e-14
2.06061e-14
1.03558e-14
1.1566e-14
1.05509e-14
3.74736e-14
1.22365e-14
1.0057e-14
1.00302e-14
1e-14
1.00029e-14
1.00009e-14
3.45073e-13
1.39731e-14
1.00526e-14
1.00028e-14
1e-14
1e-14
1.00001e-14
1.00001e-14
1e-14
3.16729e-14
1.02654e-14
1.0003e-14
1e-14
1e-14
1e-14
1e-14
1.00001e-14
1.00001e-14
1e-14
3.14495e-14
1.02896e-14
1e-14
1.00001e-14
1e-14
1e-14
1e-14
1e-14
1e-14
1.00001e-14
1e-14
3.45067e-13
1.02644e-14
1e-14
1.00001e-14
1e-14
1e-14
1.00001e-14
1e-14
1e-14
1e-14
1e-14
1.00001e-14
1.39736e-14
1.0003e-14
1e-14
1e-14
1e-14
1e-14
1e-14
1e-14
1e-14
1e-14
1e-14
1e-14
3.747e-14
1.00525e-14
1e-14
1e-14
1e-14
1e-14
1e-14
1.00001e-14
1e-14
1e-14
1e-14
1e-14
1e-14
1.22362e-14
1.00028e-14
1e-14
1e-14
1.00001e-14
1e-14
1.00001e-14
1.00001e-14
1e-14
1e-14
1e-14
1e-14
1e-14
1e-14
1.0057e-14
1e-14
1e-14
1e-14
1e-14
1e-14
1e-14
1e-14
1.00001e-14
1e-14
1e-14
1e-14
1e-14
2.06057e-14
1.00302e-14
1e-14
1e-14
1e-14
1e-14
1e-14
1e-14
1e-14
1e-14
1.00001e-14
1.00001e-14
1.00001e-14
1.00001e-14
1.03557e-14
1e-14
1.00001e-14
1.00001e-14
1e-14
1e-14
1e-14
1e-14
1e-14
1e-14
1.00001e-14
1.00001e-14
1e-14
1.00001e-14
1.15661e-14
1.00029e-14
1.00001e-14
1.00001e-14
1e-14
1e-14
1e-14
1e-14
1e-14
1e-14
1.00001e-14
1e-14
1.00001e-14
1.00001e-14
4.23353e-13
1.05512e-14
1.00008e-14
1e-14
1e-14
1e-14
1.00001e-14
1e-14
1e-14
1e-14
1e-14
1e-14
1.00001e-14
1.00001e-14
1.00002e-14
4.23798e-13
1e-14
2.06809e-14
1.03588e-14
1.15255e-14
1.05337e-14
3.79587e-14
1.21965e-14
1.00555e-14
1.00287e-14
1e-14
1.00002e-14
1.00001e-14
3.45236e-13
1.39136e-14
1.00509e-14
1.00012e-14
1e-14
1e-14
1.00001e-14
1.00001e-14
1.00001e-14
3.23314e-14
1.02613e-14
1.00018e-14
1e-14
1e-14
1e-14
1e-14
1e-14
1.00001e-14
1e-14
3.21043e-14
1.02839e-14
1e-14
1e-14
1e-14
1e-14
1e-14
1e-14
1e-14
1.00001e-14
1e-14
3.45229e-13
1.02604e-14
1e-14
1.00001e-14
1e-14
1e-14
1e-14
1e-14
1e-14
1e-14
1e-14
1e-14
1.39127e-14
1.00018e-14
1e-14
1e-14
1e-14
1e-14
1.00001e-14
1e-14
1e-14
1e-14
1e-14
1e-14
3.79557e-14
1.00509e-14
1e-14
1e-14
1e-14
1e-14
1.00001e-14
1.00001e-14
1e-14
1e-14
1e-14
1.00001e-14
1e-14
1.21962e-14
1.00012e-14
1e-14
1e-14
1e-14
1.00001e-14
1.00001e-14
1e-14
1e-14
1e-14
1e-14
1e-14
1e-14
1e-14
1.00555e-14
1e-14
1e-14
1e-14
1e-14
1e-14
1e-14
1e-14
1e-14
1e-14
1e-14
1e-14
1e-14
2.06805e-14
1.00287e-14
1e-14
1e-14
1e-14
1e-14
1e-14
1e-14
1e-14
1e-14
1e-14
1.00001e-14
1.00001e-14
1e-14
1.03587e-14
1e-14
1.00001e-14
1e-14
1e-14
1e-14
1e-14
1e-14
1e-14
1e-14
1.00001e-14
1.00001e-14
1e-14
1e-14
1.15256e-14
1.00002e-14
1.00001e-14
1.00001e-14
1.00001e-14
1e-14
1e-14
1.00001e-14
1e-14
1e-14
1.00001e-14
1e-14
1e-14
1e-14
4.23716e-13
1.05341e-14
1.00001e-14
1.00001e-14
1e-14
1e-14
1e-14
1e-14
1e-14
1e-14
1e-14
1e-14
1e-14
1e-14
1e-14
4.2367e-13
1e-14
2.07241e-14
1.03628e-14
1.15134e-14
1.05168e-14
3.80074e-14
1.2183e-14
1.00551e-14
1.00281e-14
1e-14
1e-14
1e-14
3.45405e-13
1.39179e-14
1.00494e-14
1e-14
1e-14
1e-14
1.00001e-14
1e-14
1e-14
3.2421e-14
1.02613e-14
1e-14
1e-14
1e-14
1e-14
1e-14
1e-14
1e-14
1e-14
3.21929e-14
1.02833e-14
1e-14
1e-14
1e-14
1e-14
1e-14
1e-14
1e-14
1e-14
1e-14
3.45405e-13
1.02603e-14
1e-14
1.00001e-14
1e-14
1e-14
1e-14
1e-14
1e-14
1e-14
1e-14
1.00001e-14
1.39167e-14
1e-14
1e-14
1e-14
1.00001e-14
1e-14
1e-14
1e-14
1e-14
1e-14
1e-14
1.00001e-14
3.80041e-14
1.00494e-14
1e-14
1e-14
1e-14
1e-14
1.00001e-14
1e-14
1e-14
1e-14
1e-14
1.00001e-14
1.00001e-14
1.21828e-14
1e-14
1e-14
1e-14
1e-14
1e-14
1e-14
1e-14
1e-14
1e-14
1e-14
1e-14
1.00001e-14
1e-14
1.0055e-14
1e-14
1e-14
1e-14
1e-14
1e-14
1e-14
1e-14
1e-14
1e-14
1e-14
1e-14
1e-14
2.0724e-14
1.00281e-14
1e-14
1e-14
1e-14
1e-14
1e-14
1e-14
1e-14
1e-14
1e-14
1e-14
1e-14
1e-14
1.03628e-14
1e-14
1.00001e-14
1e-14
1e-14
1e-14
1e-14
1e-14
1e-14
1e-14
1e-14
1e-14
1e-14
1e-14
1.15134e-14
1e-14
1e-14
1e-14
1e-14
1e-14
1e-14
1.00001e-14
1e-14
1e-14
1e-14
1e-14
1e-14
1e-14
4.23589e-13
1.05173e-14
1e-14
1e-14
1e-14
1e-14
1.00001e-14
1.00001e-14
1.00001e-14
1.00001e-14
1e-14
1e-14
1e-14
1e-14
1e-14
4.22995e-13
1e-14
2.08196e-14
1.03696e-14
1.16025e-14
1.05868e-14
3.79847e-14
1.22304e-14
1.00619e-14
1.00282e-14
1e-14
1e-14
1e-14
3.45546e-13
1.38181e-14
1.00481e-14
1e-14
1e-14
1e-14
1e-14
1e-14
1.00001e-14
3.24577e-14
1.0255e-14
1e-14
1e-14
1e-14
1e-14
1e-14
1e-14
1e-14
1.00001e-14
3.22281e-14
1.02805e-14
1e-14
1e-14
1e-14
1e-14
1e-14
1e-14
1e-14
1e-14
1e-14
3.45546e-13
1.0254e-14
1e-14
1e-14
1e-14
1e-14
1e-14
1e-14
1e-14
1e-14
1e-14
1.00001e-14
1.38168e-14
1e-14
1e-14
1e-14
1e-14
1e-14
1e-14
1e-14
1e-14
1e-14
1e-14
1.00002e-14
3.79805e-14
1.0048e-14
1e-14
1e-14
1e-14
1e-14
1e-14
1e-14
1e-14
1e-14
1e-14
1.00001e-14
1.00002e-14
1.223e-14
1e-14
1e-14
1e-14
1e-14
1e-14
1e-14
1.00001e-14
1e-14
1e-14
1e-14
1e-14
1.00001e-14
1e-14
1.00619e-14
1e-14
1e-14
1e-14
1e-14
1e-14
1e-14
1e-14
1e-14
1e-14
1e-14
1e-14
1e-14
2.08196e-14
1.00282e-14
1e-14
1e-14
1e-14
1e-14
1e-14
1e-14
1e-14
1e-14
1e-14
1e-14
1e-14
1.00001e-14
1.03695e-14
1e-14
1e-14
1e-14
1e-14
1e-14
1e-14
1e-14
1e-14
1e-14
1e-14
1e-14
1e-14
1e-14
1.16027e-14
1e-14
1e-14
1e-14
1e-14
1e-14
1e-14
1.00001e-14
1e-14
1e-14
1e-14
1e-14
1e-14
1e-14
4.22917e-13
1.05873e-14
1e-14
1.00001e-14
1.00001e-14
1e-14
1.00001e-14
1.00002e-14
1.00002e-14
1.00001e-14
1e-14
1.00001e-14
1e-14
1e-14
1e-14
4.20598e-13
1e-14
2.1196e-14
1.03879e-14
1.14163e-14
1.03725e-14
3.80334e-14
1.20582e-14
1.00417e-14
1.00256e-14
1e-14
1e-14
1e-14
3.45427e-13
1.40611e-14
1.00421e-14
1e-14
1e-14
1e-14
1e-14
1e-14
1e-14
3.2669e-14
1.02974e-14
1e-14
1e-14
1e-14
1e-14
1e-14
1e-14
1e-14
1.00001e-14
3.24412e-14
1.03006e-14
1e-14
1e-14
1e-14
1e-14
1e-14
1e-14
1e-14
1e-14
1e-14
3.45425e-13
1.02964e-14
1e-14
1e-14
1e-14
1e-14
1e-14
1e-14
1e-14
1e-14
1e-14
1.00001e-14
1.40594e-14
1e-14
1e-14
1e-14
1e-14
1e-14
1e-14
1e-14
1e-14
1e-14
1e-14
1.00001e-14
3.80302e-14
1.0042e-14
1e-14
1e-14
1e-14
1e-14
1e-14
1.00001e-14
1e-14
1e-14
1e-14
1.00001e-14
1.00001e-14
1.2058e-14
1e-14
1e-14
1e-14
1e-14
1e-14
1.00001e-14
1e-14
1e-14
1e-14
1e-14
1e-14
1e-14
1e-14
1.00416e-14
1e-14
1e-14
1e-14
1e-14
1e-14
1e-14
1e-14
1e-14
1e-14
1e-14
1e-14
1e-14
2.1196e-14
1.00256e-14
1e-14
1e-14
1e-14
1e-14
1e-14
1e-14
1e-14
1e-14
1e-14
1e-14
1e-14
1.00001e-14
1.03878e-14
1e-14
1e-14
1e-14
1e-14
1e-14
1e-14
1e-14
1e-14
1e-14
1e-14
1e-14
1e-14
1e-14
1.14163e-14
1e-14
1e-14
1e-14
1e-14
1e-14
1e-14
1.00001e-14
1e-14
1e-14
1e-14
1e-14
1e-14
1e-14
4.20526e-13
1.0374e-14
1e-14
1e-14
1.00001e-14
1e-14
1.00001e-14
1.00001e-14
1.00001e-14
1e-14
1e-14
1.00001e-14
1e-14
1e-14
1e-14
4.05199e-13
1e-14
2.39395e-14
1.01195e-14
1.27395e-14
1.12763e-14
3.99227e-14
1.30458e-14
1.01323e-14
1.00353e-14
1e-14
1e-14
1e-14
3.43774e-13
1.39895e-14
1.00393e-14
1e-14
1e-14
1e-14
1e-14
1e-14
1e-14
3.76447e-14
1.0147e-14
1e-14
1e-14
1e-14
1e-14
1e-14
1e-14
1e-14
1e-14
3.74116e-14
1.02109e-14
1e-14
1e-14
1e-14
1e-14
1e-14
1e-14
1e-14
1e-14
1.00001e-14
3.4377e-13
1.01455e-14
1e-14
1e-14
1e-14
1e-14
1e-14
1e-14
1e-14
1e-14
1e-14
1.00001e-14
1.39886e-14
1e-14
1e-14
1e-14
1e-14
1e-14
1e-14
1e-14
1e-14
1e-14
1e-14
1e-14
3.99203e-14
1.00392e-14
1e-14
1e-14
1e-14
1e-14
1e-14
1e-14
1e-14
1e-14
1e-14
1.00001e-14
1e-14
1.30453e-14
1e-14
1e-14
1e-14
1e-14
1e-14
1e-14
1e-14
1e-14
1e-14
1e-14
1e-14
1e-14
1e-14
1.01323e-14
1e-14
1e-14
1e-14
1e-14
1e-14
1e-14
1e-14
1e-14
1e-14
1e-14
1e-14
1e-14
2.39399e-14
1.00353e-14
1e-14
1e-14
1e-14
1e-14
1e-14
1e-14
1e-14
1e-14
1e-14
1e-14
1e-14
1e-14
1.01191e-14
1e-14
1e-14
1e-14
1e-14
1e-14
1e-14
1e-14
1e-14
1e-14
1e-14
1e-14
1e-14
1e-14
1.27437e-14
1e-14
1e-14
1e-14
1e-14
1e-14
1e-14
1.00001e-14
1e-14
1e-14
1e-14
1e-14
1e-14
1e-14
4.05112e-13
1.12764e-14
1e-14
1e-14
1e-14
1.00001e-14
1.00001e-14
1e-14
1e-14
1e-14
1e-14
1e-14
1e-14
1e-14
1.00001e-14
5.43068e-14
2.38057e-14
1.12864e-14
1e-14
1.06526e-14
1.04118e-14
1.8063e-14
1.051e-14
1.00368e-14
1.0008e-14
1e-14
1e-14
1e-14
3.31229e-14
1.06738e-14
1.00058e-14
1e-14
1e-14
1e-14
1e-14
1e-14
1e-14
1.58534e-14
1.002e-14
1e-14
1e-14
1e-14
1e-14
1e-14
1e-14
1e-14
1e-14
1.57997e-14
1.00339e-14
1e-14
1e-14
1e-14
1e-14
1e-14
1e-14
1e-14
1e-14
1e-14
3.31332e-14
1.00198e-14
1e-14
1e-14
1e-14
1e-14
1e-14
1e-14
1e-14
1e-14
1e-14
1.00001e-14
1.06736e-14
1e-14
1e-14
1e-14
1e-14
1e-14
1e-14
1e-14
1e-14
1e-14
1e-14
1e-14
1.80629e-14
1.00058e-14
1e-14
1e-14
1e-14
1e-14
1e-14
1e-14
1e-14
1e-14
1e-14
1e-14
1e-14
1.05097e-14
1e-14
1e-14
1e-14
1e-14
1e-14
1e-14
1e-14
1e-14
1e-14
1e-14
1e-14
1e-14
2.38023e-14
1.00368e-14
1e-14
1e-14
1e-14
1e-14
1e-14
1e-14
1e-14
1e-14
1e-14
1e-14
1e-14
1e-14
1.1287e-14
1.0008e-14
1e-14
1e-14
1e-14
1e-14
1e-14
1e-14
1e-14
1e-14
1e-14
1e-14
1e-14
1e-14
1e-14
1e-14
1e-14
1e-14
1e-14
1e-14
1e-14
1e-14
1e-14
1e-14
1e-14
1e-14
1e-14
1e-14
1.0654e-14
1e-14
1e-14
1e-14
1e-14
1e-14
1e-14
1e-14
1e-14
1e-14
1e-14
1e-14
1e-14
1e-14
5.43458e-14
1.04118e-14
1e-14
1e-14
1e-14
1e-14
1.00001e-14
1e-14
1e-14
1e-14
1e-14
1e-14
1e-14
1e-14
1e-14
1.00087e-14
1.08787e-14
1.00011e-14
1.00631e-14
1.00056e-14
1e-14
1.01587e-14
1.01033e-14
1.00123e-14
1.01706e-14
1.01033e-14
1.00091e-14
1.00018e-14
1e-14
1e-14
1e-14
1.01365e-14
1.01301e-14
1.00008e-14
1e-14
1e-14
1e-14
1e-14
1e-14
1e-14
1.00878e-14
1.00021e-14
1e-14
1e-14
1e-14
1e-14
1e-14
1e-14
1e-14
1e-14
1.00866e-14
1.00049e-14
1e-14
1e-14
1e-14
1e-14
1e-14
1e-14
1e-14
1e-14
1e-14
1.01367e-14
1.00021e-14
1e-14
1e-14
1e-14
1e-14
1e-14
1e-14
1e-14
1e-14
1e-14
1e-14
1.00123e-14
1.01301e-14
1e-14
1e-14
1e-14
1e-14
1e-14
1e-14
1e-14
1e-14
1e-14
1e-14
1e-14
1.01706e-14
1.00008e-14
1e-14
1e-14
1e-14
1e-14
1e-14
1e-14
1e-14
1e-14
1e-14
1e-14
1e-14
1.00011e-14
1.01032e-14
1e-14
1e-14
1e-14
1e-14
1e-14
1e-14
1e-14
1e-14
1e-14
1e-14
1e-14
1e-14
1.0063e-14
1.00091e-14
1e-14
1e-14
1e-14
1e-14
1e-14
1e-14
1e-14
1e-14
1e-14
1e-14
1e-14
1e-14
1.00057e-14
1.00018e-14
1e-14
1e-14
1e-14
1e-14
1e-14
1e-14
1e-14
1e-14
1e-14
1e-14
1e-14
1e-14
1e-14
1e-14
1e-14
1e-14
1e-14
1e-14
1e-14
1e-14
1e-14
1e-14
1e-14
1e-14
1e-14
1e-14
1.00088e-14
1.01591e-14
1e-14
1e-14
1e-14
1e-14
1e-14
1e-14
1e-14
1e-14
1e-14
1e-14
1e-14
1e-14
1e-14
1.08802e-14
1.01033e-14
1e-14
1e-14
1e-14
1e-14
1e-14
1e-14
1e-14
1e-14
1e-14
1e-14
1e-14
1e-14
1e-14
1.00002e-14
1.00133e-14
1.00001e-14
1.00005e-14
1.00003e-14
1.00003e-14
1.00342e-14
1.00219e-14
1.00002e-14
1.00022e-14
1.00183e-14
1.00018e-14
1.00004e-14
1e-14
1e-14
1e-14
1.00012e-14
1.00219e-14
1.00001e-14
1e-14
1e-14
1e-14
1e-14
1e-14
1e-14
1.00004e-14
1.00002e-14
1e-14
1e-14
1e-14
1e-14
1e-14
1e-14
1e-14
1e-14
1.00004e-14
1.00006e-14
1e-14
1e-14
1e-14
1e-14
1e-14
1e-14
1e-14
1e-14
1e-14
1.00012e-14
1.00002e-14
1e-14
1e-14
1e-14
1e-14
1e-14
1e-14
1e-14
1e-14
1e-14
1e-14
1.00002e-14
1.00218e-14
1e-14
1e-14
1e-14
1e-14
1e-14
1e-14
1e-14
1e-14
1e-14
1e-14
1e-14
1.00022e-14
1.00001e-14
1e-14
1e-14
1e-14
1e-14
1e-14
1.00001e-14
1e-14
1e-14
1e-14
1e-14
1e-14
1.00001e-14
1.00183e-14
1e-14
1e-14
1e-14
1e-14
1e-14
1.00001e-14
1e-14
1e-14
1e-14
1e-14
1e-14
1e-14
1.00005e-14
1.00018e-14
1e-14
1e-14
1e-14
1e-14
1e-14
1e-14
1e-14
1e-14
1e-14
1e-14
1e-14
1e-14
1.00003e-14
1.00004e-14
1e-14
1e-14
1e-14
1e-14
1e-14
1e-14
1e-14
1e-14
1e-14
1e-14
1e-14
1e-14
1.00003e-14
1e-14
1e-14
1e-14
1e-14
1e-14
1e-14
1e-14
1e-14
1e-14
1e-14
1e-14
1e-14
1e-14
1.00002e-14
1.00344e-14
1e-14
1e-14
1e-14
1e-14
1e-14
1e-14
1e-14
1e-14
1e-14
1e-14
1e-14
1e-14
1e-14
1.00133e-14
1.00219e-14
1e-14
1e-14
1e-14
1e-14
1e-14
1e-14
1e-14
1e-14
1e-14
1e-14
1e-14
1e-14
1e-14
1.00001e-14
1.00001e-14
1e-14
1e-14
1e-14
1.00001e-14
1.00065e-14
1.00042e-14
1e-14
1.00002e-14
1.00028e-14
1.00003e-14
1e-14
1e-14
1e-14
1e-14
1e-14
1.00031e-14
1e-14
1e-14
1e-14
1e-14
1e-14
1e-14
1e-14
1e-14
1e-14
1e-14
1e-14
1e-14
1e-14
1e-14
1e-14
1e-14
1e-14
1e-14
1.00001e-14
1e-14
1e-14
1e-14
1e-14
1e-14
1e-14
1e-14
1e-14
1e-14
1e-14
1e-14
1e-14
1e-14
1e-14
1e-14
1e-14
1e-14
1e-14
1e-14
1e-14
1e-14
1e-14
1.00031e-14
1e-14
1e-14
1e-14
1e-14
1e-14
1.00001e-14
1e-14
1e-14
1e-14
1e-14
1e-14
1.00002e-14
1e-14
1e-14
1e-14
1e-14
1e-14
1.00001e-14
1e-14
1e-14
1e-14
1e-14
1e-14
1e-14
1e-14
1.00028e-14
1e-14
1e-14
1e-14
1e-14
1.00001e-14
1e-14
1e-14
1e-14
1e-14
1e-14
1e-14
1e-14
1e-14
1.00003e-14
1e-14
1e-14
1e-14
1e-14
1e-14
1e-14
1e-14
1e-14
1e-14
1e-14
1e-14
1e-14
1e-14
1e-14
1e-14
1e-14
1e-14
1e-14
1e-14
1e-14
1e-14
1e-14
1e-14
1e-14
1e-14
1e-14
1.00001e-14
1e-14
1e-14
1e-14
1e-14
1e-14
1e-14
1e-14
1e-14
1e-14
1e-14
1e-14
1e-14
1e-14
1.00001e-14
1.00065e-14
1e-14
1e-14
1e-14
1e-14
1e-14
1e-14
1e-14
1e-14
1e-14
1e-14
1e-14
1e-14
1.00001e-14
1.00002e-14
1.00042e-14
1e-14
1e-14
1e-14
1e-14
1e-14
1e-14
1e-14
1e-14
1e-14
1e-14
1e-14
1.00001e-14
1.00001e-14
1.00001e-14
1e-14
1e-14
1e-14
1e-14
1e-14
1.00011e-14
1.00008e-14
1e-14
1e-14
1.00004e-14
1e-14
1e-14
1e-14
1e-14
1e-14
1.00001e-14
1.00004e-14
1e-14
1e-14
1e-14
1e-14
1e-14
1e-14
1e-14
1e-14
1e-14
1e-14
1e-14
1e-14
1e-14
1e-14
1e-14
1e-14
1e-14
1e-14
1e-14
1e-14
1e-14
1e-14
1e-14
1e-14
1e-14
1e-14
1e-14
1e-14
1e-14
1e-14
1e-14
1e-14
1e-14
1e-14
1e-14
1e-14
1e-14
1e-14
1e-14
1e-14
1e-14
1.00004e-14
1e-14
1e-14
1e-14
1e-14
1e-14
1e-14
1e-14
1e-14
1e-14
1e-14
1e-14
1e-14
1e-14
1e-14
1e-14
1e-14
1e-14
1e-14
1e-14
1e-14
1e-14
1e-14
1e-14
1e-14
1e-14
1.00004e-14
1e-14
1e-14
1e-14
1e-14
1e-14
1e-14
1e-14
1e-14
1e-14
1e-14
1e-14
1e-14
1e-14
1e-14
1e-14
1e-14
1e-14
1e-14
1e-14
1e-14
1e-14
1e-14
1e-14
1e-14
1e-14
1e-14
1e-14
1e-14
1e-14
1e-14
1e-14
1e-14
1e-14
1e-14
1e-14
1e-14
1e-14
1e-14
1e-14
1e-14
1e-14
1e-14
1e-14
1e-14
1e-14
1e-14
1e-14
1e-14
1e-14
1e-14
1e-14
1e-14
1e-14
1.00001e-14
1.00001e-14
1.00011e-14
1e-14
1e-14
1e-14
1e-14
1e-14
1e-14
1e-14
1e-14
1e-14
1e-14
1e-14
1.00001e-14
1.00001e-14
1e-14
1.00008e-14
1e-14
1e-14
1e-14
1e-14
1e-14
1e-14
1e-14
1e-14
1e-14
1e-14
1.00001e-14
1.00001e-14
1.00001e-14
1e-14
1e-14
1e-14
1e-14
1e-14
1e-14
1.00002e-14
1.00001e-14
1.00001e-14
1e-14
1e-14
1e-14
1e-14
1e-14
1e-14
1e-14
1.00001e-14
1e-14
1e-14
1e-14
1e-14
1e-14
1e-14
1e-14
1.00001e-14
1e-14
1e-14
1e-14
1e-14
1e-14
1e-14
1e-14
1e-14
1e-14
1e-14
1e-14
1e-14
1e-14
1e-14
1e-14
1e-14
1e-14
1e-14
1e-14
1e-14
1.00001e-14
1.00001e-14
1e-14
1e-14
1e-14
1e-14
1e-14
1e-14
1e-14
1e-14
1e-14
1e-14
1.00001e-14
1.00001e-14
1e-14
1e-14
1e-14
1e-14
1e-14
1e-14
1e-14
1e-14
1e-14
1e-14
1e-14
1.00002e-14
1e-14
1e-14
1e-14
1e-14
1e-14
1e-14
1e-14
1e-14
1e-14
1e-14
1e-14
1.00001e-14
1.00001e-14
1e-14
1e-14
1e-14
1e-14
1e-14
1e-14
1e-14
1e-14
1e-14
1e-14
1e-14
1e-14
1e-14
1.00001e-14
1e-14
1e-14
1e-14
1e-14
1e-14
1e-14
1e-14
1e-14
1e-14
1e-14
1e-14
1e-14
1e-14
1.00001e-14
1e-14
1e-14
1e-14
1e-14
1e-14
1e-14
1e-14
1e-14
1e-14
1e-14
1e-14
1e-14
1e-14
1.00002e-14
1e-14
1e-14
1e-14
1e-14
1e-14
1e-14
1e-14
1e-14
1e-14
1e-14
1e-14
1e-14
1e-14
1.00001e-14
1e-14
1.00002e-14
1e-14
1e-14
1e-14
1e-14
1e-14
1e-14
1.00001e-14
1e-14
1e-14
1e-14
1e-14
1.00001e-14
1.00001e-14
1e-14
1.00001e-14
1e-14
1.00001e-14
1e-14
1.00001e-14
1.00001e-14
1.00001e-14
1.00001e-14
1.00001e-14
1.00001e-14
1.00002e-14
1.00001e-14
1.00001e-14
1.00002e-14
1e-14
1e-14
1e-14
1e-14
1e-14
1e-14
1e-14
1.00001e-14
1e-14
1.00001e-14
1e-14
1e-14
1e-14
1e-14
1e-14
1e-14
1e-14
1e-14
1e-14
1e-14
1e-14
1e-14
1e-14
1e-14
1.00001e-14
1e-14
1e-14
1e-14
1e-14
1e-14
1e-14
1e-14
1e-14
1e-14
1e-14
1e-14
1e-14
1e-14
1e-14
1e-14
1e-14
1e-14
1e-14
1e-14
1e-14
1.00001e-14
1e-14
1e-14
1e-14
1e-14
1e-14
1e-14
1e-14
1e-14
1e-14
1e-14
1e-14
1.00001e-14
1e-14
1e-14
1e-14
1e-14
1e-14
1e-14
1e-14
1e-14
1e-14
1e-14
1e-14
1e-14
1.00001e-14
1.00001e-14
1e-14
1e-14
1e-14
1e-14
1e-14
1e-14
1e-14
1e-14
1e-14
1e-14
1e-14
1.00001e-14
1e-14
1e-14
1e-14
1e-14
1e-14
1e-14
1e-14
1e-14
1e-14
1e-14
1e-14
1e-14
1e-14
1.00001e-14
1e-14
1e-14
1e-14
1e-14
1e-14
1e-14
1e-14
1e-14
1e-14
1e-14
1e-14
1e-14
1e-14
1.00001e-14
1e-14
1e-14
1e-14
1e-14
1e-14
1e-14
1e-14
1e-14
1e-14
1e-14
1e-14
1e-14
1e-14
1.00001e-14
1e-14
1e-14
1e-14
1e-14
1e-14
1e-14
1e-14
1e-14
1e-14
1e-14
1e-14
1e-14
1.00001e-14
1e-14
1e-14
1e-14
1e-14
1e-14
1e-14
1e-14
1e-14
1e-14
1e-14
1e-14
1e-14
1e-14
1.00001e-14
1.00001e-14
1e-14
1e-14
1.00001e-14
1e-14
1.00001e-14
1e-14
1.00001e-14
1.00001e-14
1.00001e-14
1.00001e-14
1.00001e-14
1.00001e-14
1.00001e-14
1e-14
1e-14
1e-14
1e-14
1e-14
1e-14
1e-14
1e-14
1e-14
1e-14
1.00001e-14
1e-14
1e-14
1e-14
1e-14
1e-14
1e-14
1e-14
1e-14
1e-14
1e-14
1e-14
1e-14
1e-14
1e-14
1e-14
1e-14
1e-14
1e-14
1e-14
1e-14
1e-14
1e-14
1e-14
1e-14
1e-14
1e-14
1e-14
1e-14
1e-14
1e-14
1e-14
1e-14
1e-14
1e-14
1e-14
1e-14
1e-14
1e-14
1e-14
1e-14
1e-14
1e-14
1e-14
1e-14
1e-14
1e-14
1e-14
1e-14
1e-14
1e-14
1e-14
1e-14
1e-14
1e-14
1e-14
1e-14
1e-14
1e-14
1e-14
1e-14
1e-14
1e-14
1.00001e-14
1e-14
1e-14
1e-14
1e-14
1e-14
1e-14
1e-14
1e-14
1e-14
1e-14
1e-14
1e-14
1.00001e-14
1e-14
1e-14
1e-14
1e-14
1e-14
1e-14
1e-14
1e-14
1e-14
1e-14
1e-14
1e-14
1e-14
1.00001e-14
1e-14
1e-14
1e-14
1e-14
1e-14
1e-14
1e-14
1e-14
1e-14
1e-14
1e-14
1e-14
1.00001e-14
1.00001e-14
1e-14
1e-14
1e-14
1e-14
1e-14
1e-14
1e-14
1e-14
1e-14
1e-14
1e-14
1.00001e-14
1e-14
1e-14
1e-14
1e-14
1e-14
1e-14
1e-14
1e-14
1e-14
1e-14
1e-14
1e-14
1.00001e-14
1.00001e-14
1e-14
1e-14
1e-14
1e-14
1e-14
1e-14
1e-14
1e-14
1e-14
1e-14
1e-14
1.00001e-14
1.00001e-14
1.00001e-14
1e-14
1.00001e-14
1e-14
1e-14
1.00001e-14
1e-14
1e-14
1e-14
1e-14
1e-14
1.00001e-14
1.00001e-14
1.00001e-14
1.00001e-14
1e-14
1e-14
1e-14
1e-14
1.3203e-12
1.36114e-13
1.00713e-13
1.10833e-14
1.39889e-14
8.04817e-14
6.30522e-13
4.5282e-14
3.22334e-14
5.95899e-13
5.58209e-13
2.7342e-14
2.51515e-14
1.14093e-12
4.96791e-13
1.13145e-14
3.7755e-13
7.24736e-14
2.18839e-14
5.43119e-14
5.29278e-14
1.01641e-14
1.29753e-14
1e-14
1.57483e-13
1.19351e-13
1.56742e-14
5.86686e-14
1.75308e-14
1.2521e-14
1.02043e-14
1.1758e-12
1.14317e-12
9.83244e-14
4.73049e-13
3.76035e-14
1.82968e-14
1.05323e-14
1.16806e-12
1.16422e-12
8.81872e-14
1.14129e-12
1.17578e-12
9.82501e-14
1e-14
4.73108e-13
1.82883e-14
3.75546e-14
1.05286e-14
1.14089e-12
1.19692e-13
1.57418e-13
1.56898e-14
4.96756e-13
1.1313e-14
5.86553e-14
1.25198e-14
1.75295e-14
1.02042e-14
7.24723e-14
3.7754e-13
2.18833e-14
1.32033e-12
1.36107e-13
5.43e-14
1.0164e-14
5.2926e-14
1.29746e-14
1.00729e-13
1.10833e-14
1.39906e-14
8.04728e-14
4.52751e-14
6.30581e-13
3.22456e-14
5.96e-13
2.73681e-14
5.57471e-13
2.51327e-14
1.16066e-12
1e-14
1.31155e-12
1.17225e-13
1e-14
1.02493e-14
9.13586e-14
1.08119e-14
1e-14
3.15677e-14
1.32185e-14
7.0743e-14
4.47246e-13
1.43239e-14
2.26527e-14
6.24102e-13
3.97535e-14
2.92887e-14
4.01704e-13
1.76258e-14
1.65362e-14
5.89046e-13
5.5126e-13
2.51521e-14
2.30194e-14
8.24921e-13
1.12702e-12
1.14729e-13
1.00011e-14
4.94082e-13
1.2755e-14
2.76325e-13
2.55521e-14
1.70789e-14
3.74917e-13
6.44534e-14
2.03754e-14
3.76227e-14
1.02345e-14
1e-14
5.06488e-14
4.58895e-14
1.02058e-14
1.19735e-14
1e-14
1e-14
1e-14
3.08777e-14
1.42155e-14
1.37086e-13
1.1118e-13
1.55441e-14
1.11596e-14
1e-14
1.01536e-14
5.10216e-14
1.65715e-14
1.19146e-14
1.01232e-14
8.88285e-13
3.4167e-13
2.36575e-14
1.16132e-12
1.15482e-12
9.08052e-14
1.95969e-14
1.30429e-14
1.00798e-14
4.72459e-13
3.36885e-14
1.72777e-14
1.02957e-14
4.03747e-13
4.03548e-13
1.89758e-14
1.17559e-12
1.17167e-12
8.16215e-14
3.42563e-13
8.88317e-13
2.36305e-14
1.15315e-12
1.16126e-12
9.06843e-14
1e-14
1e-14
1.30426e-14
1.95898e-14
1.00803e-14
4.72457e-13
1.72654e-14
3.36823e-14
1.02944e-14
8.24893e-13
1.12697e-12
3.08813e-14
1e-14
1.42186e-14
1.11165e-13
1.37086e-13
1.55446e-14
1.14741e-13
1.00011e-14
4.94064e-13
1.27546e-14
1e-14
1.11596e-14
1.01536e-14
5.10155e-14
1.19138e-14
1.65708e-14
1.01232e-14
2.55517e-14
2.76324e-13
1.70789e-14
6.4451e-14
3.74916e-13
2.03749e-14
1.16065e-12
1e-14
1.31155e-12
1.17227e-13
1.02344e-14
3.76226e-14
1e-14
5.06467e-14
1.02058e-14
4.58895e-14
1.19732e-14
1e-14
1.02494e-14
9.13617e-14
1.08116e-14
1e-14
3.15709e-14
1.32184e-14
7.07364e-14
1.43239e-14
4.47181e-13
2.26603e-14
3.97504e-14
6.24149e-13
2.93008e-14
1.76343e-14
4.01329e-13
1.6535e-14
5.89106e-13
2.51759e-14
5.50938e-13
2.30142e-14
1.16325e-12
1e-14
1.31189e-12
1.18352e-13
1e-14
1.02353e-14
9.18004e-14
1.07433e-14
1e-14
3.42137e-14
1.31635e-14
7.01554e-14
4.53323e-13
1.42811e-14
2.22226e-14
6.24154e-13
3.93383e-14
2.9205e-14
4.0556e-13
1.75704e-14
1.64818e-14
5.88893e-13
5.51133e-13
2.50676e-14
2.29335e-14
8.4102e-13
1.12809e-12
1.30428e-13
1e-14
4.92453e-13
1.31815e-14
2.79455e-13
2.52652e-14
1.6908e-14
3.75298e-13
6.45447e-14
2.0345e-14
3.70774e-14
1.02592e-14
1e-14
4.96336e-14
4.57644e-14
1.01869e-14
1.18734e-14
1e-14
1e-14
1e-14
3.36146e-14
1.40757e-14
1.39498e-13
1.10311e-13
1.54922e-14
1.09471e-14
1e-14
1.01416e-14
5.15431e-14
1.66554e-14
1.18266e-14
1.01204e-14
8.97464e-13
3.75883e-13
2.6589e-14
1.16336e-12
1.14893e-12
8.9122e-14
1.91334e-14
1.28069e-14
1.01032e-14
4.73153e-13
3.40079e-14
1.7073e-14
1.0306e-14
4.39557e-13
4.39027e-13
2.11417e-14
1.17013e-12
1.16622e-12
8.03924e-14
3.76542e-13
8.97503e-13
2.65611e-14
1.1473e-12
1.1633e-12
8.90042e-14
1e-14
1e-14
1.2807e-14
1.9134e-14
1.01035e-14
4.73155e-13
1.7061e-14
3.40044e-14
1.03051e-14
8.40997e-13
1.12805e-12
3.36101e-14
1e-14
1.40757e-14
1.10302e-13
1.39496e-13
1.54913e-14
1.30454e-13
1e-14
4.92434e-13
1.31814e-14
1e-14
1.09472e-14
1.01416e-14
5.15377e-14
1.1826e-14
1.66546e-14
1.01204e-14
2.52649e-14
2.79451e-13
1.69078e-14
6.45419e-14
3.75297e-13
2.03443e-14
1.16323e-12
1e-14
1.31189e-12
1.1835e-13
1.02592e-14
3.70768e-14
1e-14
4.96306e-14
1.01869e-14
4.57627e-14
1.1873e-14
1e-14
1.02352e-14
9.18036e-14
1.07434e-14
1e-14
3.42187e-14
1.31636e-14
7.01489e-14
1.42819e-14
4.53247e-13
2.22291e-14
3.93364e-14
6.24203e-13
2.92174e-14
1.75779e-14
4.05233e-13
1.64832e-14
5.88952e-13
2.50908e-14
5.50818e-13
2.2929e-14
1.16099e-12
1e-14
1.31202e-12
1.18557e-13
1e-14
1.02342e-14
9.17518e-14
1.07349e-14
1e-14
3.49633e-14
1.31583e-14
7.03065e-14
4.53937e-13
1.43257e-14
2.23045e-14
6.24303e-13
3.93503e-14
2.92809e-14
4.06016e-13
1.76749e-14
1.65844e-14
5.88919e-13
5.51263e-13
2.51206e-14
2.29752e-14
8.41665e-13
1.12842e-12
1.29945e-13
1e-14
4.91587e-13
1.32794e-14
2.79668e-13
2.55693e-14
1.69792e-14
3.75594e-13
6.46604e-14
2.03978e-14
3.73715e-14
1.02639e-14
1e-14
4.93914e-14
4.58561e-14
1.0185e-14
1.18601e-14
1e-14
1e-14
1e-14
3.421e-14
1.40815e-14
1.40748e-13
1.10189e-13
1.54853e-14
1.09649e-14
1e-14
1.01371e-14
5.17199e-14
1.67084e-14
1.17992e-14
1.0116e-14
8.96841e-13
3.75909e-13
2.72416e-14
1.16371e-12
1.14793e-12
8.88571e-14
1.92442e-14
1.27786e-14
1.0106e-14
4.73276e-13
3.41023e-14
1.70601e-14
1.02972e-14
4.39941e-13
4.39419e-13
2.15827e-14
1.16912e-12
1.16523e-12
8.0175e-14
3.76577e-13
8.96912e-13
2.72145e-14
1.14629e-12
1.16365e-12
8.87397e-14
1e-14
1e-14
1.27787e-14
1.92451e-14
1.01063e-14
4.73276e-13
1.70478e-14
3.40982e-14
1.02964e-14
8.41635e-13
1.12838e-12
3.42094e-14
1e-14
1.40813e-14
1.10179e-13
1.40746e-13
1.54845e-14
1.29967e-13
1e-14
4.91576e-13
1.32795e-14
1e-14
1.09648e-14
1.01372e-14
5.17149e-14
1.17987e-14
1.67075e-14
1.0116e-14
2.5568e-14
2.79667e-13
1.69789e-14
6.46574e-14
3.75594e-13
2.03974e-14
1.16098e-12
1e-14
1.31202e-12
1.18564e-13
1.02638e-14
3.73708e-14
1e-14
4.93875e-14
1.01851e-14
4.58546e-14
1.18598e-14
1e-14
1.02342e-14
9.1754e-14
1.0735e-14
1e-14
3.49668e-14
1.31588e-14
7.03e-14
1.43263e-14
4.53858e-13
2.2311e-14
3.93484e-14
6.24351e-13
2.92934e-14
1.76821e-14
4.05697e-13
1.65856e-14
5.88987e-13
2.51443e-14
5.50941e-13
2.29706e-14
1.16006e-12
1e-14
1.31184e-12
1.18606e-13
1e-14
1.02327e-14
9.16294e-14
1.07462e-14
1e-14
3.51936e-14
1.3154e-14
7.07056e-14
4.53823e-13
1.42546e-14
2.2323e-14
6.24446e-13
3.95761e-14
2.94178e-14
4.06005e-13
1.76874e-14
1.65924e-14
5.88991e-13
5.51239e-13
2.51996e-14
2.30322e-14
8.41859e-13
1.12859e-12
1.29398e-13
1e-14
4.90882e-13
1.33539e-14
2.79702e-13
2.54913e-14
1.69909e-14
3.7604e-13
6.47382e-14
2.04317e-14
3.74844e-14
1.02627e-14
1e-14
4.91132e-14
4.59733e-14
1.01834e-14
1.18528e-14
1e-14
1e-14
1e-14
3.41572e-14
1.40662e-14
1.41882e-13
1.09995e-13
1.54721e-14
1.09855e-14
1e-14
1.01338e-14
5.17433e-14
1.67365e-14
1.17719e-14
1.01096e-14
8.96801e-13
3.75524e-13
2.72857e-14
1.16369e-12
1.14778e-12
8.88457e-14
1.92707e-14
1.27727e-14
1.01037e-14
4.73285e-13
3.41024e-14
1.7051e-14
1.029e-14
4.39708e-13
4.39198e-13
2.1613e-14
1.16883e-12
1.16495e-12
8.01833e-14
3.76198e-13
8.96854e-13
2.72565e-14
1.14614e-12
1.16363e-12
8.87268e-14
1e-14
1e-14
1.2773e-14
1.92707e-14
1.0104e-14
4.73281e-13
1.70384e-14
3.40974e-14
1.02893e-14
8.41839e-13
1.12855e-12
3.41553e-14
1e-14
1.40658e-14
1.09984e-13
1.41884e-13
1.54717e-14
1.2942e-13
1e-14
4.90871e-13
1.33542e-14
1e-14
1.09854e-14
1.01338e-14
5.17376e-14
1.17713e-14
1.67353e-14
1.01096e-14
2.54897e-14
2.797e-13
1.69907e-14
6.4735e-14
3.76042e-13
2.04314e-14
1.16004e-12
1e-14
1.31184e-12
1.18608e-13
1.02627e-14
3.74846e-14
1e-14
4.91092e-14
1.01834e-14
4.59717e-14
1.18525e-14
1e-14
1.02327e-14
9.16319e-14
1.07463e-14
1e-14
3.51978e-14
1.31543e-14
7.07006e-14
1.42553e-14
4.53753e-13
2.23294e-14
3.95746e-14
6.24494e-13
2.94307e-14
1.76947e-14
4.05688e-13
1.65934e-14
5.89055e-13
2.52241e-14
5.50911e-13
2.30274e-14
1.15936e-12
1e-14
1.31153e-12
1.19242e-13
1e-14
1.02236e-14
9.16462e-14
1.084e-14
1e-14
3.56171e-14
1.3227e-14
7.15499e-14
4.52765e-13
1.41162e-14
2.23451e-14
6.24495e-13
4.03562e-14
2.98041e-14
4.05248e-13
1.76794e-14
1.65744e-14
5.89509e-13
5.51381e-13
2.53925e-14
2.31506e-14
8.41932e-13
1.12879e-12
1.28362e-13
1e-14
4.89931e-13
1.3459e-14
2.79784e-13
2.52608e-14
1.69802e-14
3.77188e-13
6.50124e-14
2.05056e-14
3.77411e-14
1.02571e-14
1e-14
4.82903e-14
4.64372e-14
1.01786e-14
1.1841e-14
1e-14
1e-14
1e-14
3.38596e-14
1.401e-14
1.43414e-13
1.09994e-13
1.54904e-14
1.10161e-14
1e-14
1.01328e-14
5.18813e-14
1.67766e-14
1.1744e-14
1.0101e-14
8.96693e-13
3.75273e-13
2.72475e-14
1.16359e-12
1.14732e-12
8.92389e-14
1.92393e-14
1.27583e-14
1.00911e-14
4.7322e-13
3.41328e-14
1.7072e-14
1.02874e-14
4.39429e-13
4.38926e-13
2.16002e-14
1.1684e-12
1.16453e-12
8.04263e-14
3.75963e-13
8.96745e-13
2.72157e-14
1.14568e-12
1.16353e-12
8.91233e-14
1e-14
1e-14
1.27588e-14
1.92386e-14
1.00914e-14
4.73204e-13
1.70586e-14
3.41272e-14
1.02868e-14
8.41915e-13
1.12875e-12
3.38562e-14
1e-14
1.40096e-14
1.09982e-13
1.43415e-13
1.54903e-14
1.28386e-13
1e-14
4.89916e-13
1.34599e-14
1e-14
1.1016e-14
1.01327e-14
5.18757e-14
1.17436e-14
1.67753e-14
1.0101e-14
2.52587e-14
2.79785e-13
1.698e-14
6.50089e-14
3.77192e-13
2.05055e-14
1.15935e-12
1e-14
1.31153e-12
1.19248e-13
1.02571e-14
3.77408e-14
1e-14
4.82884e-14
1.01786e-14
4.64361e-14
1.18406e-14
1e-14
1.02237e-14
9.16491e-14
1.084e-14
1e-14
3.56222e-14
1.32273e-14
7.15459e-14
1.41164e-14
4.52683e-13
2.23515e-14
4.03556e-14
6.24547e-13
2.98185e-14
1.7687e-14
4.04921e-13
1.65757e-14
5.89589e-13
2.54196e-14
5.51049e-13
2.31455e-14
1.15489e-12
1e-14
1.31207e-12
1.21292e-13
1e-14
1.01813e-14
9.46045e-14
1.11813e-14
1e-14
3.73214e-14
1.37674e-14
7.37339e-14
4.49381e-13
1.36927e-14
2.22771e-14
6.25835e-13
4.27174e-14
3.10853e-14
4.02653e-13
1.73706e-14
1.62876e-14
5.91677e-13
5.5276e-13
2.64838e-14
2.3909e-14
8.41283e-13
1.13123e-12
1.25028e-13
1e-14
4.86852e-13
1.35035e-14
2.79222e-13
2.47727e-14
1.68318e-14
3.8057e-13
6.60637e-14
2.08443e-14
3.85578e-14
1.02316e-14
1e-14
4.90513e-14
4.9114e-14
1.02043e-14
1.18574e-14
1e-14
1e-14
1e-14
3.28833e-14
1.38926e-14
1.50087e-13
1.11874e-13
1.56356e-14
1.10325e-14
1e-14
1.01164e-14
5.27886e-14
1.68556e-14
1.17438e-14
1.00913e-14
8.95597e-13
3.73963e-13
2.71685e-14
1.16442e-12
1.14532e-12
9.15102e-14
1.90286e-14
1.26933e-14
1.01218e-14
4.76072e-13
3.47398e-14
1.72459e-14
1.02558e-14
4.38456e-13
4.37931e-13
2.16505e-14
1.16726e-12
1.16354e-12
8.08963e-14
3.74632e-13
8.95641e-13
2.71371e-14
1.14365e-12
1.16438e-12
9.14209e-14
1e-14
1e-14
1.26942e-14
1.90263e-14
1.01219e-14
4.76033e-13
1.723e-14
3.47343e-14
1.02556e-14
8.41262e-13
1.13122e-12
3.28789e-14
1e-14
1.3892e-14
1.11863e-13
1.50093e-13
1.5636e-14
1.25044e-13
1e-14
4.86841e-13
1.35048e-14
1e-14
1.10323e-14
1.01164e-14
5.27852e-14