/*--------------------------------*- C++ -*----------------------------------*\
| =========                 |                                                 |
| \\      /  F ield         | OpenFOAM: The Open Source CFD Toolbox           |
|  \\    /   O peration     | Version:  2.1.1                                 |
|   \\  /    A nd           | Web:      www.OpenFOAM.org                      |
|    \\/     M anipulation  |                                                 |
\*---------------------------------------------------------------------------*/
FoamFile
{
    version     2.0;
    format      ascii;
    class       surfaceScalarField;
    location    "0.004";
    object      phi;
}
// * * * * * * * * * * * * * * * * * * * * * * * * * * * * * * * * * * * * * //

dimensions      [0 3 -1 0 0 0 0];

internalField   nonuniform List<scalar> 
29335
(
-1.4324e-11
-5.54896e-13
5.65468e-11
-4.16192e-11
-2.30481e-13
4.13372e-13
8.71913e-10
6.1963e-11
6.27197e-11
-6.19619e-11
-6.27971e-11
-8.7182e-10
6.40561e-15
-1.29953e-13
1.12547e-09
-1.12538e-09
-2.94232e-13
3.74559e-13
1.12881e-09
-1.12875e-09
-1.83783e-13
-2.36464e-14
1.1304e-09
-1.13037e-09
-2.93849e-13
1.6616e-13
1.13535e-09
-1.13533e-09
-2.40529e-13
1.64293e-14
1.13847e-09
-1.13849e-09
-2.67016e-13
8.26199e-14
1.14032e-09
-1.14034e-09
-2.31194e-13
3.88128e-14
1.14174e-09
-1.14179e-09
-2.15595e-13
6.01796e-14
1.14297e-09
-1.14303e-09
-1.73336e-13
4.16099e-14
1.14418e-09
-1.14426e-09
-1.36332e-13
4.6606e-14
1.1454e-09
-1.14548e-09
-8.95025e-14
4.47895e-14
1.14663e-09
-1.14672e-09
-4.50694e-14
4.6263e-14
1.14783e-09
-1.14792e-09
4.49022e-14
1.14876e-09
-1.14886e-09
1.37685e-12
-1.4142e-11
-2.01901e-12
4.96836e-11
-3.48994e-11
1.68381e-14
1.12338e-13
8.77756e-10
6.46074e-11
6.59589e-11
-6.45064e-11
-6.59348e-11
-8.77597e-10
2.01205e-13
-4.28079e-13
1.13934e-09
-1.13923e-09
-2.31739e-13
7.11025e-13
1.13694e-09
-1.13684e-09
-1.02411e-13
-1.80806e-13
1.13469e-09
-1.13467e-09
-2.67475e-13
3.0121e-13
1.13731e-09
-1.13728e-09
-2.21065e-13
-1.99475e-14
1.13911e-09
-1.13912e-09
-2.57266e-13
1.38536e-13
1.14028e-09
-1.1403e-09
-2.22863e-13
5.38756e-14
1.14146e-09
-1.14151e-09
-2.06713e-13
9.19455e-14
1.14262e-09
-1.14267e-09
-1.66711e-13
7.2626e-14
1.14382e-09
-1.1439e-09
-1.32657e-13
8.88874e-14
1.14505e-09
-1.14512e-09
-8.85732e-14
8.56435e-14
1.14623e-09
-1.14631e-09
-4.56554e-14
8.9736e-14
1.14726e-09
-1.14735e-09
8.87633e-14
1.14786e-09
-1.14796e-09
1.95575e-12
-8.43288e-12
1.51958e-11
-8.71864e-12
-2.65088e-13
8.96706e-13
9.73898e-10
5.74223e-11
4.00753e-11
-5.73782e-11
-4.07559e-11
-9.7378e-10
-1.348e-13
-6.82989e-13
1.18639e-09
-1.18626e-09
-2.79718e-13
7.59099e-13
1.1545e-09
-1.15441e-09
-2.56192e-13
-2.53755e-13
1.14033e-09
-1.14028e-09
-2.67486e-13
2.82632e-13
1.13952e-09
-1.13949e-09
-2.48632e-13
-3.64119e-14
1.13981e-09
-1.13981e-09
-2.43693e-13
1.37948e-13
1.14019e-09
-1.1402e-09
-2.11513e-13
5.60371e-14
1.141e-09
-1.14103e-09
-1.90212e-13
1.20714e-13
1.14201e-09
-1.14206e-09
-1.54506e-13
1.03653e-13
1.14317e-09
-1.14324e-09
-1.20975e-13
1.27963e-13
1.14437e-09
-1.14445e-09
-8.01895e-14
1.26733e-13
1.14545e-09
-1.14553e-09
-4.08414e-14
1.34179e-13
1.14625e-09
-1.14633e-09
1.33975e-13
1.14665e-09
-1.14674e-09
-3.00184e-13
5.77913e-11
7.61702e-10
4.26808e-11
4.83016e-11
-4.23527e-11
-4.82008e-11
4.44644e-11
-5.66596e-11
-4.49035e-11
-7.61626e-10
8.62603e-13
-1.92747e-12
1.16259e-09
-1.16251e-09
-2.97603e-13
1.84031e-12
1.16961e-09
-1.16953e-09
-1.19687e-13
-4.73637e-13
1.14424e-09
-1.1442e-09
-2.15756e-13
3.38489e-13
1.13935e-09
-1.13931e-09
-1.96453e-13
-5.45828e-14
1.13913e-09
-1.13913e-09
-2.15639e-13
1.62236e-13
1.13921e-09
-1.13922e-09
-1.9722e-13
6.98411e-14
1.1399e-09
-1.13993e-09
-1.82403e-13
1.46424e-13
1.14093e-09
-1.14097e-09
-1.5472e-13
1.32778e-13
1.14217e-09
-1.14222e-09
-1.23182e-13
1.59736e-13
1.14338e-09
-1.14345e-09
-8.53401e-14
1.61076e-13
1.14436e-09
-1.14444e-09
-4.41055e-14
1.68461e-13
1.14505e-09
-1.14513e-09
1.69479e-13
1.14541e-09
-1.14549e-09
6.49615e-12
-1.35101e-11
1.23855e-11
1.16689e-10
-6.4269e-11
-1.33635e-12
8.37032e-13
9.01494e-10
4.65747e-11
5.50227e-11
-4.79148e-11
-5.51647e-11
-9.0144e-10
-7.6306e-14
5.10987e-13
1.15653e-09
-1.15646e-09
-5.0296e-13
-9.53237e-14
1.14706e-09
-1.14701e-09
-2.24391e-13
1.69465e-14
1.1368e-09
-1.13675e-09
-2.30135e-13
-6.37326e-14
1.13648e-09
-1.13646e-09
-1.84844e-13
1.17793e-13
1.13706e-09
-1.13706e-09
-1.72873e-13
8.09565e-14
1.13806e-09
-1.13808e-09
-1.464e-13
1.54074e-13
1.13941e-09
-1.13944e-09
-1.21822e-13
1.58293e-13
1.14084e-09
-1.14089e-09
-9.24583e-14
1.88342e-13
1.14211e-09
-1.14216e-09
-6.22465e-14
1.978e-13
1.14316e-09
-1.14323e-09
-3.07546e-14
2.08076e-13
1.14382e-09
-1.14389e-09
2.11841e-13
1.14419e-09
-1.14426e-09
-2.54241e-12
-9.65583e-12
-8.48098e-13
4.23824e-11
-2.9336e-11
-2.29699e-13
6.5019e-11
7.22003e-10
5.79172e-11
6.15997e-11
-5.74753e-11
-6.08474e-11
4.47043e-11
-6.46005e-11
-4.52898e-11
-7.21964e-10
9.36839e-13
-7.17476e-13
1.13162e-09
-1.13156e-09
-1.7229e-13
9.69552e-13
1.15514e-09
-1.15509e-09
-6.49324e-14
-1.28087e-13
1.13456e-09
-1.13452e-09
-1.50186e-13
1.02636e-14
1.13225e-09
-1.13224e-09
-1.4897e-13
1.09888e-13
1.13388e-09
-1.13388e-09
-1.54202e-13
9.94363e-14
1.13572e-09
-1.13574e-09
-1.43078e-13
1.64394e-13
1.13764e-09
-1.13766e-09
-1.36678e-13
1.87244e-13
1.13939e-09
-1.13942e-09
-1.10299e-13
2.03195e-13
1.14088e-09
-1.14092e-09
-8.20609e-14
2.20549e-13
1.142e-09
-1.14206e-09
-4.16734e-14
2.22024e-13
1.14261e-09
-1.14267e-09
2.27596e-13
1.14297e-09
-1.14303e-09
1.62874e-11
-1.44362e-11
1.40266e-11
1.02185e-10
-5.30434e-11
-1.23195e-12
1.64652e-12
8.8202e-10
4.69659e-11
5.8897e-11
-4.81493e-11
-5.889e-11
-8.81976e-10
-1.22395e-13
-1.88865e-13
1.1462e-09
-1.14615e-09
-3.35915e-13
4.57167e-14
1.13649e-09
-1.13644e-09
-6.64204e-14
-2.91526e-13
1.12766e-09
-1.12762e-09
-8.88486e-14
1.2599e-13
1.12983e-09
-1.12982e-09
-8.67384e-14
9.82159e-14
1.13308e-09
-1.13308e-09
-6.91356e-14
1.60168e-13
1.13573e-09
-1.13575e-09
-5.68462e-14
2.01699e-13
1.13802e-09
-1.13804e-09
-4.08833e-14
2.2165e-13
1.13987e-09
-1.1399e-09
-2.61489e-14
2.49345e-13
1.14097e-09
-1.14102e-09
-1.19477e-14
2.54366e-13
1.14145e-09
-1.14149e-09
2.63249e-13
1.14173e-09
-1.14178e-09
-1.87409e-12
-1.12967e-11
-3.10396e-12
5.15905e-11
-3.53157e-11
-3.0046e-13
5.83747e-11
7.46818e-10
5.84154e-11
6.28034e-11
-5.79147e-11
-6.18894e-11
4.38014e-11
-5.72287e-11
-4.44567e-11
-7.46775e-10
1.08012e-12
-1.6202e-12
1.13629e-09
-1.13624e-09
-1.7068e-13
1.24886e-12
1.14415e-09
-1.1441e-09
-9.70849e-14
-3.92501e-13
1.12371e-09
-1.12368e-09
-1.11986e-13
1.13765e-13
1.1249e-09
-1.12487e-09
-9.39769e-14
7.64328e-14
1.12994e-09
-1.12993e-09
-9.87997e-14
1.60701e-13
1.13387e-09
-1.13387e-09
-1.37277e-13
2.4583e-13
1.13702e-09
-1.13703e-09
-1.14155e-13
2.0759e-13
1.13917e-09
-1.13918e-09
-9.80532e-14
2.48584e-13
1.14015e-09
-1.14017e-09
-4.94031e-14
2.30439e-13
1.14026e-09
-1.14028e-09
2.38919e-13
1.14029e-09
-1.14032e-09
1.14372e-11
-1.43581e-11
6.03791e-12
1.27822e-10
-7.25635e-11
-1.74936e-12
1.31024e-12
8.81492e-10
4.52257e-11
5.28115e-11
-4.62697e-11
-5.29884e-11
-8.81451e-10
4.24539e-13
-9.74505e-13
1.13202e-09
-1.13197e-09
4.04616e-13
-4.12205e-13
1.12703e-09
-1.12699e-09
3.0831e-13
1.81728e-13
1.12393e-09
-1.1239e-09
9.18131e-15
3.47422e-13
1.12766e-09
-1.12764e-09
8.6823e-14
7.31082e-14
1.1322e-09
-1.1322e-09
8.42985e-14
2.46032e-13
1.1364e-09
-1.1364e-09
7.66698e-14
2.22663e-13
1.13905e-09
-1.13905e-09
6.11374e-14
2.78839e-13
1.13974e-09
-1.13975e-09
3.51669e-14
2.6949e-13
1.13906e-09
-1.13907e-09
2.87315e-13
1.13844e-09
-1.13846e-09
2.64244e-12
-1.23216e-11
2.35063e-11
-1.38271e-11
1.01172e-12
4.32678e-11
7.20375e-10
5.67819e-11
5.05833e-11
-5.62988e-11
-5.0805e-11
3.3706e-11
-4.23093e-11
-3.46624e-11
-7.2034e-10
9.78187e-13
-1.0077e-12
1.12269e-09
-1.12262e-09
-1.23798e-12
1.75434e-12
1.13208e-09
-1.13203e-09
-2.96494e-14
-1.07338e-12
1.14408e-09
-1.14404e-09
1.51316e-13
1.31769e-13
1.13637e-09
-1.13633e-09
1.02314e-14
1.80727e-13
1.13444e-09
-1.13441e-09
-2.99712e-13
5.31412e-13
1.13668e-09
-1.13665e-09
-2.14406e-13
1.19794e-13
1.13926e-09
-1.13925e-09
-2.41785e-13
2.89009e-13
1.13942e-09
-1.1394e-09
-1.01932e-13
1.16486e-13
1.13725e-09
-1.13724e-09
1.73118e-13
1.1353e-09
-1.13529e-09
1.0623e-11
4.52203e-11
-1.25754e-11
-1.30584e-12
5.05249e-11
7.19131e-10
3.38516e-11
4.32863e-11
-3.48064e-11
-4.2335e-11
5.67756e-11
-5.07489e-11
-5.6289e-11
-7.19092e-10
1.63054e-12
5.29529e-11
8.80852e-10
4.52814e-11
-5.31292e-11
-4.63255e-11
-8.80812e-10
2.01333e-13
3.05667e-13
1.13584e-09
-1.13579e-09
-9.46018e-13
1.23464e-12
1.14594e-09
-1.1459e-09
1.18776e-13
-9.22061e-13
1.15495e-09
-1.15491e-09
5.4415e-13
7.30869e-14
1.14692e-09
-1.14689e-09
3.21129e-13
3.14588e-13
1.1441e-09
-1.14408e-09
2.82293e-13
3.07057e-13
1.14023e-09
-1.14021e-09
1.32656e-13
2.49379e-13
1.13459e-09
-1.13458e-09
2.87814e-13
1.13035e-09
-1.13033e-09
1.88886e-11
4.71749e-11
-1.55377e-11
-6.88701e-12
3.15418e-13
1.01948e-11
9.05729e-11
-4.1243e-11
-1.63587e-12
6.28108e-11
7.46532e-10
4.37503e-11
5.83363e-11
-4.44125e-11
-5.71934e-11
5.84294e-11
-6.18962e-11
-5.79258e-11
-7.4649e-10
7.37486e-13
5.89053e-11
8.81785e-10
4.69767e-11
-5.89029e-11
-4.81584e-11
-8.81743e-10
-4.73331e-13
2.34865e-13
1.13146e-09
-1.13141e-09
-1.7892e-12
1.33888e-12
1.15641e-09
-1.15636e-09
-6.84554e-13
-8.38465e-13
1.16949e-09
-1.16944e-09
-6.15766e-13
1.88616e-13
1.15438e-09
-1.15433e-09
-2.33711e-13
-1.80536e-13
1.13684e-09
-1.13679e-09
5.67356e-15
1.12872e-09
-1.12868e-09
5.81468e-12
-4.4738e-12
1.0828e-11
1.0733e-10
-5.66869e-11
5.54096e-12
-6.96131e-12
1.26692e-11
9.10762e-11
-4.34196e-11
-8.30525e-13
6.15986e-11
7.21954e-10
4.46962e-11
6.50155e-11
-4.52825e-11
-6.45932e-11
5.79198e-11
-6.08498e-11
-5.74756e-11
-7.21918e-10
1.95824e-12
5.50201e-11
9.01426e-10
4.65758e-11
-5.51706e-11
-4.7914e-11
-9.01388e-10
7.44014e-13
3.20975e-13
1.16248e-09
-1.16243e-09
5.9618e-13
2.86755e-13
1.18629e-09
-1.18624e-09
2.65882e-13
1.08695e-13
1.13917e-09
-1.13912e-09
2.2741e-13
1.1254e-09
-1.12536e-09
-2.91305e-12
-4.89407e-12
2.65408e-11
-1.87337e-11
1.14119e-11
-8.41815e-12
7.98767e-12
1.19741e-10
-6.91239e-11
5.83131e-12
-7.01265e-12
1.0029e-11
9.05063e-11
-4.43333e-11
-8.505e-13
4.82982e-11
7.61676e-10
4.44616e-11
5.77915e-11
-4.49044e-11
-5.66562e-11
4.26831e-11
-4.8201e-11
-4.23466e-11
-7.61632e-10
-3.10915e-14
4.00742e-11
9.73817e-10
5.74319e-11
-4.07504e-11
-5.73455e-11
-9.73759e-10
-2.0225e-13
6.5974e-11
8.7771e-10
6.46117e-11
-6.58886e-11
-6.44672e-11
-8.7766e-10
6.27362e-11
8.71787e-10
6.19509e-11
-6.2752e-11
-6.19649e-11
-8.71733e-10
3.43558e-12
6.93822e-12
6.21207e-11
-2.41955e-11
-7.68642e-12
-1.02269e-12
9.09925e-11
-4.22101e-11
4.3702e-12
-1.51415e-12
1.30342e-11
1.02023e-10
-5.19389e-11
-9.52423e-13
1.08248e-12
1.43383e-11
9.67901e-11
-4.85219e-11
-4.16284e-11
-1.43265e-11
-5.01977e-13
5.65613e-11
-2.25633e-13
5.46006e-13
8.71975e-10
6.19722e-11
6.27218e-11
-6.19473e-11
-6.28164e-11
2.13816e-14
-6.12802e-14
1.12556e-09
-2.5977e-13
4.08727e-13
1.12887e-09
-1.37568e-13
-1.1942e-14
1.13043e-09
-2.43759e-13
1.77225e-13
1.13536e-09
-2.03452e-13
1.81153e-14
1.13848e-09
-2.12816e-13
8.03932e-14
1.14029e-09
-1.79334e-13
3.27184e-14
1.14171e-09
-1.69021e-13
5.30315e-14
1.14293e-09
-1.34779e-13
3.96162e-14
1.14412e-09
-1.07161e-13
3.90513e-14
1.14534e-09
-6.97379e-14
3.56867e-14
1.14656e-09
-3.61641e-14
3.6829e-14
1.14776e-09
3.63414e-14
1.14869e-09
-3.4907e-11
1.32915e-12
-1.41295e-11
-1.99424e-12
4.97017e-11
8.81512e-14
1.68741e-13
8.77999e-10
6.45985e-11
6.59491e-11
-6.4536e-11
-6.59643e-11
2.54415e-13
-3.6288e-13
1.13948e-09
-1.89174e-13
7.39586e-13
1.13705e-09
-4.6706e-14
-1.82398e-13
1.13472e-09
-2.18498e-13
3.10725e-13
1.13735e-09
-1.79391e-13
-2.80754e-14
1.13912e-09
-2.0389e-13
1.30859e-13
1.14026e-09
-1.72217e-13
3.76914e-14
1.14143e-09
-1.63721e-13
8.88703e-14
1.14257e-09
-1.29627e-13
5.6139e-14
1.14377e-09
-1.03523e-13
7.08365e-14
1.14499e-09
-6.85915e-14
6.63528e-14
1.14616e-09
-3.56439e-14
7.02265e-14
1.14719e-09
6.91711e-14
1.14779e-09
-8.71976e-12
1.9441e-12
-8.42257e-12
1.51982e-11
-2.44915e-13
9.2776e-13
9.74051e-10
5.74145e-11
4.00766e-11
-5.73986e-11
-4.07585e-11
-8.6009e-14
-6.82998e-13
1.18655e-09
-2.37338e-13
7.82542e-13
1.15461e-09
-2.04902e-13
-2.67675e-13
1.14038e-09
-2.18573e-13
2.91549e-13
1.13955e-09
-1.99262e-13
-5.18012e-14
1.13982e-09
-1.9494e-13
1.36802e-13
1.14019e-09
-1.66424e-13
3.49905e-14
1.14097e-09
-1.46664e-13
9.83344e-14
1.14198e-09
-1.16616e-13
7.83236e-14
1.14312e-09
-9.21315e-14
1.01052e-13
1.14432e-09
-6.02639e-14
9.84985e-14
1.14538e-09
-3.06099e-14
1.05465e-13
1.14618e-09
1.05151e-13
1.14658e-09
-2.5446e-13
5.77916e-11
7.61773e-10
4.26778e-11
4.83012e-11
-4.23576e-11
-4.82031e-11
4.44629e-11
-5.66595e-11
-4.49025e-11
8.92569e-13
-1.92215e-12
1.16268e-09
-2.67684e-13
1.8576e-12
1.16969e-09
-7.78848e-14
-4.95353e-13
1.14428e-09
-1.70497e-13
3.43807e-13
1.13939e-09
-1.61569e-13
-7.38361e-14
1.13914e-09
-1.68047e-13
1.55354e-13
1.1392e-09
-1.51728e-13
4.30743e-14
1.13988e-09
-1.41768e-13
1.18156e-13
1.1409e-09
-1.1968e-13
9.99887e-14
1.14212e-09
-9.58645e-14
1.25238e-13
1.14333e-09
-6.62174e-14
1.24414e-13
1.14431e-09
-3.43625e-14
1.31003e-13
1.14499e-09
1.31165e-13
1.14535e-09
-6.42721e-11
6.49504e-12
-1.35088e-11
1.23861e-11
1.16691e-10
-1.32236e-12
8.34309e-13
9.01548e-10
4.6575e-11
5.50239e-11
-4.79185e-11
-5.51686e-11
-5.35147e-14
5.20387e-13
1.1566e-09
-4.89424e-13
-1.08978e-13
1.14711e-09
-1.85053e-13
8.74022e-15
1.13683e-09
-1.88009e-13
-8.45846e-14
1.1365e-09
-1.38155e-13
9.33668e-14
1.13707e-09
-1.29066e-13
5.06183e-14
1.13804e-09
-1.07366e-13
1.2054e-13
1.13938e-09
-8.79205e-14
1.19773e-13
1.1408e-09
-6.62131e-14
1.48247e-13
1.14206e-09
-4.36079e-14
1.54713e-13
1.14311e-09
-2.11646e-14
1.64193e-13
1.14377e-09
1.66271e-13
1.14413e-09
-2.9337e-11
-2.54274e-12
-9.65569e-12
-8.47956e-13
4.23834e-11
-2.20493e-13
6.50201e-11
7.22038e-10
5.79174e-11
6.1601e-11
-5.74791e-11
-6.08498e-11
4.47048e-11
-6.46022e-11
-4.52906e-11
9.58909e-13
-7.12174e-13
1.13168e-09
-1.49086e-13
9.62801e-13
1.15517e-09
-3.13181e-14
-1.4468e-13
1.1346e-09
-1.11753e-13
-1.39996e-14
1.13226e-09
-1.10974e-13
8.51356e-14
1.13389e-09
-1.15983e-13
6.50788e-14
1.13572e-09
-1.08686e-13
1.27639e-13
1.13762e-09
-1.06662e-13
1.45036e-13
1.13936e-09
-8.68944e-14
1.59515e-13
1.14085e-09
-6.59832e-14
1.73027e-13
1.14197e-09
-3.41742e-14
1.72873e-13
1.14257e-09
1.76416e-13
1.14293e-09
-5.30453e-11
1.6287e-11
-1.44362e-11
1.40267e-11
1.02188e-10
-1.22054e-12
1.65139e-12
8.82059e-10
4.69668e-11
5.88982e-11
-4.81519e-11
-5.88925e-11
-9.3508e-14
-2.03213e-13
1.14624e-09
-3.07529e-13
3.54823e-14
1.13652e-09
-2.49386e-14
-3.18192e-13
1.12768e-09
-5.54017e-14
1.04121e-13
1.12984e-09
-5.19378e-14
6.30445e-14
1.13308e-09
-3.91445e-14
1.2455e-13
1.13572e-09
-2.92104e-14
1.56329e-13
1.138e-09
-1.99939e-14
1.75394e-13
1.13984e-09
-1.10682e-14
1.97855e-13
1.14094e-09
-4.62704e-15
2.01858e-13
1.14141e-09
2.09209e-13
1.14169e-09
-3.53168e-11
-1.87444e-12
-1.1297e-11
-3.10363e-12
5.15918e-11
-2.94116e-13
5.83792e-11
7.46853e-10
5.84174e-11
6.28065e-11
-5.79172e-11
-6.18907e-11
4.38033e-11
-5.72284e-11
-4.44573e-11
1.09222e-12
-1.62992e-12
1.13633e-09
-1.50165e-13
1.2399e-12
1.14419e-09
-7.87753e-14
-4.13506e-13
1.12373e-09
-8.86683e-14
9.97183e-14
1.12491e-09
-6.57768e-14
3.31358e-14
1.12994e-09
-7.08791e-14
1.26039e-13
1.13388e-09
-1.14077e-13
2.01977e-13
1.13702e-09
-9.73291e-14
1.77166e-13
1.13915e-09
-8.86701e-14
2.13329e-13
1.14013e-09
-4.54343e-14
1.88021e-13
1.14023e-09
1.97315e-13
1.14026e-09
-7.25665e-11
1.14387e-11
-1.43581e-11
6.03929e-12
1.27826e-10
-1.74452e-12
1.30617e-12
8.81523e-10
4.52267e-11
5.28139e-11
-4.62721e-11
-5.29901e-11
4.40405e-13
-9.83104e-13
1.13206e-09
4.25516e-13
-4.28308e-13
1.12706e-09
3.36961e-13
1.61586e-13
1.12396e-09
3.16729e-14
3.19252e-13
1.12768e-09
1.10857e-13
3.92369e-14
1.13221e-09
1.07451e-13
2.04711e-13
1.1364e-09
9.88767e-14
1.77878e-13
1.13906e-09
7.83931e-14
2.31952e-13
1.13974e-09
4.39731e-14
2.20735e-13
1.13906e-09
2.38151e-13
1.13844e-09
-1.38275e-11
2.64262e-12
-1.23219e-11
2.35068e-11
1.0117e-12
4.32668e-11
7.20405e-10
5.67847e-11
5.05865e-11
-5.63005e-11
-5.08061e-11
3.37064e-11
-4.23109e-11
-3.46629e-11
9.86734e-13
-1.00758e-12
1.12274e-09
-1.22813e-12
1.74886e-12
1.13211e-09
-1.56813e-14
-1.08513e-12
1.14412e-09
1.70758e-13
1.05222e-13
1.13639e-09
2.97067e-14
1.55555e-13
1.13447e-09
-3.02639e-13
5.22602e-13
1.13669e-09
-2.13624e-13
7.18302e-14
1.13928e-09
-2.44115e-13
2.49137e-13
1.13943e-09
-1.0295e-13
6.31926e-14
1.13727e-09
1.26354e-13
1.13531e-09
-1.25835e-11
1.06263e-11
4.5224e-11
-1.3026e-12
5.05266e-11
7.19158e-10
3.38545e-11
4.32913e-11
-3.48064e-11
-4.23344e-11
5.6778e-11
-5.07507e-11
-5.62908e-11
1.63962e-12
5.29545e-11
8.80882e-10
4.52821e-11
-5.31308e-11
-4.63276e-11
2.16029e-13
3.0013e-13
1.13588e-09
-9.37434e-13
1.2248e-12
1.14597e-09
1.33215e-13
-9.43614e-13
1.15498e-09
5.72027e-13
5.37527e-14
1.14695e-09
3.39125e-13
2.84994e-13
1.14412e-09
3.02091e-13
2.73106e-13
1.14024e-09
1.3835e-13
2.25406e-13
1.1346e-09
2.52719e-13
1.13036e-09
-1.55397e-11
1.88901e-11
4.7177e-11
-4.12456e-11
-6.88744e-12
3.15129e-13
1.01948e-11
9.05773e-11
-1.63844e-12
6.28145e-11
7.46564e-10
4.37523e-11
5.83399e-11
-4.44129e-11
-5.71932e-11
5.84323e-11
-6.18978e-11
-5.79276e-11
7.35233e-13
5.89073e-11
8.81816e-10
4.69779e-11
-5.89052e-11
-4.81605e-11
-4.77143e-13
2.2768e-13
1.1315e-09
-1.79497e-12
1.33074e-12
1.15645e-09
-6.89451e-13
-8.58585e-13
1.16953e-09
-6.12818e-13
1.58096e-13
1.15442e-09
-2.37108e-13
-1.80974e-13
1.13687e-09
-2.19771e-14
1.12876e-09
-5.66889e-11
5.81361e-12
-4.47317e-12
1.08293e-11
1.07334e-10
-4.34206e-11
5.54071e-12
-6.96144e-12
1.26698e-11
9.10788e-11
-8.2773e-13
6.16007e-11
7.2198e-10
4.46975e-11
6.50179e-11
-4.52841e-11
-6.45953e-11
5.79215e-11
-6.0852e-11
-5.74776e-11
1.96858e-12
5.5021e-11
9.01456e-10
4.65761e-11
-5.51742e-11
-4.79169e-11
7.55503e-13
3.13666e-13
1.16252e-09
6.00847e-13
2.74919e-13
1.18633e-09
2.76145e-13
1.02458e-13
1.13921e-09
2.18744e-13
1.12543e-09
-1.87344e-11
-2.9129e-12
-4.89443e-12
2.65418e-11
-6.91264e-11
1.14127e-11
-8.41849e-12
7.98789e-12
1.19746e-10
-4.43346e-11
5.83185e-12
-7.01405e-12
1.00283e-11
9.05091e-11
-8.55599e-13
4.83001e-11
7.61712e-10
4.44642e-11
5.77959e-11
-4.49048e-11
-5.66553e-11
4.26851e-11
-4.82029e-11
-4.23481e-11
-3.22924e-14
4.00757e-11
9.73863e-10
5.74316e-11
-4.07518e-11
-5.73493e-11
-2.02599e-13
6.59771e-11
8.7775e-10
6.46146e-11
-6.58904e-11
-6.44688e-11
6.27395e-11
8.71827e-10
6.19539e-11
-6.27538e-11
-6.19668e-11
-2.41962e-11
3.43488e-12
6.93965e-12
6.21224e-11
-4.22115e-11
-7.68585e-12
-1.0224e-12
9.09956e-11
-5.19405e-11
4.37009e-12
-1.51351e-12
1.30349e-11
1.02026e-10
-4.85233e-11
-9.52395e-13
1.08266e-12
1.43393e-11
9.67931e-11
-4.16143e-11
-1.43402e-11
-4.82226e-13
5.65162e-11
-2.2571e-13
5.6996e-13
8.72015e-10
6.19816e-11
6.27315e-11
-6.19473e-11
-6.28249e-11
3.41781e-14
-4.78348e-14
1.12565e-09
-2.36675e-13
4.19304e-13
1.12892e-09
-1.00606e-13
-1.76672e-14
1.13045e-09
-2.06696e-13
1.83251e-13
1.13538e-09
-1.57093e-13
1.46588e-14
1.13848e-09
-1.73113e-13
8.05237e-14
1.14027e-09
-1.40005e-13
2.79994e-14
1.14168e-09
-1.34374e-13
4.7739e-14
1.1429e-09
-1.05645e-13
3.30774e-14
1.14408e-09
-8.59089e-14
3.89593e-14
1.14529e-09
-5.58049e-14
3.04654e-14
1.14651e-09
-3.02783e-14
3.0577e-14
1.14771e-09
3.14058e-14
1.14863e-09
-3.49229e-11
1.30928e-12
-1.41293e-11
-1.98241e-12
4.97253e-11
1.03053e-13
1.7755e-13
8.78252e-10
6.4607e-11
6.59567e-11
-6.45501e-11
-6.59778e-11
2.80511e-13
-3.61311e-13
1.13961e-09
-1.51599e-13
7.44997e-13
1.13716e-09
-1.7459e-14
-1.87854e-13
1.13476e-09
-1.82058e-13
3.13594e-13
1.13738e-09
-1.32545e-13
-3.85769e-14
1.13912e-09
-1.64906e-13
1.27887e-13
1.14024e-09
-1.31979e-13
2.37279e-14
1.1414e-09
-1.30858e-13
7.88306e-14
1.14254e-09
-1.03321e-13
5.17746e-14
1.14373e-09
-8.27752e-14
5.91018e-14
1.14495e-09
-5.38638e-14
5.33022e-14
1.14611e-09
-2.81577e-14
5.7003e-14
1.14714e-09
5.58213e-14
1.14774e-09
-8.72171e-12
1.93925e-12
-8.41924e-12
1.52017e-11
-2.37191e-13
9.26883e-13
9.74209e-10
5.74177e-11
4.00783e-11
-5.74068e-11
-4.07597e-11
-6.6824e-14
-6.84885e-13
1.1867e-09
-2.13935e-13
7.91784e-13
1.15471e-09
-1.7095e-13
-2.82188e-13
1.14043e-09
-1.82823e-13
2.93142e-13
1.13958e-09
-1.72866e-13
-6.52093e-14
1.13983e-09
-1.57809e-13
1.25115e-13
1.14017e-09
-1.34577e-13
2.34507e-14
1.14095e-09
-1.1741e-13
8.17121e-14
1.14196e-09
-8.97553e-14
5.96912e-14
1.14308e-09
-7.05321e-14
8.22852e-14
1.14428e-09
-4.5477e-14
7.86747e-14
1.14533e-09
-2.31541e-14
8.54363e-14
1.14613e-09
8.48396e-14
1.14653e-09
-2.83645e-13
5.77931e-11
7.61856e-10
4.26793e-11
4.83033e-11
-4.23564e-11
-4.82019e-11
4.44629e-11
-5.66562e-11
-4.48985e-11
8.99148e-13
-1.93366e-12
1.16275e-09
-2.4801e-13
1.86373e-12
1.16977e-09
-4.11782e-14
-5.16968e-13
1.14431e-09
-1.37752e-13
3.47318e-13
1.13943e-09
-1.22873e-13
-9.1043e-14
1.13915e-09
-1.32949e-13
1.39979e-13
1.1392e-09
-1.16829e-13
2.80425e-14
1.13986e-09
-1.11367e-13
9.81641e-14
1.14088e-09
-9.3398e-14
7.73736e-14
1.14209e-09
-7.53818e-14
1.00935e-13
1.1433e-09
-5.20284e-14
9.8529e-14
1.14426e-09
-2.71964e-14
1.04473e-13
1.14495e-09
1.03961e-13
1.14531e-09
-6.42734e-11
6.49497e-12
-1.35082e-11
1.23861e-11
1.16694e-10
-1.31509e-12
8.31491e-13
9.01593e-10
4.65746e-11
5.50236e-11
-4.79218e-11
-5.51721e-11
-3.51836e-14
5.24177e-13
1.15666e-09
-4.74232e-13
-1.21391e-13
1.14715e-09
-1.55395e-13
-3.0308e-15
1.13686e-09
-1.6217e-13
-9.95867e-14
1.13651e-09
-1.06075e-13
7.35906e-14
1.13708e-09
-9.89062e-14
2.82682e-14
1.13804e-09
-7.90103e-14
9.54672e-14
1.13937e-09
-6.28509e-14
9.18978e-14
1.14077e-09
-4.67272e-14
1.19111e-13
1.14203e-09
-2.98974e-14
1.23287e-13
1.14307e-09
-1.43439e-14
1.32202e-13
1.14373e-09
1.33285e-13
1.14408e-09
-2.93381e-11
-2.54284e-12
-9.65559e-12
-8.48025e-13
4.23846e-11
-2.14729e-13
6.50213e-11
7.22067e-10
5.79173e-11
6.16012e-11
-5.74812e-11
-6.08516e-11
4.47051e-11
-6.46029e-11
-4.52909e-11
9.74047e-13
-7.09745e-13
1.13172e-09
-1.33025e-13
9.56448e-13
1.1552e-09
-8.78536e-15
-1.59226e-13
1.13463e-09
-8.38287e-14
-2.8921e-14
1.13227e-09
-8.22716e-14
6.42214e-14
1.1339e-09
-8.70388e-14
4.66726e-14
1.1357e-09
-8.23273e-14
1.00716e-13
1.13762e-09
-8.41576e-14
1.15012e-13
1.13934e-09
-6.95797e-14
1.27263e-13
1.14083e-09
-5.41834e-14
1.37402e-13
1.14194e-09
-2.87727e-14
1.35381e-13
1.14254e-09
1.37991e-13
1.1429e-09
-5.30469e-11
1.62867e-11
-1.44361e-11
1.40269e-11
1.02191e-10
-1.21407e-12
1.65442e-12
8.8209e-10
4.69678e-11
5.88996e-11
-4.81535e-11
-5.8894e-11
-7.18494e-14
-2.16672e-13
1.14628e-09
-2.87007e-13
2.53664e-14
1.13655e-09
7.24421e-15
-3.38447e-13
1.12769e-09
-3.17949e-14
8.76658e-14
1.12985e-09
-2.63486e-14
3.66343e-14
1.13308e-09
-1.9617e-14
9.8135e-14
1.13572e-09
-1.01925e-14
1.22055e-13
1.13798e-09
-3.85608e-15
1.40622e-13
1.13983e-09
6.14578e-16
1.59505e-13
1.14092e-09
1.78675e-15
1.63283e-13
1.14139e-09
1.69917e-13
1.14166e-09
-3.53181e-11
-1.87451e-12
-1.12971e-11
-3.10358e-12
5.15933e-11
-2.90289e-13
5.83817e-11
7.46879e-10
5.84192e-11
6.2809e-11
-5.79182e-11
-6.18915e-11
4.3805e-11
-5.72286e-11
-4.4458e-11
1.10037e-12
-1.63917e-12
1.13636e-09
-1.36062e-13
1.23269e-12
1.14422e-09
-6.54956e-14
-4.29188e-13
1.12375e-09
-7.11767e-14
8.2939e-14
1.12492e-09
-4.18208e-14
-3.91934e-15
1.12996e-09
-4.96849e-14
1.02015e-13
1.13388e-09
-1.01059e-13
1.85164e-13
1.13701e-09
-8.79293e-14
1.38146e-13
1.13914e-09
-8.43191e-14
1.75375e-13
1.14011e-09
-4.31544e-14
1.41173e-13
1.14021e-09
1.49263e-13
1.14024e-09
-7.25689e-11
1.14393e-11
-1.4358e-11
6.0396e-12
1.2783e-10
-1.74118e-12
1.30125e-12
8.81545e-10
4.52275e-11
5.28154e-11
-4.62738e-11
-5.29916e-11
4.5254e-13
-9.89697e-13
1.13208e-09
4.41791e-13
-4.40105e-13
1.12708e-09
3.57715e-13
1.46395e-13
1.12398e-09
4.44818e-14
2.97542e-13
1.12769e-09
1.27555e-13
1.46696e-14
1.13221e-09
1.2927e-13
1.73762e-13
1.13641e-09
1.1865e-13
1.4407e-13
1.13906e-09
9.45771e-14
1.96856e-13
1.13975e-09
5.28441e-14
1.83942e-13
1.13906e-09
2.01759e-13
1.13845e-09
-1.3828e-11
2.64263e-12
-1.2322e-11
2.35074e-11
1.0129e-12
4.32679e-11
7.20426e-10
5.67864e-11
5.05881e-11
-5.6302e-11
-5.08075e-11
3.37075e-11
-4.23116e-11
-3.46638e-11
9.93276e-13
-1.00339e-12
1.12277e-09
-1.22185e-12
1.74797e-12
1.13214e-09
-5.33882e-15
-1.09408e-12
1.14414e-09
1.84877e-13
8.37586e-14
1.13642e-09
4.12657e-14
1.37321e-13
1.13449e-09
-3.05245e-13
5.06935e-13
1.1367e-09
-2.13044e-13
3.31599e-14
1.1393e-09
-2.4523e-13
2.1798e-13
1.13945e-09
-1.04198e-13
2.72116e-14
1.13729e-09
8.62769e-14
1.13532e-09
-1.25828e-11
1.06261e-11
4.5225e-11
-1.29842e-12
5.05293e-11
7.19181e-10
3.38551e-11
4.32918e-11
-3.48071e-11
-4.23356e-11
5.67805e-11
-5.07502e-11
-5.62908e-11
1.64753e-12
5.29563e-11
8.80905e-10
4.52833e-11
-5.31318e-11
-4.6329e-11
2.28043e-13
2.96526e-13
1.13591e-09
-9.30735e-13
1.21742e-12
1.146e-09
1.45548e-13
-9.60047e-13
1.155e-09
5.94679e-13
3.69494e-14
1.14697e-09
3.54629e-13
2.62573e-13
1.14413e-09
3.14138e-13
2.47717e-13
1.14025e-09
1.4851e-13
1.81372e-13
1.13461e-09
2.25048e-13
1.13037e-09
-1.55402e-11
1.88908e-11
4.71787e-11
-4.12466e-11
-6.88772e-12
3.15285e-13
1.0195e-11
9.05799e-11
-1.64168e-12
6.28174e-11
7.46585e-10
4.37541e-11
5.83428e-11
-4.44127e-11
-5.7193e-11
5.84343e-11
-6.18983e-11
-5.79286e-11
7.33244e-13
5.89088e-11
8.8184e-10
4.69789e-11
-5.89074e-11
-4.81623e-11
-4.80216e-13
2.22427e-13
1.13154e-09
-1.80041e-12
1.32434e-12
1.15648e-09
-6.94301e-13
-8.74416e-13
1.16956e-09
-6.1459e-13
1.35851e-13
1.15445e-09
-2.35626e-13
-2.30712e-13
1.13691e-09
-4.33478e-14
1.12879e-09
-5.66907e-11
5.81404e-12
-4.47288e-12
1.08303e-11
1.07337e-10
-4.34215e-11
5.5409e-12
-6.96148e-12
1.26704e-11
9.10811e-11
-8.24363e-13
6.16027e-11
7.22001e-10
4.46981e-11
6.50195e-11
-4.52854e-11
-6.45972e-11
5.79226e-11
-6.08537e-11
-5.74798e-11
1.9783e-12
5.50214e-11
9.01479e-10
4.65762e-11
-5.5178e-11
-4.79199e-11
7.65874e-13
3.06436e-13
1.16255e-09
6.10491e-13
2.64502e-13
1.18635e-09
2.77142e-13
8.62836e-14
1.13922e-09
2.09366e-13
1.12545e-09
-1.87352e-11
-2.91294e-12
-4.89453e-12
2.65426e-11
-6.91288e-11
1.14138e-11
-8.41917e-12
7.98833e-12
1.19749e-10
-4.43355e-11
5.83227e-12
-7.01475e-12
1.00279e-11
9.05111e-11
-8.58801e-13
4.83012e-11
7.6174e-10
4.44658e-11
5.7799e-11
-4.49053e-11
-5.66554e-11
4.26859e-11
-4.82044e-11
-4.23496e-11
-3.21313e-14
4.00767e-11
9.739e-10
5.74314e-11
-4.0753e-11
-5.73524e-11
-2.05283e-13
6.59787e-11
8.77778e-10
6.4616e-11
-6.58925e-11
-6.44713e-11
6.27413e-11
8.71854e-10
6.19558e-11
-6.27561e-11
-6.19686e-11
-2.41971e-11
3.4349e-12
6.93999e-12
6.21244e-11
-4.22128e-11
-7.68696e-12
-1.02136e-12
9.09981e-11
-5.19419e-11
4.37016e-12
-1.51326e-12
1.30352e-11
1.02029e-10
-4.85242e-11
-9.52821e-13
1.08336e-12
1.43399e-11
9.67952e-11
-4.15913e-11
-1.43321e-11
-5.10713e-13
5.65024e-11
-2.17579e-13
4.78318e-13
8.7208e-10
6.19684e-11
6.27455e-11
-6.19567e-11
-6.28274e-11
5.19039e-14
-1.01354e-13
1.12572e-09
-2.15256e-13
4.00064e-13
1.12896e-09
-6.88784e-14
-3.05965e-14
1.13047e-09
-1.80075e-13
1.83342e-13
1.1354e-09
-1.22259e-13
7.18035e-15
1.13848e-09
-1.44656e-13
7.91561e-14
1.14025e-09
-1.11112e-13
2.2341e-14
1.14165e-09
-1.09768e-13
4.40895e-14
1.14287e-09
-8.42386e-14
2.83953e-14
1.14404e-09
-6.92468e-14
3.51856e-14
1.14525e-09
-4.49673e-14
3.23123e-14
1.14647e-09
-2.48707e-14
3.15251e-14
1.14767e-09
2.85268e-14
1.14859e-09
-3.49402e-11
1.33992e-12
-1.41446e-11
-1.99871e-12
4.97436e-11
6.0954e-14
1.37785e-13
8.78438e-10
6.46337e-11
6.59843e-11
-6.45494e-11
-6.59752e-11
2.52733e-13
-3.94573e-13
1.13971e-09
-1.64689e-13
7.2992e-13
1.13724e-09
-3.10981e-15
-2.08892e-13
1.13477e-09
-1.55829e-13
3.09684e-13
1.13741e-09
-1.00001e-13
-5.05626e-14
1.13912e-09
-1.37484e-13
1.24699e-13
1.14024e-09
-1.02564e-13
8.778e-15
1.14138e-09
-1.05574e-13
7.17695e-14
1.14252e-09
-8.22008e-14
4.39985e-14
1.14369e-09
-6.75484e-14
6.0602e-14
1.14491e-09
-4.34707e-14
5.13508e-14
1.14607e-09
-2.23149e-14
4.99485e-14
1.14711e-09
4.78775e-14
1.1477e-09
-8.72378e-12
1.94725e-12
-8.42769e-12
1.52042e-11
-2.49349e-13
9.19388e-13
9.74326e-10
5.74353e-11
4.00807e-11
-5.74042e-11
-4.07611e-11
-6.72304e-14
-7.11157e-13
1.18683e-09
-1.99424e-13
7.81767e-13
1.15479e-09
-1.48872e-13
-3.0085e-13
1.14047e-09
-1.57799e-13
2.89754e-13
1.13961e-09
-1.41643e-13
-8.01643e-14
1.13985e-09
-1.29895e-13
1.17937e-13
1.14017e-09
-1.0905e-13
6.82129e-15
1.14093e-09
-9.69478e-14
7.75121e-14
1.14194e-09
-7.26079e-14
4.69055e-14
1.14306e-09
-5.54767e-14
6.94321e-14
1.14425e-09
-3.44391e-14
6.5322e-14
1.1453e-09
-1.75222e-14
7.16598e-14
1.14609e-09
7.11401e-14
1.14649e-09
-2.51621e-13
5.77934e-11
7.61903e-10
4.26803e-11
4.83021e-11
-4.23564e-11
-4.82042e-11
4.44606e-11
-5.66546e-11
-4.48976e-11
9.12759e-13
-1.94381e-12
1.16282e-09
-2.33109e-13
1.86262e-12
1.16983e-09
-2.42184e-14
-5.37473e-13
1.14434e-09
-1.14985e-13
3.46391e-13
1.13947e-09
-9.40921e-14
-1.10172e-13
1.13916e-09
-1.07276e-13
1.32567e-13
1.1392e-09
-8.92156e-14
4.96012e-15
1.13984e-09
-8.78026e-14
9.62512e-14
1.14086e-09
-7.36865e-14
6.56975e-14
1.14206e-09
-6.01866e-14
8.58489e-14
1.14327e-09
-4.1423e-14
8.16439e-14
1.14423e-09
-2.15455e-14
8.6619e-14
1.14492e-09
8.60432e-14
1.14527e-09
-6.42763e-11
6.49526e-12
-1.35078e-11
1.23866e-11
1.16696e-10
-1.31464e-12
8.30113e-13
9.0163e-10
4.65766e-11
5.50237e-11
-4.79226e-11
-5.51739e-11
-2.24927e-14
5.21597e-13
1.15671e-09
-4.63951e-13
-1.33067e-13
1.14719e-09
-1.33428e-13
-1.12803e-14
1.13689e-09
-1.52986e-13
-1.12494e-13
1.13653e-09
-8.3702e-14
6.01428e-14
1.13709e-09
-8.05703e-14
1.16983e-14
1.13803e-09
-5.96225e-14
7.73858e-14
1.13937e-09
-4.50182e-14
7.16079e-14
1.14075e-09
-3.29147e-14
9.79444e-14
1.14201e-09
-2.00534e-14
1.00174e-13
1.14304e-09
-9.01786e-15
1.09134e-13
1.1437e-09
1.09859e-13
1.14405e-09
-2.9339e-11
-2.54281e-12
-9.65599e-12
-8.47968e-13
4.23858e-11
-2.13473e-13
6.50227e-11
7.22089e-10
5.79188e-11
6.1602e-11
-5.74811e-11
-6.08524e-11
4.47057e-11
-6.46028e-11
-4.5291e-11
9.82961e-13
-7.11959e-13
1.13176e-09
-1.23648e-13
9.48869e-13
1.15523e-09
1.25153e-14
-1.72481e-13
1.13466e-09
-7.0762e-14