/*--------------------------------*- C++ -*----------------------------------*\
| =========                 |                                                 |
| \\      /  F ield         | OpenFOAM: The Open Source CFD Toolbox           |
|  \\    /   O peration     | Version:  2.1.1                                 |
|   \\  /    A nd           | Web:      www.OpenFOAM.org                      |
|    \\/     M anipulation  |                                                 |
\*---------------------------------------------------------------------------*/
FoamFile
{
    version     2.0;
    format      ascii;
    class       volVectorField;
    location    "0.004";
    object      U;
}
// * * * * * * * * * * * * * * * * * * * * * * * * * * * * * * * * * * * * * //

dimensions      [0 1 -1 0 0 0 0];

internalField   nonuniform List<vector> 
10266
(
(-0.00497636 1.16407e-06 0.0217211)
(-0.000258824 -5.39634e-05 0.0881988)
(0.000184114 -3.71079e-06 0.112806)
(-0.000160493 -1.3632e-05 0.112299)
(6.5058e-05 -2.30085e-06 0.111951)
(-8.92808e-05 -3.90127e-06 0.112158)
(-8.93866e-07 -2.4481e-06 0.112307)
(-5.88618e-05 -8.62731e-07 0.112387)
(-2.44142e-05 -1.33111e-06 0.112453)
(-4.45287e-05 -2.29552e-07 0.112508)
(-2.55212e-05 -1.35064e-07 0.112564)
(-3.04169e-05 5.37039e-07 0.112617)
(-1.61341e-05 6.61269e-07 0.112671)
(-1.46111e-05 8.99427e-07 0.11272)
(-1.66356e-06 7.77938e-07 0.112753)
(-0.00467789 -0.00070775 0.0197371)
(-0.000256541 8.25854e-05 0.0888442)
(0.000231648 -6.22233e-05 0.11327)
(-0.000154516 5.06996e-05 0.112547)
(7.6246e-05 -2.12252e-05 0.112103)
(-8.74541e-05 1.84133e-05 0.112238)
(3.19505e-06 -2.76621e-06 0.112338)
(-5.69899e-05 8.36158e-06 0.112389)
(-2.35572e-05 4.02638e-06 0.112443)
(-4.29825e-05 9.00586e-06 0.112495)
(-2.44835e-05 9.08236e-06 0.112549)
(-2.94728e-05 1.15315e-05 0.112602)
(-1.58146e-05 1.2237e-05 0.112652)
(-1.44067e-05 1.32276e-05 0.112695)
(-1.82417e-06 1.36276e-05 0.11272)
(-0.00127486 -0.00150154 0.0104434)
(-0.000170224 -0.00010933 0.0937152)
(0.000102959 -3.74501e-05 0.116112)
(-0.000113811 4.14726e-05 0.113481)
(2.89243e-05 -3.30318e-05 0.112309)
(-6.93081e-05 1.95337e-05 0.112316)
(-1.12237e-05 -7.62908e-06 0.112364)
(-5.19572e-05 1.11571e-05 0.112383)
(-2.38038e-05 4.25953e-06 0.112421)
(-3.94527e-05 1.23079e-05 0.112467)
(-2.29888e-05 1.09483e-05 0.11252)
(-2.72588e-05 1.4062e-05 0.112572)
(-1.44362e-05 1.40845e-05 0.112618)
(-1.32189e-05 1.51035e-05 0.112653)
(-1.51374e-06 1.51603e-05 0.112671)
(-0.000489764 0.000341023 0.0751846)
(0.000389113 -0.000148325 0.113405)
(-0.000142803 0.000127042 0.114759)
(4.75071e-05 -3.63432e-05 0.112608)
(-6.22257e-05 2.96622e-05 0.112287)
(-5.27397e-06 -3.92435e-06 0.11233)
(-4.4951e-05 1.83893e-05 0.112343)
(-2.24303e-05 1.14521e-05 0.112376)
(-3.62818e-05 2.07665e-05 0.112422)
(-2.27247e-05 2.07387e-05 0.112477)
(-2.63367e-05 2.52755e-05 0.112528)
(-1.47717e-05 2.66513e-05 0.112572)
(-1.3329e-05 2.86074e-05 0.112602)
(-1.7738e-06 2.92575e-05 0.112617)
(-0.00588869 0.00143317 0.0290448)
(-0.000277702 -0.000191014 0.0885655)
(4.82169e-05 0.000179448 0.114019)
(-6.629e-05 -6.85008e-05 0.113134)
(-4.1278e-05 2.34951e-05 0.112193)
(-2.27787e-05 -9.37205e-06 0.112202)
(-3.63353e-05 1.65802e-05 0.112254)
(-2.13636e-05 8.51755e-06 0.1123)
(-3.01571e-05 1.92918e-05 0.112357)
(-1.84672e-05 1.87312e-05 0.11242)
(-2.13452e-05 2.24812e-05 0.112475)
(-1.11015e-05 2.30759e-05 0.11252)
(-1.06128e-05 2.40295e-05 0.112548)
(-8.58119e-07 2.43081e-05 0.112564)
(-0.00324382 0.000470449 0.0180604)
(-0.000335839 0.000392562 0.0720209)
(0.000268488 -9.23411e-05 0.112119)
(-3.94014e-05 5.68448e-05 0.114263)
(-8.31432e-06 -1.97484e-05 0.112226)
(-1.43991e-05 1.52204e-06 0.112005)
(-2.68824e-05 1.48291e-05 0.112118)
(-1.95836e-05 1.75089e-05 0.112204)
(-2.60713e-05 2.60011e-05 0.112281)
(-1.95333e-05 3.03091e-05 0.112357)
(-2.2004e-05 3.58159e-05 0.112421)
(-1.3226e-05 3.93876e-05 0.112467)
(-1.20997e-05 4.2265e-05 0.112494)
(-1.56575e-06 4.36797e-05 0.112508)
(-0.00881981 0.0018518 0.0308996)
(-0.000369556 -2.90278e-05 0.0875808)
(8.8094e-05 0.000100521 0.11354)
(-9.7859e-05 1.12372e-06 0.11268)
(6.25223e-06 9.35682e-07 0.111818)
(-2.0759e-05 1.41672e-05 0.11193)
(-1.00054e-05 1.04255e-05 0.11209)
(-1.73583e-05 1.99006e-05 0.112203)
(-8.64965e-06 2.26527e-05 0.112299)
(-1.22786e-05 2.26228e-05 0.112374)
(-4.66175e-06 2.44756e-05 0.11242)
(-6.3378e-06 2.28514e-05 0.112442)
(5.19564e-07 2.33029e-05 0.112452)
(-0.00451467 -0.00045484 0.019289)
(-0.000395527 0.000401377 0.0737088)
(0.000308178 -0.000131022 0.112356)
(-4.35197e-05 4.79943e-06 0.113784)
(-4.98798e-06 -4.96075e-05 0.111789)
(-1.93487e-05 2.04334e-05 0.111677)
(-1.38506e-05 2.11346e-05 0.111932)
(-1.40354e-05 2.76079e-05 0.112118)
(-1.6947e-05 3.74483e-05 0.112253)
(-2.02497e-05 4.47802e-05 0.112342)
(-1.297e-05 5.13644e-05 0.112382)
(-1.32327e-05 5.59569e-05 0.112387)
(-1.21997e-06 5.83738e-05 0.112386)
(-0.00602596 0.000611483 0.0313702)
(-0.000346979 -0.000229084 0.088718)
(5.35816e-05 0.000291872 0.113561)
(1.97789e-05 -1.91475e-05 0.112646)
(5.00005e-05 5.79506e-06 0.111791)
(-8.87017e-07 -5.73478e-06 0.111819)
(-6.44788e-07 1.50049e-05 0.112003)
(8.33997e-06 2.39935e-05 0.112199)
(1.38394e-06 6.78361e-06 0.112326)
(6.36911e-06 1.05733e-05 0.112361)
(5.63814e-07 -1.47687e-06 0.112335)
(3.03037e-06 -1.3803e-06 0.112306)
(-0.00422754 -0.00184792 0.014936)
(-0.000467211 0.000587445 0.0705422)
(0.000566644 -0.000567173 0.112489)
(-0.000291269 -5.28884e-05 0.113557)
(-3.74945e-06 4.46941e-05 0.113782)
(-9.85194e-07 9.92219e-05 0.112676)
(2.12356e-05 8.9995e-06 0.112222)
(-2.29693e-05 4.4196e-05 0.112189)
(-3.34047e-05 6.13097e-05 0.112285)
(-2.11407e-05 7.19752e-05 0.112312)
(-2.48945e-05 8.51009e-05 0.112237)
(-8.71816e-07 8.97897e-05 0.112156)
(0.00238101 -0.011633 0.0165128)
(-0.000587698 0.000468155 0.0704884)
(0.00022999 0.000347277 0.0886716)
(0.000132009 -0.000307796 0.112342)
(-0.000100907 -8.82312e-05 0.113531)
(-5.43691e-05 4.0586e-05 0.114257)
(6.59001e-05 6.57713e-05 0.11313)
(3.35456e-05 -4.66377e-05 0.112602)
(3.03738e-05 -2.7094e-05 0.112307)
(1.68971e-05 -7.19215e-05 0.112098)
(7.19792e-06 -6.8004e-05 0.11195)
(0.0041767 -0.00861746 0.0188622)
(-0.00140799 -0.000617374 0.0271222)
(-0.000401129 0.000396541 0.0736984)
(2.97202e-05 0.000370125 0.0875693)
(9.34354e-05 -0.000266988 0.112114)
(-0.000179119 -4.85763e-05 0.114015)
(-0.000128343 0.000145222 0.114756)
(-3.95844e-05 0.000118243 0.113478)
(-6.18335e-05 0.000157646 0.112546)
(4.14211e-06 0.000161798 0.112295)
(-0.0021572 0.00141629 0.0296281)
(-0.00447136 0.00042798 0.0268404)
(-0.000391486 0.000335747 0.0720191)
(0.000188878 0.000277651 0.0885632)
(0.000150441 -0.000385071 0.113401)
(3.55132e-05 -0.000101395 0.116114)
(5.51964e-05 -0.000221334 0.113264)
(9.04331e-06 -0.000185317 0.112805)
(-0.00252129 0.000425879 0.0166177)
(-0.00269698 0.00157938 0.0314671)
(-0.00433706 -0.000176249 0.0269572)
(-0.000341863 0.000494331 0.0751853)
(0.000116145 0.000172529 0.0937154)
(-9.38105e-05 0.000267907 0.0888534)
(3.58711e-05 0.000260156 0.0881931)
(-0.00230318 -0.00657582 0.0221064)
(0.00298145 -0.00668526 0.0250892)
(-0.00108362 0.00152439 0.0320773)
(0.000151149 0.0014786 0.0293454)
(-0.00497621 2.34543e-06 0.0217246)
(-0.000258127 -5.67054e-05 0.0882026)
(0.000183188 -1.9794e-06 0.112812)
(-0.000155554 -1.44092e-05 0.112304)
(6.95499e-05 -1.62914e-06 0.111954)
(-8.51743e-05 -4.56979e-06 0.11216)
(9.05565e-06 -2.34203e-06 0.112306)
(-5.107e-05 -1.48935e-06 0.112384)
(-1.62469e-05 -1.68713e-06 0.112448)
(-3.70483e-05 -7.865e-07 0.112502)
(-1.86822e-05 -9.56891e-07 0.112556)
(-2.50925e-05 -3.35732e-07 0.112609)
(-1.20383e-05 -1.79622e-07 0.112661)
(-1.2247e-05 2.82835e-08 0.11271)
(-1.05526e-06 1.17691e-07 0.112742)
(-0.00467416 -0.000709851 0.0197392)
(-0.000249751 7.99815e-05 0.0888539)
(0.000236921 -6.40392e-05 0.113277)
(-0.000150357 4.92057e-05 0.112555)
(8.1166e-05 -2.30637e-05 0.112105)
(-8.38355e-05 1.83194e-05 0.112241)
(1.33556e-05 -4.09266e-06 0.112337)
(-4.96098e-05 7.24376e-06 0.112386)
(-1.52854e-05 2.28609e-06 0.112439)
(-3.59998e-05 6.75995e-06 0.112489)
(-1.80533e-05 6.62981e-06 0.112542)
(-2.41814e-05 9.0273e-06 0.112593)
(-1.17511e-05 9.63697e-06 0.112643)
(-1.2009e-05 1.06129e-05 0.112685)
(-1.01188e-06 1.10239e-05 0.11271)
(-0.00127445 -0.00149973 0.0104439)
(-0.000167354 -0.000106263 0.0937231)
(0.00010427 -3.9782e-05 0.116122)
(-0.000108693 4.16379e-05 0.113489)
(3.4786e-05 -3.52418e-05 0.112313)
(-6.46526e-05 1.84526e-05 0.112319)
(-2.31525e-06 -9.89184e-06 0.112364)
(-4.45743e-05 8.83617e-06 0.112383)
(-1.67642e-05 1.281e-06 0.112418)
(-3.26848e-05 8.90565e-06 0.112463)
(-1.64085e-05 7.38162e-06 0.112514)
(-2.20816e-05 1.0239e-05 0.112564)
(-1.04507e-05 1.00557e-05 0.112609)
(-1.08586e-05 1.0973e-05 0.112643)
(-6.54083e-07 1.09846e-05 0.112662)
(-0.000487541 0.000341283 0.0751908)
(0.000391019 -0.000148752 0.113412)
(-0.000138393 0.000127481 0.114765)
(5.11805e-05 -3.99184e-05 0.112611)
(-5.86175e-05 2.88726e-05 0.112291)
(3.62828e-06 -7.09208e-06 0.11233)
(-3.82888e-05 1.44717e-05 0.112342)
(-1.52426e-05 7.47263e-06 0.112373)
(-2.98876e-05 1.66004e-05 0.112418)
(-1.67157e-05 1.6031e-05 0.112471)
(-2.15074e-05 2.02378e-05 0.112522)
(-1.10157e-05 2.13415e-05 0.112564)
(-1.10783e-05 2.31586e-05 0.112594)
(-1.00865e-06 2.37667e-05 0.112609)
(-0.00588829 0.00143295 0.0290454)
(-0.000276657 -0.000191941 0.0885703)
(5.03958e-05 0.000179823 0.114025)
(-6.16119e-05 -7.15197e-05 0.113139)
(-3.6227e-05 2.28893e-05 0.112197)
(-1.7009e-05 -1.23086e-05 0.112204)
(-2.97789e-05 1.28567e-05 0.112254)
(-1.45792e-05 3.9651e-06 0.112298)
(-2.41199e-05 1.42539e-05 0.112354)
(-1.2759e-05 1.30313e-05 0.112415)
(-1.67701e-05 1.64246e-05 0.112469)
(-7.52701e-06 1.65783e-05 0.112513)
(-8.43361e-06 1.73265e-05 0.112541)
(-5.20605e-08 1.73864e-05 0.112556)
(-0.00324396 0.000470675 0.0180609)
(-0.000335632 0.000392548 0.0720245)
(0.000270891 -9.19828e-05 0.112125)
(-3.65594e-05 5.66349e-05 0.114267)
(-4.62648e-06 -2.24517e-05 0.11223)
(-8.62765e-06 -9.7171e-07 0.112006)
(-2.18489e-05 1.09629e-05 0.112119)
(-1.37202e-05 1.28184e-05 0.112203)
(-2.08274e-05 2.07016e-05 0.11228)
(-1.45427e-05 2.41556e-05 0.112354)
(-1.79717e-05 2.93276e-05 0.112417)
(-1.01153e-05 3.23713e-05 0.112462)
(-1.02726e-05 3.50897e-05 0.112489)
(-9.68102e-07 3.62507e-05 0.112502)
(-0.00881971 0.00185156 0.0309004)
(-0.00036856 -2.89179e-05 0.087585)
(8.9725e-05 9.87658e-05 0.113545)
(-9.50598e-05 -2.60665e-07 0.112684)
(1.08609e-05 -2.64614e-06 0.111821)
(-1.64144e-05 1.05944e-05 0.111931)
(-4.65772e-06 4.87547e-06 0.11209)
(-1.27844e-05 1.41261e-05 0.112202)
(-4.12754e-06 1.60434e-05 0.112297)
(-8.56386e-06 1.56227e-05 0.112371)
(-1.77324e-06 1.68261e-05 0.112416)
(-4.5713e-06 1.47572e-05 0.112438)
(1.12622e-06 1.49255e-05 0.112448)
(-0.00451468 -0.000454725 0.0192894)
(-0.000395305 0.000402114 0.0737127)
(0.000309617 -0.000132391 0.112361)
(-4.16251e-05 3.9746e-06 0.113788)
(-1.39509e-06 -5.27064e-05 0.111792)
(-1.62896e-05 1.74244e-05 0.111679)
(-1.01885e-05 1.65866e-05 0.111932)
(-9.84831e-06 2.28974e-05 0.112119)
(-1.31717e-05 3.08749e-05 0.112253)
(-1.72508e-05 3.80538e-05 0.112341)
(-1.09517e-05 4.37759e-05 0.11238)
(-1.21337e-05 4.84094e-05 0.112385)
(-8.67472e-07 5.06428e-05 0.112383)
(-0.00602626 0.000611868 0.0313713)
(-0.000346856 -0.000230189 0.0887217)
(5.46766e-05 0.000290152 0.113566)
(2.2213e-05 -2.17245e-05 0.11265)
(5.28984e-05 2.21173e-06 0.111794)
(2.76389e-06 -1.04982e-05 0.111822)
(1.91471e-06 9.47134e-06 0.112004)
(1.08592e-05 1.74445e-05 0.1122)
(4.09816e-06 -1.63003e-06 0.112327)
(8.4383e-06 1.31136e-06 0.11236)
(2.18342e-06 -1.13667e-05 0.112335)
(3.41974e-06 -1.15805e-05 0.112305)
(-0.00422761 -0.00184818 0.0149362)
(-0.000467714 0.000587506 0.0705455)
(0.000567173 -0.000567681 0.112495)
(-0.000289534 -5.39663e-05 0.113562)
(-2.85901e-06 4.28342e-05 0.113786)
(7.24301e-07 9.65569e-05 0.11268)
(2.36341e-05 5.10244e-06 0.112225)
(-2.20692e-05 3.94148e-05 0.112191)
(-3.31082e-05 5.72144e-05 0.112288)
(-2.05828e-05 6.81254e-05 0.112314)
(-2.47163e-05 8.12603e-05 0.112239)
(-7.89671e-07 8.61046e-05 0.112157)
(0.00238163 -0.0116338 0.0165129)
(-0.000587935 0.000468406 0.0704917)
(0.000230894 0.000346964 0.0886753)
(0.00013335 -0.000309211 0.112347)
(-9.92785e-05 -8.98216e-05 0.113535)
(-5.39458e-05 3.7493e-05 0.11426)
(6.82161e-05 6.15413e-05 0.113133)
(3.71969e-05 -5.06343e-05 0.112605)
(3.26627e-05 -3.22318e-05 0.112309)
(1.86409e-05 -7.64155e-05 0.112099)
(7.68915e-06 -7.29305e-05 0.111952)
(0.004177 -0.00861789 0.0188631)
(-0.00140809 -0.000617576 0.0271239)
(-0.00040157 0.000396481 0.0737022)
(2.97597e-05 0.000369406 0.0875731)
(9.32081e-05 -0.000269152 0.112119)
(-0.000179203 -5.0413e-05 0.11402)
(-0.000128976 0.000141159 0.11476)
(-3.9498e-05 0.000114406 0.113483)
(-6.14359e-05 0.000152223 0.11255)
(3.79771e-06 0.000156993 0.1123)
(-0.00215682 0.0014167 0.029629)
(-0.00447137 0.000428133 0.026841)
(-0.000391371 0.000335813 0.0720223)
(0.000189412 0.000277093 0.0885667)
(0.000152062 -0.000386495 0.113406)
(3.63891e-05 -0.00010252 0.116118)
(5.59026e-05 -0.000223024 0.113268)
(1.01922e-05 -0.000186763 0.11281)
(-0.00252151 0.00042585 0.0166182)
(-0.00269708 0.00157931 0.0314682)
(-0.00433749 -0.000176798 0.0269579)
(-0.000342823 0.000493671 0.0751893)
(0.000116015 0.000170993 0.0937205)
(-9.37515e-05 0.000267462 0.0888582)
(3.56195e-05 0.000259163 0.0881981)
(-0.00230263 -0.00657594 0.0221068)
(0.00298151 -0.00668512 0.02509)
(-0.00108344 0.00152481 0.0320783)
(0.000150977 0.0014791 0.0293463)
(-0.00497878 6.1053e-06 0.0217196)
(-0.000257924 -5.61586e-05 0.0882039)
(0.000183107 -1.24597e-06 0.112818)
(-0.000151859 -1.41564e-05 0.112308)
(7.30117e-05 -1.71303e-06 0.111956)
(-8.2015e-05 -4.56472e-06 0.112162)
(1.66752e-05 -2.24262e-06 0.112307)
(-4.56316e-05 -1.87743e-06 0.112382)
(-9.37273e-06 -1.95656e-06 0.112444)
(-3.12124e-05 -1.142e-06 0.112498)
(-1.31963e-05 -1.35405e-06 0.11255)
(-2.08041e-05 -9.88481e-07 0.112602)
(-8.91816e-06 -8.19123e-07 0.112654)
(-1.04062e-05 -6.19345e-07 0.112702)
(-7.17991e-07 -2.10948e-07 0.112734)
(-0.00467263 -0.000710716 0.0197423)
(-0.000248219 7.96604e-05 0.0888665)
(0.000237996 -6.46557e-05 0.113283)
(-0.000147331 4.88005e-05 0.112563)
(8.46403e-05 -2.4593e-05 0.112106)
(-8.04317e-05 1.84532e-05 0.112244)
(2.06914e-05 -5.61991e-06 0.112338)
(-4.45721e-05 6.92891e-06 0.112384)
(-8.26733e-06 1.15681e-06 0.112435)
(-3.0219e-05 5.24933e-06 0.112485)
(-1.30195e-05 4.64137e-06 0.112536)
(-2.01469e-05 6.86999e-06 0.112587)
(-8.57398e-06 7.51572e-06 0.112636)
(-1.00814e-05 8.4832e-06 0.112677)
(-3.89295e-07 8.93452e-06 0.112702)
(-0.00127423 -0.0014992 0.0104448)
(-0.000166142 -0.000106177 0.0937314)
(0.000104277 -4.09623e-05 0.116133)
(-0.000105948 4.16142e-05 0.113497)
(3.87403e-05 -3.66431e-05 0.112317)
(-6.14599e-05 1.75961e-05 0.112321)
(4.84368e-06 -1.189e-05 0.112364)
(-3.87316e-05 7.29001e-06 0.112381)
(-1.10863e-05 -9.62626e-07 0.112415)
(-2.77087e-05 6.28478e-06 0.11246)
(-1.15698e-05 4.44983e-06 0.112508)
(-1.7926e-05 7.32883e-06 0.112558)
(-7.30264e-06 6.9872e-06 0.112603)
(-8.98589e-06 7.83816e-06 0.112636)
(-2.32067e-08 7.78399e-06 0.112654)
(-0.000486359 0.000341623 0.0751971)
(0.00039215 -0.00015006 0.113418)
(-0.000135491 0.000127704 0.114772)
(5.37755e-05 -4.2843e-05 0.112614)
(-5.5791e-05 2.85178e-05 0.112294)
(1.02609e-05 -9.46697e-06 0.112331)
(-3.34936e-05 1.17115e-05 0.112342)
(-9.30157e-06 4.16303e-06 0.11237)
(-2.47963e-05 1.30676e-05 0.112415)
(-1.19711e-05 1.23903e-05 0.112467)
(-1.76092e-05 1.62999e-05 0.112517)
(-8.06327e-06 1.71764e-05 0.112558)
(-9.28301e-06 1.88741e-05 0.112588)
(-4.30439e-07 1.94277e-05 0.112602)
(-0.00588821 0.00143316 0.0290461)
(-0.00027589 -0.000192871 0.0885745)
(5.17892e-05 0.000179954 0.114031)
(-5.82312e-05 -7.39884e-05 0.113143)
(-3.251e-05 2.24851e-05 0.1122)
(-1.22668e-05 -1.50205e-05 0.112205)
(-2.48784e-05 1.02194e-05 0.112256)
(-9.67535e-06 4.77504e-07 0.112297)
(-1.94772e-05 1.02899e-05 0.112352)
(-8.32638e-06 8.68162e-06 0.112411)
(-1.31391e-05 1.16954e-05 0.112465)
(-4.72559e-06 1.15208e-05 0.112508)
(-6.73489e-06 1.20842e-05 0.112536)
(5.24442e-07 1.19787e-05 0.11255)
(-0.00324408 0.000470826 0.0180615)
(-0.000335496 0.00039251 0.0720275)
(0.000272484 -9.19e-05 0.11213)
(-3.43945e-05 5.63863e-05 0.114271)
(-2.06107e-06 -2.47539e-05 0.112233)
(-4.24424e-06 -2.82886e-06 0.112007)
(-1.78388e-05 7.34749e-06 0.112119)
(-9.11095e-06 9.17531e-06 0.112202)
(-1.65994e-05 1.64633e-05 0.112278)
(-1.05629e-05 1.93278e-05 0.112351)
(-1.47807e-05 2.42467e-05 0.112414)
(-7.6752e-06 2.68226e-05 0.112458)
(-8.82681e-06 2.94105e-05 0.112485)
(-5.56426e-07 3.04243e-05 0.112498)
(-0.00881959 0.00185153 0.0309012)
(-0.00036803 -2.88909e-05 0.0875885)
(9.07465e-05 9.72845e-05 0.113548)
(-9.2935e-05 -1.50333e-06 0.112688)
(1.42827e-05 -5.37349e-06 0.111823)
(-1.33108e-05 7.55484e-06 0.111932)
(-3.77288e-07 2.83606e-07 0.11209)
(-9.32648e-06 9.60094e-06 0.112202)
(-5.35902e-07 1.08683e-05 0.112295)
(-5.65102e-06 9.7484e-06 0.112368)
(4.31494e-07 1.03774e-05 0.112413)
(-3.14942e-06 7.76617e-06 0.112434)
(1.57732e-06 7.76057e-06 0.112444)
(-0.00451468 -0.000454715 0.0192901)
(-0.000395275 0.00040259 0.0737158)
(0.000310634 -0.000133743 0.112364)
(-4.02749e-05 3.27321e-06 0.113792)
(1.19037e-06 -5.54198e-05 0.111794)
(-1.41538e-05 1.53015e-05 0.11168)
(-7.0642e-06 1.32274e-05 0.111934)
(-6.20195e-06 1.91624e-05 0.112119)
(-1.05352e-05 2.56193e-05 0.112253)
(-1.53306e-05 3.31439e-05 0.112339)
(-9.62711e-06 3.82701e-05 0.112378)
(-1.14031e-05 4.32319e-05 0.112383)
(-6.00018e-07 4.54008e-05 0.112381)
(-0.0060264 0.000611902 0.0313723)
(-0.000346745 -0.000231131 0.0887245)
(5.55018e-05 0.000288794 0.11357)
(2.42212e-05 -2.37556e-05 0.112653)
(5.53537e-05 -4.51488e-07 0.111797)
(5.437e-06 -1.41693e-05 0.111824)
(3.48663e-06 4.96966e-06 0.112005)
(1.32862e-05 1.19975e-05 0.112201)
(6.77061e-06 -8.19193e-06 0.112327)
(1.03731e-05 -5.81523e-06 0.112361)
(3.86251e-06 -1.86989e-05 0.112335)
(3.81307e-06 -1.92872e-05 0.112306)
(-0.00422769 -0.00184819 0.0149367)
(-0.000467852 0.000587276 0.070548)
(0.000567609 -0.0005681 0.112499)
(-0.000288233 -5.47613e-05 0.113565)
(-2.36099e-06 4.12927e-05 0.113789)
(2.00076e-06 9.43719e-05 0.112682)
(2.55072e-05 2.23557e-06 0.112228)
(-2.14838e-05 3.60344e-05 0.112193)
(-3.28559e-05 5.39721e-05 0.11229)
(-2.0016e-05 6.50433e-05 0.112315)
(-2.45537e-05 7.76022e-05 0.112241)
(-8.46137e-07 8.30711e-05 0.112159)
(0.00238159 -0.0116343 0.0165131)
(-0.000587764 0.000469409 0.0704943)
(0.00023175 0.000347276 0.0886781)
(0.000134483 -0.000310266 0.11235)
(-9.79419e-05 -9.09189e-05 0.113538)
(-5.35972e-05 3.50735e-05 0.114263)
(7.0267e-05 5.84468e-05 0.113136)
(4.0178e-05 -5.36363e-05 0.112606)
(3.41585e-05 -3.61684e-05 0.11231)
(2.03338e-05 -8.01676e-05 0.1121)
(8.64615e-06 -7.67127e-05 0.111953)
(0.00417717 -0.00861807 0.0188639)
(-0.00140801 -0.000617687 0.0271247)
(-0.000402118 0.000396544 0.0737049)
(2.97389e-05 0.000368718 0.0875761)
(9.30714e-05 -0.00027084 0.112123)
(-0.00017928 -5.18602e-05 0.114024)
(-0.000129584 0.000137873 0.114764)
(-3.96455e-05 0.000111497 0.113486)
(-6.10876e-05 0.000148489 0.112554)
(3.65679e-06 0.000152895 0.112303)
(-0.00215694 0.00141704 0.0296298)
(-0.00447153 0.000428287 0.0268415)
(-0.000391122 0.000335923 0.0720248)
(0.000189955 0.000276543 0.0885694)
(0.000153569 -0.000387633 0.11341)
(3.73979e-05 -0.000103294 0.116122)
(5.63762e-05 -0.000224113 0.113272)
(1.07991e-05 -0.000187951 0.112813)
(-0.00252153 0.000425848 0.0166188)
(-0.00269736 0.00157935 0.0314692)
(-0.00433774 -0.000177239 0.0269584)
(-0.000343433 0.000492827 0.0751925)
(0.000115989 0.000169546 0.0937246)
(-9.38215e-05 0.000266456 0.0888617)
(3.53045e-05 0.000258188 0.0882017)
(-0.00230273 -0.00657607 0.0221076)
(0.00298207 -0.00668492 0.0250906)
(-0.00108345 0.00152494 0.0320791)
(0.000151119 0.00147946 0.0293468)
(-0.00497823 3.4074e-06 0.0217192)
(-0.000256514 -5.36683e-05 0.0882056)
(0.000184788 -2.10877e-06 0.112824)
(-0.000148983 -1.31405e-05 0.112312)
(7.58896e-05 -2.03914e-06 0.111958)
(-7.95596e-05 -4.11998e-06 0.112163)
(2.24217e-05 -2.20867e-06 0.112307)
(-4.21192e-05 -2.08136e-06 0.11238)
(-3.39951e-06 -2.20694e-06 0.112441)
(-2.66686e-05 -1.4569e-06 0.112495)
(-8.93026e-06 -1.6293e-06 0.112545)
(-1.71944e-05 -1.24912e-06 0.112597)
(-6.35338e-06 -1.23339e-06 0.112648)
(-8.82475e-06 -1.08912e-06 0.112696)
(-2.77914e-07 -6.03554e-07 0.112728)
(-0.00467448 -0.000708971 0.0197452)
(-0.000252002 8.15415e-05 0.0888781)
(0.00023557 -6.45727e-05 0.113288)
(-0.000144304 4.93587e-05 0.112569)
(8.70855e-05 -2.58806e-05 0.112107)
(-7.74197e-05 1.88244e-05 0.112247)
(2.57882e-05 -6.93819e-06 0.112338)
(-4.13533e-05 6.8118e-06 0.112383)
(-2.33715e-06 2.87284e-07 0.112432)
(-2.5617e-05 4.36695e-06 0.112482)
(-8.72843e-06 3.33532e-06 0.112531)
(-1.67264e-05 5.201e-06 0.112583)
(-6.1956e-06 5.75098e-06 0.11263)
(-8.47792e-06 6.70985e-06 0.112672)
(1.09517e-07 7.16239e-06 0.112696)
(-0.00127436 -0.0015002 0.0104455)
(-0.000167234 -0.000107908 0.0937391)
(0.000103574 -4.17758e-05 0.116142)
(-0.000104639 4.14185e-05 0.113503)
(4.14058e-05 -3.80203e-05 0.11232)
(-5.90005e-05 1.71248e-05 0.112324)
(1.00917e-05 -1.36828e-05 0.112365)
(-3.47642e-05 6.21287e-06 0.11238)
(-5.87959e-06 -2.7408e-06 0.112413)
(-2.36021e-05 4.4197e-06 0.112457)
(-8.09084e-06 2.33622e-06 0.112505)
(-1.47751e-05 4.99801e-06 0.112554)
(-4.84219e-06 4.63661e-06 0.112598)
(-7.41184e-06 5.43927e-06 0.112631)
(4.20008e-07 5.34659e-06 0.112648)
(-0.000487392 0.000342304 0.0752024)
(0.000391736 -0.000151812 0.113422)
(-0.000133048 0.000127941 0.114777)
(5.587e-05 -4.52216e-05 0.112615)
(-5.31811e-05 2.83755e-05 0.112298)
(1.47437e-05 -1.17086e-05 0.112332)
(-3.02557e-05 1.03475e-05 0.112341)
(-4.16118e-06 1.82407e-06 0.112368)
(-2.05317e-05 1.00131e-05 0.112413)
(-8.14638e-06 9.35832e-06 0.112463)
(-1.44254e-05 1.31518e-05 0.112513)
(-5.75295e-06 1.38554e-05 0.112554)
(-7.76683e-06 1.53628e-05 0.112583)
(2.15226e-08 1.59286e-05 0.112598)
(-0.00588839 0.00143317 0.0290469)
(-0.000275967 -0.000192854 0.088578)
(5.25779e-05 0.000179956 0.114036)
(-5.5994e-05 -7.57129e-05 0.113146)
(-2.99371e-05 2.19485e-05 0.112202)
(-8.24748e-06 -1.78391e-05 0.112207)
(-2.10126e-05 8.5766e-06 0.112256)
(-6.15873e-06 -2.29074e-06 0.112296)
(-1.60664e-05 7.21547e-06 0.112351)
(-4.94187e-06 5.31483e-06 0.112408)
(-1.02777e-05 7.97437e-06 0.112462)
(-2.62854e-06 7.50091e-06 0.112504)
(-5.33907e-06 7.93096e-06 0.112531)
(9.90323e-07 7.7593e-06 0.112545)
(-0.00324422 0.000470803 0.018062)
(-0.000335831 0.000392576 0.07203)
(0.000273329 -9.22218e-05 0.112134)
(-3.28148e-05 5.59238e-05 0.114273)
(-5.65476e-07 -2.67211e-05 0.112236)
(-8.75281e-07 -4.38514e-06 0.112008)
(-1.45573e-05 4.22466e-06 0.11212)
(-5.40705e-06 6.40634e-06 0.112201)
(-1.29346e-05 1.30823e-05 0.112277)
(-7.38436e-06 1.5435e-05 0.112349)
(-1.22492e-05 2.01166e-05 0.112411)
(-5.79647e-06 2.23097e-05 0.112455)
(-7.50988e-06 2.48467e-05 0.112482)
(-1.68112e-07 2.57636e-05 0.112495)
(-0.00881952 0.00185166 0.0309019)
(-0.000368051 -2.90945e-05 0.0875912)
(9.13577e-05 9.5991e-05 0.113551)
(-9.14546e-05 -2.65584e-06 0.11269)
(1.71413e-05 -7.13253e-06 0.111825)
(-1.06612e-05 4.85193e-06 0.111934)
(2.88155e-06 -3.02716e-06 0.112091)
(-7.03923e-06 5.92177e-06 0.112202)
(2.10094e-06 6.38719e-06 0.112294)
(-3.40606e-06 4.56815e-06 0.112367)
(2.09698e-06 4.69456e-06 0.112411)
(-1.90011e-06 1.69897e-06 0.112432)
(2.01498e-06 1.4903e-06 0.112441)
(-0.00451467 -0.000454712 0.0192905)
(-0.000395362 0.000402729 0.073718)
(0.000311443 -0.00013507 0.112367)
(-3.9232e-05 2.60024e-06 0.113794)
(3.00196e-06 -5.76786e-05 0.111796)
(-1.24319e-05 1.35033e-05 0.111682)
(-4.33515e-06 1.031e-05 0.111935)
(-3.70606e-06 1.59742e-05 0.11212)
(-8.85362e-06 2.17607e-05 0.112252)
(-1.39986e-05 2.98407e-05 0.112339)
(-8.63417e-06 3.46535e-05 0.112376)
(-1.06722e-05 3.9965e-05 0.112381)
(-4.19084e-07 4.20776e-05 0.112379)
(-0.00602661 0.000611877 0.0313728)
(-0.00034643 -0.000231959 0.0887266)
(5.61157e-05 0.000287527 0.113572)
(2.59494e-05 -2.54867e-05 0.112655)
(5.73409e-05 -2.47531e-06 0.111799)
(7.31105e-06 -1.71697e-05 0.111825)
(4.84071e-06 1.39507e-06 0.112006)
(1.58158e-05 7.90692e-06 0.112202)
(9.26384e-06 -1.29201e-05 0.112328)
(1.20705e-05 -1.10068e-05 0.112361)
(5.39836e-06 -2.39755e-05 0.112335)
(4.1407e-06 -2.51186e-05 0.112306)
(-0.0042278 -0.00184822 0.014937)
(-0.000467712 0.000586924 0.0705497)
(0.000567933 -0.000568517 0.112502)
(-0.000287179 -5.54642e-05 0.113568)
(-1.92579e-06 3.99153e-05 0.113791)
(3.16781e-06 9.27627e-05 0.112685)
(2.6919e-05 2.14797e-07 0.11223)
(-2.09462e-05 3.34257e-05 0.112195)
(-3.26147e-05 5.10797e-05 0.112291)
(-1.95623e-05 6.24681e-05 0.112317)
(-2.44526e-05 7.45358e-05 0.112242)
(-1.17139e-06 8.02611e-05 0.112161)
(0.00238184 -0.0116345 0.016513)
(-0.000587651 0.000469636 0.0704963)
(0.000232459 0.00034704 0.0886802)
(0.000135531 -0.000311328 0.112353)
(-9.6764e-05 -9.18047e-05 0.113541)
(-5.32653e-05 3.31472e-05 0.114265)
(7.19297e-05 5.62734e-05 0.113138)
(4.27144e-05 -5.60904e-05 0.112608)
(3.56602e-05 -3.91563e-05 0.112312)
(2.16018e-05 -8.31291e-05 0.112101)
(9.20104e-06 -7.97377e-05 0.111954)
(0.00417723 -0.00861837 0.018864)
(-0.00140775 -0.000617628 0.0271245)
(-0.000402348 0.000396161 0.0737069)
(2.99087e-05 0.000368041 0.0875783)
(9.31368e-05 -0.000272143 0.112126)
(-0.000179338 -5.29394e-05 0.114027)
(-0.000130171 0.00013536 0.114767)
(-3.9672e-05 0.000109081 0.11349)
(-6.10044e-05 0.00014481 0.112557)
(3.23211e-06 0.000149372 0.112306)
(-0.00215698 0.00141725 0.0296302)
(-0.00447144 0.000428193 0.0268418)
(-0.000390862 0.000336 0.0720267)
(0.000190435 0.000276163 0.0885716)
(0.000154754 -0.000388498 0.113413)
(3.77133e-05 -0.000103842 0.116124)
(5.65302e-05 -0.000225217 0.113274)
(1.1496e-05 -0.00018898 0.112814)
(-0.00252163 0.000425918 0.0166191)
(-0.00269736 0.00157921 0.0314698)
(-0.00433804 -0.00017758 0.0269591)
(-0.000344041 0.000492151 0.0751951)
(0.000115855 0.000168392 0.0937279)
(-9.40543e-05 0.000265886 0.0888647)
(3.49508e-05 0.000257105 0.0882045)
(-0.00230263 -0.00657614 0.022108)
(0.00298237 -0.00668471 0.0250912)
(-0.00108345 0.00152513 0.0320798)
(0.000151211 0.00147964 0.0293473)
(-0.00497759 1.25991e-06 0.0217229)
(-0.000255973 -5.00724e-05 0.0882083)
(0.000186669 -4.36894e-06 0.112828)
(-0.000147348 -1.16134e-05 0.112314)
(7.84307e-05 -3.09475e-06 0.111959)
(-7.75395e-05 -3.64122e-06 0.112164)
(2.67263e-05 -2.36288e-06 0.112307)
(-4.00852e-05 -2.17589e-06 0.112379)
(1.8332e-06 -2.39983e-06 0.112439)
(-2.29243e-05 -1.68656e-06 0.112492)
(-5.67686e-06 -1.85025e-06 0.112541)
(-1.41726e-05 -1.41069e-06 0.112593)
(-4.17514e-06 -1.44512e-06 0.112643)
(-7.29898e-06 -1.34038e-06 0.112692)
(4.96603e-07 -1.18644e-06 0.112723)
(-0.00467691 -0.000707496 0.0197464)
(-0.000257106 8.38685e-05 0.088886)
(0.000232268 -6.39037e-05 0.113292)
(-0.000141368 5.0558e-05 0.112574)
(8.86356e-05 -2.68149e-05 0.112108)
(-7.42391e-05 1.91444e-05 0.112249)
(2.94761e-05 -8.01379e-06 0.112338)
(-3.93352e-05 6.73026e-06 0.112382)
(2.79217e-06 -3.44404e-07 0.112431)
(-2.18951e-05 3.88684e-06 0.112479)
(-5.32906e-06 2.71191e-06 0.112527)
(-1.36903e-05 4.26216e-06 0.112579)
(-4.11062e-06 4.52939e-06 0.112626)
(-7.09852e-06 5.19189e-06 0.112667)
(4.87093e-07 5.54091e-06 0.112691)
(-0.00127456 -0.0015014 0.0104459)
(-0.000167595 -0.000110695 0.0937445)
(0.000103422 -4.09838e-05 0.116148)
(-0.000104714 4.13179e-05 0.113507)
(4.30672e-05 -3.86558e-05 0.112322)
(-5.70931e-05 1.69932e-05 0.112325)
(1.39874e-05 -1.52175e-05 0.112366)
(-3.22804e-05 5.43399e-06 0.112379)
(-1.04671e-06 -4.11237e-06 0.112411)
(-1.98506e-05 2.89943e-06 0.112455)
(-5.29612e-06 6.98056e-07 0.112502)
(-1.23514e-05 3.23583e-06 0.112552)
(-3.24287e-06 2.74015e-06 0.112594)
(-6.2861e-06 3.39976e-06 0.112627)
(8.04468e-07 3.44949e-06 0.112644)
(-0.000488394 0.000343267 0.0752063)
(0.000391544 -0.000154283 0.113426)
(-0.000131621 0.000128134 0.114781)
(5.73078e-05 -4.72018e-05 0.112617)
(-5.08906e-05 2.84701e-05 0.1123)
(1.77783e-05 -1.34389e-05 0.112332)
(-2.807e-05 9.68234e-06 0.11234)
(2.25428e-07 1.71064e-07 0.112367)
(-1.7079e-05 7.70471e-06 0.112411)
(-4.98972e-06 6.67884e-06 0.11246)
(-1.16477e-05 1.01821e-05 0.11251)
(-3.94529e-06 1.08097e-05 0.11255)
(-6.38866e-06 1.22804e-05 0.112579)
(4.92529e-07 1.2938e-05 0.112593)
(-0.00588859 0.00143386 0.0290472)
(-0.000276253 -0.000193167 0.0885805)
(5.28753e-05 0.000179563 0.114039)
(-5.44966e-05 -7.69858e-05 0.113149)
(-2.77915e-05 2.13897e-05 0.112204)
(-5.11545e-06 -2.04019e-05 0.112208)
(-1.84531e-05 7.21247e-06 0.112256)
(-2.96847e-06 -4.59476e-06 0.112296)
(-1.3344e-05 4.6746e-06 0.11235)
(-2.80822e-06 2.50589e-06 0.112407)
(-8.21994e-06 4.77131e-06 0.11246)
(-1.14177e-06 4.09935e-06 0.112501)
(-4.15826e-06 4.42219e-06 0.112528)
(1.44731e-06 4.16268e-06 0.112542)
(-0.00324418 0.000470817 0.0180623)
(-0.000336242 0.000391988 0.0720317)
(0.000273831 -9.29347e-05 0.112137)
(-3.15633e-05 5.51935e-05 0.114275)
(4.21932e-07 -2.82582e-05 0.112238)
(1.35068e-06 -5.84564e-06 0.112009)
(-1.21187e-05 2.06799e-06 0.11212)
(-2.20113e-06 4.44655e-06 0.1122)
(-9.98885e-06 9.90694e-06 0.112276)
(-4.89007e-06 1.22441e-05 0.112347)
(-1.00635e-05 1.68657e-05 0.112409)
(-4.29423e-06 1.87651e-05 0.112452)
(-6.3267e-06 2.14289e-05 0.112478)
(2.55409e-07 2.21667e-05 0.112492)
(-0.00881948 0.0018518 0.0309022)
(-0.000367685 -2.95791e-05 0.0875932)
(9.20686e-05 9.49172e-05 0.113553)
(-9.00507e-05 -3.73252e-06 0.112693)
(1.96484e-05 -8.21999e-06 0.111826)
(-8.60094e-06 2.82771e-06 0.111936)
(5.05469e-06 -5.2747e-06 0.112091)
(-5.54757e-06 2.744e-06 0.112202)
(4.16113e-06 2.61058e-06 0.112293)
(-1.6986e-06 3.46622e-07 0.112366)
(3.41882e-06 -1.10969e-07 0.11241)
(-7.70618e-07 -3.31037e-06 0.112431)
(2.25555e-06 -3.86495e-06 0.11244)
(-0.00451474 -0.000454763 0.0192906)
(-0.000394859 0.000402149 0.0737195)
(0.000312348 -0.000136206 0.112369)
(-3.82646e-05 1.82066e-06 0.113796)
(4.26803e-06 -5.97584e-05 0.111798)
(-1.11599e-05 1.17806e-05 0.111682)