/*--------------------------------*- C++ -*----------------------------------*\
| =========                 |                                                 |
| \\      /  F ield         | OpenFOAM: The Open Source CFD Toolbox           |
|  \\    /   O peration     | Version:  2.1.1                                 |
|   \\  /    A nd           | Web:      www.OpenFOAM.org                      |
|    \\/     M anipulation  |                                                 |
\*---------------------------------------------------------------------------*/
FoamFile
{
    version     2.0;
    format      ascii;
    class       surfaceScalarField;
    location    "0.0015";
    object      phi;
}
// * * * * * * * * * * * * * * * * * * * * * * * * * * * * * * * * * * * * * //

dimensions      [0 3 -1 0 0 0 0];

internalField   nonuniform List<scalar> 
29479
(
8.1264e-13
6.36419e-11
1.73433e-10
-2.49842e-12
8.68446e-12
5.73222e-11
1.51821e-10
-7.03997e-12
8.20585e-11
5.00339e-11
-3.7499e-11
2.03331e-12
3.46345e-11
2.56773e-10
-3.42209e-11
-3.23635e-12
4.83092e-12
3.3384e-11
2.53235e-10
-5.46557e-11
-3.43127e-12
-7.70757e-12
3.71257e-11
2.80207e-10
-7.8327e-11
1.49591e-11
-2.02103e-11
2.73221e-11
2.97705e-10
-7.86695e-11
1.96938e-11
-4.35226e-11
3.90148e-11
3.28789e-10
2.01525e-11
-1.94564e-11
7.49354e-11
1.48258e-10
-1.58287e-11
-4.33266e-14
2.10009e-11
2.4842e-10
-1.61772e-11
7.36026e-13
-8.2647e-13
2.1121e-11
2.47573e-10
-1.61972e-11
1.61113e-12
-2.84403e-12
2.01693e-11
2.49113e-10
-1.5415e-11
3.93779e-12
-8.78003e-12
1.91445e-11
2.53575e-10
-2.71854e-11
8.1775e-12
-1.14995e-11
2.55239e-11
2.58539e-10
-3.28903e-11
1.39597e-11
-2.13942e-11
2.88867e-11
2.64982e-10
-5.73208e-11
3.21278e-11
-3.0121e-11
2.71792e-11
2.72528e-10
4.19608e-11
-1.23014e-11
5.70951e-11
1.6508e-10
-8.32467e-12
-2.24378e-13
1.09192e-11
2.48315e-10
-8.57155e-12
5.36256e-13
-1.03813e-12
1.09346e-11
2.4849e-10
-8.28794e-12
1.60209e-12
-2.91796e-12
1.08726e-11
2.48883e-10
-8.16598e-12
2.91429e-12
-7.13361e-12
1.18051e-11
2.50841e-10
-1.19636e-11
6.47012e-12
-1.03409e-11
1.57279e-11
2.50912e-10
-1.60115e-11
8.36571e-12
-1.28599e-11
2.0822e-11
2.51597e-10
-2.8303e-11
1.28493e-11
-1.19954e-11
2.95602e-11
2.51369e-10
-3.33511e-11
9.78059e-12
-1.77049e-11
3.10571e-11
2.63497e-10
-7.47826e-11
3.58801e-11
-6.40975e-11
3.70571e-11
3.41351e-10
2.00722e-11
2.83029e-11
6.92204e-11
-3.32205e-12
-1.92882e-13
6.06936e-12
2.47507e-10
-3.46419e-12
2.44252e-13
-8.09344e-13
6.1299e-12
2.47919e-10
-3.61475e-12
8.15088e-13
-1.91871e-12
6.31601e-12
2.48394e-10
-3.99519e-12
1.46522e-12
-3.93509e-12
7.00266e-12
2.49454e-10
-5.74491e-12
3.01348e-12
-6.11195e-12
9.03115e-12
2.49865e-10
-8.5082e-12
4.35048e-12
-8.79079e-12
1.23766e-11
2.50845e-10
-1.31284e-11
7.73249e-12
-1.11095e-11
1.71257e-11
2.50272e-10
-1.8006e-11
8.74216e-12
-1.20573e-11
2.20602e-11
2.51882e-10
-2.75498e-11
1.09251e-11
-1.21929e-11
2.71369e-11
2.56652e-10
-4.18218e-11
1.31292e-11
-2.66305e-11
3.01123e-11
2.74357e-10
2.36834e-11
4.72215e-11
9.55232e-11
-2.38298e-12
-2.02127e-13
4.45665e-12
2.48127e-10
-2.42075e-12
2.18887e-13
-7.26732e-13
4.51345e-12
2.48416e-10
-2.45788e-12
6.00865e-13
-1.44506e-12
4.65016e-12
2.48651e-10
-2.44268e-12
9.58586e-13
-2.48036e-12
4.91033e-12
2.49052e-10
-2.946e-12
1.71126e-12
-3.59303e-12
5.67403e-12
2.49152e-10
-4.012e-12
2.26241e-12
-4.92746e-12
6.98275e-12
2.49705e-10
-6.38224e-12
3.49782e-12
-6.49613e-12
9.18409e-12
2.50312e-10
-9.35641e-12
4.52647e-12
-8.65519e-12
1.19631e-11
2.52285e-10
-1.32494e-11
7.35649e-12
-1.17258e-11
1.54038e-11
2.54973e-10
-1.6076e-11
9.12935e-12
-1.51119e-11
1.79751e-11
2.59294e-10
-4.42669e-11
1.93709e-11
-4.26941e-11
2.383e-11
2.92853e-10
3.67208e-11
2.33586e-11
9.11512e-11
-1.58162e-12
-1.94904e-13
3.44938e-12
2.48323e-10
-1.59564e-12
1.94774e-13
-6.488e-13
3.49267e-12
2.48557e-10
-1.62682e-12
4.76686e-13
-1.17859e-12
3.59337e-12
2.48735e-10
-1.63656e-12
7.09911e-13
-1.85235e-12
3.74675e-12
2.49032e-10
-1.80824e-12
1.16259e-12
-2.55152e-12
4.10324e-12
2.49094e-10
-2.14136e-12
1.42939e-12
-3.33111e-12
4.6224e-12
2.4942e-10
-2.88822e-12
2.06058e-12
-4.25529e-12
5.46639e-12
2.49624e-10
-3.98723e-12
2.57709e-12
-5.80336e-12
6.56117e-12
2.50787e-10
-6.05313e-12
4.19119e-12
-8.7859e-12
8.24206e-12
2.53227e-10
-9.22933e-12
7.28494e-12
-1.58888e-11
1.07173e-11
2.59854e-10
-1.18558e-11
1.33774e-11
-2.46997e-11
1.38609e-11
2.6461e-10
-3.37506e-11
2.39633e-11
-4.4715e-11
4.04193e-11
2.59428e-10
-1.35177e-12
-1.87893e-13
2.8022e-12
2.48733e-10
-1.34648e-12
1.79054e-13
-5.97887e-13
2.83215e-12
2.48933e-10
-1.35347e-12
4.05488e-13
-1.04228e-12
2.90177e-12
2.49088e-10
-1.33644e-12
5.96912e-13
-1.55923e-12
2.99685e-12
2.49302e-10
-1.4006e-12
9.08817e-13
-2.10244e-12
3.19623e-12
2.49398e-10
-1.5014e-12
1.11823e-12
-2.7033e-12
3.46767e-12
2.49619e-10
-1.78804e-12
1.53078e-12
-3.41542e-12
3.89444e-12
2.49778e-10
-2.16206e-12
1.90057e-12
-4.5427e-12
4.39652e-12
2.5042e-10
-3.06879e-12
2.98827e-12
-7.06236e-12
5.31851e-12
2.51967e-10
-4.91135e-12
5.3596e-12
-1.31811e-11
7.04208e-12
2.56499e-10
-1.04702e-11
1.09364e-11
-2.36269e-11
1.09836e-11
2.64867e-10
-2.86424e-11
2.18609e-11
-3.63781e-11
1.97122e-11
2.78003e-10
-2.3239e-11
5.0931e-11
-4.96683e-11
2.4317e-11
2.62074e-10
-1.0282e-12
-1.77516e-13
2.2503e-12
2.48952e-10
-1.02222e-12
1.64371e-13
-5.54353e-13
2.27364e-12
2.49138e-10
-1.02791e-12
3.5758e-13
-9.48794e-13
2.32698e-12
2.49292e-10
-1.02616e-12
5.26823e-13
-1.39042e-12
2.4001e-12
2.49489e-10
-1.04921e-12
7.76366e-13
-1.86038e-12
2.53159e-12
2.49601e-10
-1.08671e-12
9.71859e-13
-2.3987e-12
2.69834e-12
2.49815e-10
-1.19123e-12
1.31381e-12
-3.04257e-12
2.96514e-12
2.49955e-10
-1.32825e-12
1.64772e-12
-3.99421e-12
3.31196e-12
2.50363e-10
-1.59096e-12
2.45819e-12
-5.81706e-12
3.86766e-12
2.51093e-10
-2.34398e-12
4.09896e-12
-1.02026e-11
5.0438e-12
2.53523e-10
-5.25959e-12
8.3067e-12
-1.94452e-11
7.76109e-12
2.5938e-10
-1.20635e-11
1.52479e-11
-2.83685e-11
1.28089e-11
2.6523e-10
-2.74978e-11
2.64956e-11
-3.11989e-11
2.03203e-11
2.63467e-10
6.58128e-11
7.92596e-12
7.96731e-11
-8.6004e-13
-1.6864e-13
1.81272e-12
2.49215e-10
-8.51919e-13
1.53466e-13
-5.21951e-13
1.82947e-12
2.4939e-10
-8.52911e-13
3.24737e-13
-8.85777e-13
1.86965e-12
2.49544e-10
-8.50055e-13
4.83182e-13
-1.28298e-12
1.92641e-12
2.49723e-10
-8.62997e-13
6.94103e-13
-1.7081e-12
2.02046e-12
2.49856e-10
-8.84714e-13
8.79271e-13
-2.19743e-12
2.13777e-12
2.50065e-10
-9.44614e-13
1.17142e-12
-2.78427e-12
2.32059e-12
2.50236e-10
-1.03369e-12
1.47466e-12
-3.60043e-12
2.58311e-12
2.50576e-10
-1.23965e-12
2.08682e-12
-4.94244e-12
3.02205e-12
2.51073e-10
-1.74902e-12
3.1519e-12
-7.8423e-12
3.86683e-12
2.52579e-10
-3.6112e-12
5.83761e-12
-1.42531e-11
5.93893e-12
2.56246e-10
-9.64497e-12
1.01458e-11
-2.23272e-11
1.02102e-11
2.62908e-10
-2.37232e-11
1.75604e-11
-2.55452e-11
1.8996e-11
2.66671e-10
-4.06108e-11
3.01861e-11
-5.55449e-11
3.07343e-11
3.02695e-10
-6.62712e-13
-1.61931e-13
1.41845e-12
2.49403e-10
-6.55051e-13
1.44678e-13
-4.95258e-13
1.43133e-12
2.49574e-10
-6.56384e-13
3.00199e-13
-8.37397e-13
1.46121e-12
2.49732e-10
-6.57945e-13
4.5082e-13
-1.20874e-12
1.50509e-12
2.4991e-10
-6.60285e-13
6.42218e-13
-1.60561e-12
1.57319e-12
2.5005e-10
-6.68018e-13
8.18846e-13
-2.06162e-12
1.66071e-12
2.5025e-10
-6.8785e-13
1.08059e-12
-2.60081e-12
1.78774e-12
2.5042e-10
-7.1248e-13
1.3584e-12
-3.32482e-12
1.97127e-12
2.50707e-10
-7.66912e-13
1.8751e-12
-4.37549e-12
2.27322e-12
2.50994e-10
-9.33323e-13
2.61682e-12
-6.31285e-12
2.84253e-12
2.51786e-10
-1.62852e-12
4.4233e-12
-1.0393e-11
4.13033e-12
2.53493e-10
-4.4922e-12
7.66538e-12
-1.79559e-11
7.17772e-12
2.58077e-10
-1.23794e-11
1.31078e-11
-2.322e-11
1.33925e-11
2.61889e-10
-3.4398e-11
1.53038e-11
-4.11194e-11
3.7656e-11
2.69695e-10
-5.22206e-13
-1.5619e-13
1.07154e-12
2.49603e-10
-5.16176e-13
1.36897e-13
-4.75141e-13
1.08123e-12
2.49773e-10
-5.14018e-13
2.83499e-13
-8.01733e-13
1.10326e-12
2.49929e-10
-5.12131e-13
4.26284e-13
-1.15186e-12
1.135e-12
2.50102e-10
-5.23404e-13
5.99136e-13
-1.52751e-12
1.18621e-12
2.50265e-10
-5.36842e-13
7.66797e-13
-1.95393e-12
1.25136e-12
2.50472e-10
-5.5881e-13
9.99268e-13
-2.44653e-12
1.34109e-12
2.50665e-10
-5.90935e-13
1.23805e-12
-3.08454e-12
1.46966e-12
2.50967e-10
-6.54359e-13
1.66666e-12
-3.93551e-12
1.66837e-12
2.51255e-10
-7.93107e-13
2.18825e-12
-5.32487e-12
2.04397e-12
2.51885e-10
-1.20588e-12
3.41938e-12
-7.98888e-12
2.76429e-12
2.53007e-10
-2.83133e-12
5.5814e-12
-1.37728e-11
4.7162e-12
2.56417e-10
-8.27996e-12
1.06174e-11
-2.09572e-11
8.40724e-12
2.61609e-10
-2.51836e-11
1.9743e-11
-3.52351e-11
1.85319e-11
2.75057e-10
-1.48672e-11
8.56332e-11
2.139e-11
1.30526e-10
-3.72442e-13
-1.51453e-13
7.45773e-13
2.49776e-10
-3.68301e-13
1.31442e-13
-4.60489e-13
7.53967e-13
2.49943e-10
-3.65843e-13
2.70648e-13
-7.75722e-13
7.68888e-13
2.50102e-10
-3.67882e-13
4.06575e-13
-1.11244e-12
7.91477e-13
2.50282e-10
-3.73242e-13
5.67348e-13
-1.47421e-12
8.23473e-13
2.50456e-10
-3.81085e-13
7.28542e-13
-1.88348e-12
8.67546e-13
2.50668e-10
-3.89658e-13
9.46549e-13
-2.34646e-12
9.25078e-13
2.50864e-10
-4.05482e-13
1.15374e-12
-2.93237e-12
1.00562e-12
2.51178e-10
-4.21829e-13
1.52772e-12
-3.65925e-12
1.1085e-12
2.51445e-10
-4.78009e-13
1.88974e-12
-4.76951e-12
1.2913e-12
2.52066e-10
-5.7808e-13
2.82808e-12
-6.56827e-12
1.5253e-12
2.52786e-10
-1.21541e-12
4.07152e-12
-1.1019e-11
2.13672e-12
2.56031e-10
-2.82251e-12
8.31756e-12
-1.88915e-11
2.02964e-12
2.6207e-10
-6.56996e-12
1.3804e-11
-2.55555e-11
-1.833e-12
2.73227e-10
-3.57185e-13
6.27431e-11
-1.90917e-12
2.04986e-10
-2.46852e-13
-1.47521e-13
4.43295e-13
2.49954e-10
-2.44979e-13
1.26266e-13
-4.49733e-13
4.47517e-13
2.5012e-10
-2.4694e-13
2.58885e-13
-7.58427e-13
4.55859e-13
2.5029e-10
-2.49007e-13
3.89402e-13
-1.08671e-12
4.69567e-13
2.50476e-10
-2.53852e-13
5.45379e-13
-1.43842e-12
4.8874e-13
2.50658e-10
-2.62507e-13
6.94946e-13
-1.83552e-12
5.15555e-13
2.50887e-10
-2.79525e-13
9.00837e-13
-2.2785e-12
5.50445e-13
2.51106e-10
-3.07989e-13
1.08206e-12
-2.83416e-12
5.987e-13
2.51461e-10
-3.50479e-13
1.4176e-12
-3.49461e-12
6.5798e-13
2.51769e-10
-4.47731e-13
1.67867e-12
-4.49846e-12
7.52538e-13
2.52515e-10
-6.13396e-13
2.47397e-12
-6.08027e-12
8.44763e-13
2.53374e-10
-1.01876e-12
3.43069e-12
-1.06199e-11
9.68982e-13
2.57283e-10
-9.64821e-13
8.13741e-12
-2.05892e-11
1.20979e-13
2.64072e-10
3.27795e-12
1.6044e-11
-3.62572e-11
-2.84932e-12
2.73658e-10
1.34166e-11
4.45348e-11
-7.4632e-11
-1.05162e-11
2.6396e-10
-1.19612e-13
-1.45219e-13
1.42925e-13
2.50123e-10
-1.19785e-13
1.22535e-13
-4.44201e-13
1.47985e-13
2.50293e-10
-1.19494e-13
2.51819e-13
-7.48597e-13
1.50111e-13
2.50466e-10
-1.19556e-13
3.79323e-13
-1.07369e-12
1.53825e-13
2.5066e-10
-1.20996e-13
5.31461e-13
-1.42097e-12
1.59624e-13
2.5085e-10
-1.25199e-13
6.74322e-13
-1.81378e-12
1.6757e-13
2.51097e-10
-1.31517e-13
8.74721e-13
-2.25081e-12
1.77785e-13
2.51329e-10
-1.4375e-13
1.0454e-12
-2.79984e-12
1.90537e-13
2.51707e-10
-1.62781e-13
1.36813e-12
-3.44225e-12
2.04247e-13
2.52032e-10
-2.13188e-13
1.5945e-12
-4.43538e-12
2.25148e-13
2.52829e-10
-3.06173e-13
2.37158e-12
-6.02706e-12
2.39551e-13
2.53731e-10
-5.98654e-13
3.27245e-12
-1.07876e-11
2.59078e-13
2.58011e-10
-2.82146e-13
8.19227e-12
-2.10317e-11
-5.93159e-14
2.64531e-10
1.69372e-12
1.60638e-11
-3.45502e-11
-1.21786e-12
2.73177e-10
6.90617e-12
3.58476e-11
-5.89854e-11
-3.46093e-12
2.60499e-10
-1.39472e-10
1.88398e-12
2.34564e-11
1.14111e-10
-1.17187e-10
-3.54599e-12
5.6936e-12
1.79571e-11
9.70823e-11
-2.82582e-11
-1.41292e-12
6.1974e-12
2.34738e-11
7.81178e-12
5.1658e-10
1.02557e-09
-2.24948e-10
-2.25777e-10
-3.35804e-10
-3.37591e-10
2.36262e-11
2.36984e-11
-2.36253e-10
-2.37262e-10
-1.56698e-11
5.15641e-10
1.02944e-09
-2.17967e-10
-2.47907e-10
-3.24815e-10
-3.39144e-10
3.71933e-11
3.15954e-11
-2.29e-10
-2.31554e-10
-1.928e-10
5.25863e-10
1.19826e-09
-2.64455e-10
-2.96586e-10
-3.36035e-10
-3.44435e-10
4.41104e-11
-1.78312e-11
-1.80016e-10
-1.51752e-10
7.6496e-11
4.90203e-10
9.67449e-10
-3.02016e-10
-2.32551e-10
-3.46386e-10
-2.96763e-10
1.03753e-11
5.19719e-11
-1.24689e-10
-1.20439e-10
-1.58025e-11
-1.61139e-10
-1.89506e-10
-2.63835e-10
1.24009e-11
-4.04619e-12
5.6317e-11
2.75658e-10
-1.02892e-10
6.92361e-13
-9.5214e-12
3.36506e-11
7.80703e-11
-3.4615e-12
3.1032e-10
1.27516e-09
-2.32817e-10
-2.3541e-10
-2.97934e-10
-2.99477e-10
-1.89232e-11
3.10653e-10
1.29541e-09
-2.3521e-10
-2.45835e-10
-2.95081e-10
-2.98835e-10
-1.08287e-10
3.32604e-10
1.37944e-09
-2.50599e-10
-2.58708e-10
-2.93904e-10
-2.93598e-10
-2.09053e-10
3.6364e-10
1.37474e-09
-2.78856e-10
-2.57449e-10
-3.15339e-10
-2.95772e-10
-2.8931e-10
4.96252e-10
1.12099e-09
-2.62887e-10
-2.18618e-10
-3.30701e-10
-2.99979e-10
-5.1593e-11
1.85986e-11
-2.06301e-10
-1.855e-10
8.88486e-11
5.43915e-10
9.24182e-10
-2.70121e-10
-2.11843e-10
-3.46874e-10
-2.95638e-10
6.69087e-12
7.78009e-11
-2.16526e-10
-1.83842e-10
-1.72047e-11
-1.92557e-10
-1.96146e-10
-2.46782e-10
-1.15435e-11
-1.47168e-11
9.03415e-11
2.7155e-10
-1.24746e-10
-8.98189e-12
-7.63881e-12
4.28149e-11
9.85514e-11
-1.87849e-11
2.07762e-10
1.14954e-09
-2.4066e-10
-2.41692e-10
-2.72946e-10
-2.73035e-10
-4.60291e-11
2.10108e-10
1.15878e-09
-2.42692e-10
-2.45502e-10
-2.72569e-10
-2.70216e-10
-9.40379e-11
2.24886e-10
1.19058e-09
-2.48256e-10
-2.48873e-10
-2.72475e-10
-2.65262e-10
-1.48447e-10
2.30925e-10
1.24534e-09
-2.59651e-10
-2.4733e-10
-2.8314e-10
-2.68086e-10
-2.03483e-10
3.17241e-10
1.31352e-09
-2.60733e-10
-2.39081e-10
-3.00434e-10
-2.79228e-10
-2.34027e-10
3.71818e-10
1.33844e-09
-2.65009e-10
-2.40886e-10
-3.25746e-10
-3.04167e-10
-2.65954e-10
4.89241e-10
1.1053e-09
-2.41152e-10
-2.16491e-10
-3.36133e-10
-3.13014e-10
-4.53948e-11
2.20179e-11
-2.23222e-10
-2.09222e-10
9.02088e-11
5.34914e-10
9.70536e-10
-2.50611e-10
-2.34152e-10
-3.5201e-10
-3.24688e-10
7.77429e-12
7.59792e-11
-2.30442e-10
-1.95239e-10
-1.50292e-11
-1.62541e-10
-1.80653e-10
-2.847e-10
8.70127e-13
3.54989e-12
5.76091e-11
3.1288e-10
-3.93293e-11
6.24338e-12
-2.94247e-12
3.60284e-11
-1.64741e-11
1.46654e-10
1.08026e-09
-2.41507e-10
-2.41631e-10
-2.60121e-10
-2.59476e-10
-3.56827e-11
1.48667e-10
1.08506e-09
-2.42761e-10
-2.422e-10
-2.61238e-10
-2.5821e-10
-6.17462e-11
1.60944e-10
1.09505e-09
-2.44029e-10
-2.42122e-10
-2.6209e-10
-2.56804e-10
-9.67473e-11
1.65581e-10
1.11539e-09
-2.47999e-10
-2.42379e-10
-2.67236e-10
-2.57429e-10
-1.29431e-10
2.04441e-10
1.16798e-09
-2.49768e-10
-2.39972e-10
-2.73894e-10
-2.58865e-10
-1.59456e-10
2.20772e-10
1.23355e-09
-2.5431e-10
-2.39476e-10
-2.8849e-10
-2.70193e-10
-2.02429e-10
3.03819e-10
1.30687e-09
-2.52972e-10
-2.37072e-10
-3.02741e-10
-2.85693e-10
-2.10691e-10
3.43821e-10
1.33988e-09
-2.60127e-10
-2.46407e-10
-3.26046e-10
-3.07944e-10
-2.06737e-10
4.12801e-10
1.07538e-09
-2.40984e-10
-2.23702e-10
-3.28116e-10
-3.07469e-10
-3.37636e-11
3.22174e-11
-2.06293e-10
-1.84026e-10
7.62275e-11
3.02853e-10
9.35103e-10
-2.4853e-10
-2.29548e-10
-3.40603e-10
-3.22465e-10
6.74983e-11
5.88256e-11
-1.73451e-10
-1.29348e-10
1.22012e-11
-1.02987e-10
-1.12514e-10
-6.03535e-11
4.32106e-11
9.33713e-11
-1.52141e-11
1.10646e-10
1.0558e-09
-2.4325e-10
-2.42973e-10
-2.59637e-10
-2.58763e-10
-3.19977e-11
1.1227e-10
1.05854e-09
-2.44115e-10
-2.42747e-10
-2.60841e-10
-2.57656e-10
-5.06158e-11
1.20651e-10
1.06351e-09
-2.44666e-10
-2.41939e-10
-2.61793e-10
-2.56208e-10
-7.21524e-11
1.2417e-10
1.06986e-09
-2.46302e-10
-2.41302e-10
-2.64148e-10
-2.55154e-10
-9.24495e-11
1.45139e-10
1.08637e-09
-2.46643e-10
-2.39705e-10
-2.66251e-10
-2.54175e-10
-1.16379e-10
1.51418e-10
1.10831e-09
-2.48419e-10
-2.3983e-10
-2.70875e-10
-2.55904e-10
-1.40418e-10
1.86719e-10
1.16473e-09
-2.49443e-10
-2.39719e-10
-2.7621e-10
-2.58223e-10
-1.64457e-10
1.93344e-10
1.22597e-09
-2.54834e-10
-2.4123e-10
-2.88489e-10
-2.66899e-10
-2.07096e-10
2.45656e-10
1.2855e-09
-2.57211e-10
-2.39082e-10
-3.03859e-10
-2.75565e-10
-3.03107e-10
2.05816e-10
1.33029e-09
-2.72683e-10
-2.63922e-10
-3.28158e-10
-2.7248e-10
5.87303e-11
2.06189e-10
9.35195e-10
-3.22925e-10
-2.29557e-10
-3.40464e-10
-2.48794e-10
1.25869e-11
7.65648e-11
-1.12663e-10
-1.02879e-10
6.74252e-11
-1.29206e-10
-1.7331e-10
-5.9295e-11
1.80384e-11
9.99866e-11
-1.2063e-11
8.38422e-11
1.04035e-09
-2.44283e-10
-2.43827e-10
-2.5711e-10
-2.5628e-10
-2.50113e-11
8.50288e-11
1.04219e-09
-2.45044e-10
-2.43354e-10
-2.58202e-10
-2.55409e-10
-3.90017e-11
9.06232e-11
1.04569e-09
-2.4556e-10
-2.4252e-10
-2.59179e-10
-2.54407e-10
-5.5835e-11
9.38848e-11
1.05036e-09
-2.46672e-10
-2.4176e-10
-2.61095e-10
-2.53717e-10
-7.30355e-11
1.06518e-10
1.05838e-09
-2.46783e-10
-2.40245e-10
-2.62902e-10
-2.5263e-10
-9.45626e-11
1.11439e-10
1.06693e-09
-2.47651e-10
-2.39677e-10
-2.65798e-10
-2.52303e-10
-1.20679e-10
1.30776e-10
1.088e-09
-2.47807e-10
-2.38906e-10
-2.67631e-10
-2.51598e-10
-1.62833e-10
1.34432e-10
1.11612e-09
-2.50304e-10
-2.3974e-10
-2.72038e-10
-2.52979e-10
-2.45447e-10
1.62695e-10
1.19498e-09
-2.54461e-10
-2.40531e-10
-2.79945e-10
-2.54464e-10
-4.12665e-10
1.63799e-10
1.28475e-09
-2.75563e-10
-2.38958e-10
-3.03817e-10
-2.57176e-10
3.20942e-11
2.1058e-10
1.07514e-09
-3.07289e-10
-2.2359e-10
-3.28096e-10
-2.40914e-10
-3.38207e-11
-1.84215e-10
-2.06366e-10
-2.19727e-10
-2.62332e-11
-3.9201e-11
7.49988e-11
2.42255e-10
-1.05503e-11
6.51447e-11
1.03152e-09
-2.45572e-10
-2.45046e-10
-2.56238e-10
-2.55427e-10
-2.16285e-11
6.59594e-11
1.03265e-09
-2.46236e-10
-2.44476e-10
-2.57197e-10
-2.54598e-10
-3.31569e-11
6.94571e-11
1.03492e-09
-2.46726e-10
-2.43693e-10
-2.58104e-10
-2.53696e-10
-4.6395e-11
7.17399e-11
1.03829e-09
-2.47542e-10
-2.42934e-10
-2.59477e-10
-2.52957e-10
-6.05939e-11
7.93007e-11
1.04383e-09
-2.47838e-10
-2.41725e-10
-2.60794e-10
-2.52057e-10
-7.86903e-11
8.32743e-11
1.05023e-09
-2.48574e-10
-2.4084e-10
-2.63085e-10
-2.51475e-10
-1.00644e-10
9.51528e-11
1.0616e-09
-2.48736e-10
-2.39627e-10
-2.65202e-10
-2.50457e-10
-1.34518e-10
1.00559e-10
1.07508e-09
-2.50015e-10
-2.39443e-10
-2.67878e-10
-2.49999e-10
-1.93394e-10
1.20562e-10
1.11601e-09
-2.52982e-10
-2.39718e-10
-2.72026e-10
-2.50275e-10
-3.44012e-10
1.40094e-10
1.22571e-09
-2.66924e-10
-2.41193e-10
-2.88478e-10
-2.54789e-10
-5.34972e-10
2.02213e-10
1.33958e-09
-3.07875e-10
-2.46334e-10
-3.25999e-10
-2.60048e-10
7.59962e-11
2.65533e-10
9.70225e-10
-3.24631e-10
-2.34094e-10
-3.5198e-10
-2.50581e-10
-1.49497e-11
9.02754e-11
-1.80488e-10
-1.62416e-10
7.79623e-12
-1.95224e-10
-2.30432e-10
-2.07108e-10
5.14443e-12
4.46597e-12
1.19861e-11
2.61508e-10
-9.13891e-12
5.05796e-11
1.02503e-09
-2.46393e-10
-2.45837e-10
-2.54925e-10
-2.54175e-10
-1.87299e-11
5.11857e-11
1.02586e-09
-2.47017e-10
-2.4524e-10
-2.55794e-10
-2.53441e-10
-2.88593e-11
5.3476e-11
1.02746e-09
-2.47519e-10
-2.44508e-10
-2.56654e-10
-2.52676e-10
-4.06498e-11
5.52795e-11
1.03009e-09
-2.48211e-10
-2.43787e-10
-2.5783e-10
-2.52013e-10
-5.40577e-11
6.0105e-11
1.03413e-09
-2.48603e-10
-2.42779e-10
-2.58957e-10
-2.51196e-10
-7.17135e-11
6.3496e-11
1.0398e-09
-2.49287e-10
-2.41891e-10
-2.60624e-10
-2.50557e-10
-9.51568e-11
7.17059e-11
1.04904e-09
-2.49587e-10
-2.40573e-10
-2.62412e-10
-2.49576e-10
-1.30777e-10
7.86295e-11
1.06158e-09
-2.50473e-10
-2.39626e-10
-2.6521e-10
-2.48726e-10
-1.86714e-10
9.44952e-11
1.08794e-09
-2.51609e-10
-2.38892e-10
-2.67637e-10
-2.4779e-10
-3.03861e-10
1.1622e-10
1.16461e-09
-2.58237e-10
-2.39698e-10
-2.76224e-10
-2.49427e-10
-4.89279e-10
1.59369e-10
1.30669e-09
-2.85681e-10
-2.37044e-10
-3.02746e-10
-2.52955e-10
2.20209e-11
2.33769e-10
1.10508e-09
-3.12998e-10
-2.16473e-10
-3.36135e-10
-2.41154e-10
-4.53971e-11
-2.09225e-10
-2.23234e-10
-2.26003e-10
-2.47258e-11
-4.41413e-11
6.54365e-11
2.51454e-10
-4.46787e-11
3.89952e-12
-2.29262e-12
4.30719e-11
-8.30747e-12
3.91401e-11
1.0213e-09
-2.4724e-10
-2.4668e-10
-2.54168e-10
-2.53464e-10
-1.69578e-11
3.95745e-11
1.0219e-09
-2.47829e-10
-2.46084e-10
-2.54954e-10
-2.52778e-10
-2.60724e-11
4.10523e-11
1.0231e-09
-2.48337e-10
-2.45396e-10
-2.55748e-10
-2.52079e-10
-3.64575e-11
4.24045e-11
1.02512e-09
-2.48966e-10
-2.44703e-10
-2.56751e-10
-2.51442e-10
-4.83301e-11
4.55488e-11
1.02815e-09
-2.49426e-10
-2.43823e-10
-2.57759e-10
-2.5071e-10
-6.35015e-11
4.83267e-11
1.03269e-09
-2.50098e-10
-2.43009e-10
-2.59157e-10
-2.50088e-10
-8.32818e-11
5.405e-11
1.03979e-09
-2.50566e-10
-2.41889e-10
-2.60625e-10
-2.49277e-10
-1.11447e-10
6.05543e-11
1.05021e-09
-2.51486e-10
-2.40834e-10
-2.6309e-10
-2.48561e-10
-1.51421e-10
7.29904e-11
1.06689e-09
-2.52309e-10
-2.39663e-10
-2.65803e-10
-2.47634e-10
-2.20784e-10
9.23497e-11
1.10825e-09
-2.55912e-10
-2.39813e-10
-2.70888e-10
-2.48405e-10
-3.71814e-10
1.29357e-10
1.23348e-09
-2.7019e-10
-2.39452e-10
-2.88495e-10
-2.54297e-10
-5.43929e-10
2.03326e-10
1.33835e-09
-3.04154e-10
-2.40877e-10
-3.2575e-10
-2.65015e-10
7.78044e-11
2.89255e-10
9.24148e-10
-2.95627e-10
-2.11832e-10
-3.46878e-10
-2.7012e-10
-1.71924e-11
8.8857e-11
-1.96128e-10
-1.92545e-10
6.69109e-12
-1.83839e-10
-2.16525e-10
-2.41746e-10
1.3757e-11
4.81505e-12
1.80279e-11
2.82953e-10
-7.70862e-12
2.95576e-11
1.01849e-09
-2.47896e-10
-2.47339e-10
-2.53309e-10
-2.52651e-10
-1.57451e-11
2.98837e-11
1.01899e-09
-2.4847e-10
-2.46752e-10
-2.54034e-10
-2.52009e-10
-2.43165e-11
3.08789e-11
1.01996e-09
-2.48982e-10
-2.46096e-10
-2.5477e-10
-2.51363e-10
-3.4111e-11
3.19376e-11
1.02168e-09
-2.49578e-10
-2.45429e-10
-2.5566e-10
-2.50749e-10
-4.55412e-11
3.41178e-11
1.02418e-09
-2.50072e-10
-2.44618e-10
-2.56571e-10
-2.50062e-10
-6.00939e-11
3.64577e-11
1.02815e-09
-2.50719e-10
-2.43822e-10
-2.57765e-10
-2.49421e-10
-7.92884e-11
4.06451e-11
1.03413e-09
-2.51203e-10
-2.42775e-10
-2.5896e-10
-2.48595e-10
-1.06507e-10
4.63709e-11
1.04382e-09
-2.52065e-10
-2.4172e-10
-2.608e-10
-2.47829e-10
-1.45123e-10
5.58113e-11
1.05835e-09
-2.52637e-10
-2.40235e-10
-2.62913e-10
-2.46774e-10
-2.04428e-10
7.2096e-11
1.08634e-09
-2.54181e-10
-2.39693e-10
-2.66266e-10
-2.46638e-10
-3.17234e-10
9.67051e-11
1.16795e-09
-2.58862e-10
-2.39957e-10
-2.73909e-10
-2.49766e-10
-4.96295e-10
1.48363e-10
1.3135e-09
-2.7922e-10
-2.39077e-10
-3.00444e-10
-2.60739e-10
1.8599e-11
2.09012e-10
1.12095e-09
-2.99982e-10
-2.1861e-10
-3.3071e-10
-2.62895e-10
-5.15961e-11
-1.85501e-10
-2.06303e-10
-2.31773e-10
-3.58532e-11
-3.88972e-11
7.98479e-11
2.45274e-10
-7.28195e-12
2.12651e-11
1.01683e-09
-2.4855e-10
-2.47999e-10
-2.5266e-10
-2.52037e-10
-1.48419e-11
2.14916e-11
1.01725e-09
-2.49112e-10
-2.47426e-10
-2.53335e-10
-2.51428e-10
-2.28907e-11
2.21319e-11
1.01808e-09
-2.49638e-10
-2.46805e-10
-2.54023e-10
-2.50815e-10
-3.19299e-11
2.28994e-11
1.01956e-09
-2.50235e-10
-2.46173e-10
-2.54841e-10
-2.50231e-10
-4.23937e-11
2.4327e-11
1.02168e-09
-2.5076e-10
-2.45431e-10
-2.55664e-10
-2.49573e-10
-5.52708e-11
2.60742e-11
1.02512e-09
-2.51447e-10
-2.44702e-10
-2.56752e-10
-2.48959e-10
-7.17293e-11
2.88588e-11
1.03008e-09
-2.52018e-10
-2.43782e-10
-2.57832e-10
-2.48203e-10
-9.38722e-11
3.3143e-11
1.03827e-09
-2.52963e-10
-2.42927e-10
-2.5948e-10
-2.47535e-10
-1.24152e-10
3.89869e-11
1.05034e-09
-2.53722e-10
-2.41751e-10
-2.61102e-10
-2.46664e-10
-1.65566e-10
5.05792e-11
1.06983e-09
-2.55157e-10
-2.41293e-10
-2.6416e-10
-2.46297e-10
-2.30916e-10
6.17181e-11
1.11537e-09
-2.57427e-10
-2.42366e-10
-2.67248e-10
-2.47994e-10
-3.63675e-10
9.39913e-11
1.24534e-09
-2.68082e-10
-2.47324e-10
-2.83151e-10
-2.59654e-10
-4.90193e-10
1.08248e-10
1.37471e-09
-2.95769e-10
-2.57445e-10
-3.15347e-10
-2.78866e-10
5.19741e-11
1.92777e-10
9.67444e-10
-2.96745e-10
-2.32547e-10
-3.46385e-10
-3.02025e-10
-1.57987e-11
7.64968e-11
-1.895e-10
-1.61136e-10
1.0374e-11
-1.20437e-10
-1.24689e-10
-8.64601e-11
-1.13689e-11
2.23505e-11
1.27455e-10
-7.02921e-12
1.37843e-11
1.01563e-09
-2.49132e-10
-2.48584e-10
-2.51995e-10
-2.51398e-10
-1.43246e-11
1.39343e-11
1.01601e-09
-2.49691e-10
-2.48021e-10
-2.52629e-10
-2.50815e-10
-2.21232e-11
1.43323e-11
1.01674e-09
-2.50226e-10
-2.4742e-10
-2.53276e-10
-2.50222e-10
-3.08665e-11
1.48508e-11
1.01808e-09
-2.50823e-10
-2.46806e-10
-2.54025e-10
-2.49634e-10
-4.10416e-11
1.57511e-11
1.01996e-09
-2.51368e-10
-2.46095e-10
-2.54772e-10
-2.48978e-10
-5.34642e-11
1.6958e-11
1.02309e-09
-2.52084e-10
-2.45393e-10
-2.55749e-10
-2.48333e-10
-6.94414e-11
1.87299e-11
1.02745e-09
-2.52681e-10
-2.44503e-10
-2.56656e-10
-2.47513e-10
-9.06087e-11
2.16187e-11
1.03491e-09
-2.53701e-10
-2.43687e-10
-2.58107e-10
-2.46721e-10
-1.20636e-10
2.50006e-11
1.04568e-09
-2.5441e-10
-2.42513e-10
-2.59185e-10
-2.45556e-10
-1.60931e-10
3.19763e-11
1.0635e-09
-2.56209e-10
-2.4193e-10
-2.618e-10
-2.44662e-10
-2.24882e-10
3.56663e-11
1.09504e-09
-2.56803e-10
-2.42113e-10
-2.62101e-10
-2.44027e-10
-3.32629e-10
4.60023e-11
1.1906e-09
-2.65258e-10
-2.48866e-10
-2.72487e-10
-2.48257e-10
-5.25874e-10
1.88827e-11
1.37943e-09
-2.93595e-10
-2.58707e-10
-2.93912e-10
-2.50605e-10
-1.78293e-11
1.56499e-11
1.19826e-09
-3.44432e-10
-2.96583e-10
-3.36042e-10
-2.64454e-10
4.41088e-11
-1.51753e-10
-1.80021e-10
-1.64376e-10
2.92884e-12
-6.33493e-11
2.06965e-10
-6.84392e-12
6.77749e-12
1.01498e-09
-2.49711e-10
-2.49163e-10
-2.51412e-10
-2.50838e-10
-1.39242e-11
6.85288e-12
1.01533e-09
-2.50271e-10
-2.48606e-10
-2.52019e-10
-2.5027e-10
-2.14798e-11
7.03893e-12
1.01601e-09
-2.50815e-10
-2.4802e-10
-2.5263e-10
-2.49689e-10
-2.98724e-11
7.29124e-12
1.01725e-09
-2.51431e-10
-2.47424e-10
-2.53335e-10
-2.49109e-10
-3.95629e-11
7.7185e-12
1.01899e-09
-2.52012e-10
-2.46749e-10
-2.54034e-10
-2.48466e-10
-5.11735e-11
8.31216e-12
1.0219e-09
-2.52781e-10
-2.4608e-10
-2.54955e-10
-2.47826e-10
-6.59467e-11
9.14332e-12
1.02585e-09
-2.53443e-10
-2.45236e-10
-2.55795e-10
-2.47013e-10
-8.50153e-11
1.05476e-11
1.03265e-09
-2.54601e-10
-2.4447e-10
-2.572e-10
-2.46233e-10
-1.12254e-10
1.20627e-11
1.04218e-09
-2.5541e-10
-2.43346e-10
-2.58206e-10
-2.4504e-10
-1.48656e-10
1.52042e-11
1.05853e-09
-2.57657e-10
-2.4274e-10
-2.60846e-10
-2.44112e-10
-2.10104e-10
1.64674e-11
1.08506e-09
-2.58209e-10
-2.42194e-10
-2.61245e-10
-2.42759e-10
-3.10681e-10
1.8764e-11
1.15879e-09
-2.70212e-10
-2.45498e-10
-2.72576e-10
-2.42693e-10
-5.1568e-10
3.43556e-12
1.29542e-09
-2.98832e-10
-2.45838e-10
-2.95085e-10
-2.35214e-10
3.15944e-11
-7.85434e-12
1.02945e-09
-3.39152e-10
-2.47898e-10
-3.24826e-10
-2.17965e-10
3.7189e-11
-2.31563e-10
-2.29011e-10
-2.20236e-10
3.9377e-11
-1.8289e-11
-2.64768e-11
2.57219e-10
-6.77016e-12
1.01465e-09
-2.50271e-10
-2.49723e-10
-2.50832e-10
-2.50269e-10
-1.37795e-11
1.01498e-09
-2.50839e-10
-2.49163e-10
-2.51411e-10
-2.49707e-10
-2.12581e-11
1.01563e-09
-2.51401e-10
-2.48583e-10
-2.51995e-10
-2.49129e-10
-2.95484e-11
1.01683e-09
-2.52037e-10
-2.47996e-10
-2.52662e-10
-2.48548e-10
-3.91324e-11
1.01849e-09
-2.52652e-10
-2.47336e-10
-2.53312e-10
-2.47893e-10
-5.05691e-11
1.02129e-09
-2.53464e-10
-2.46675e-10
-2.5417e-10
-2.47237e-10
-6.51313e-11
1.02502e-09
-2.54174e-10
-2.45831e-10
-2.54929e-10
-2.4639e-10
-8.38272e-11
1.03152e-09
-2.55427e-10
-2.4504e-10
-2.56243e-10
-2.4557e-10
-1.1063e-10
1.04034e-09
-2.5628e-10
-2.4382e-10
-2.57117e-10
-2.44281e-10
-1.46637e-10
1.0558e-09
-2.58761e-10
-2.42967e-10
-2.59645e-10
-2.43248e-10
-2.07748e-10
1.08026e-09
-2.59473e-10
-2.41625e-10
-2.6013e-10
-2.41507e-10
-3.10311e-10
1.14955e-09
-2.73029e-10
-2.41687e-10
-2.72954e-10
-2.4066e-10
-5.16586e-10
1.27517e-09
-2.99475e-10
-2.3541e-10
-2.97938e-10
-2.32819e-10
2.3702e-11
1.02555e-09
-3.37599e-10
-2.25773e-10
-3.35815e-10
-2.24943e-10
2.3627e-11
-2.3727e-10
-2.36246e-10
-2.17391e-10
8.61305e-12
-2.08953e-11
-4.47227e-12
2.5785e-10
-6.08252e-11
6.25669e-13
-1.63824e-11
7.64668e-11
-4.83524e-11
-8.79199e-13
3.44738e-13
-1.75346e-11
6.64215e-11
-8.325e-12
1.04281e-12
-1.21291e-11
1.94113e-11
-1.05895e-11
1.38552e-10
9.62757e-10
6.10948e-11
6.12412e-11
-9.36644e-11
-9.40012e-11
-1.8487e-11
1.31857e-10
9.60431e-10
6.45222e-11
6.48229e-11
-9.21728e-11
-9.21237e-11
-4.58916e-11
1.54071e-10
1.10741e-09
5.73024e-11
3.89867e-11
-7.99437e-11
-5.2162e-11
6.70936e-11
1.1378e-10
8.43093e-10
4.54019e-11
5.42401e-11
-5.33533e-11
-5.86225e-11
4.49997e-11
-7.58139e-11
-5.92606e-11
-9.1992e-11
9.75411e-12
1.86611e-11
-1.34959e-11
1.44168e-10
-3.72733e-11
-4.01505e-12
-2.92572e-12
-1.07314e-11
5.49456e-11
-9.81783e-12
1.36606e-10
1.28683e-09
-1.30758e-11
1.35823e-10
1.2947e-09
-9.17156e-12
1.64081e-10
1.36552e-09
-6.69552e-12
1.46181e-10
1.33986e-09
-5.58048e-11
1.53942e-10
1.05376e-09
4.01369e-11
6.12324e-11
-6.55488e-11
-7.34206e-11
7.6415e-11
1.50408e-10
8.1501e-10
5.37258e-11
6.68498e-11
-9.09185e-11
-8.90454e-11
4.25438e-11
-9.16054e-11
-6.5009e-11
-8.39521e-11
1.53862e-11
1.63041e-11
-3.9569e-12
1.32632e-10
-4.92986e-11
-7.31826e-12
-4.28898e-12
-9.76274e-12
7.06686e-11
-2.28208e-11
1.44929e-10
1.16398e-09
-4.68877e-11
1.45923e-10
1.17274e-09
-6.26629e-11
1.62395e-10
1.20804e-09
-7.18586e-11
1.4934e-10
1.25137e-09
-7.46363e-11
1.56712e-10
1.31353e-09
-4.80417e-11
1.41932e-10
1.32033e-09
-6.9191e-11
1.44886e-10
1.03428e-09
3.89995e-11
6.3846e-11
-7.11717e-11
-8.43909e-11
7.00405e-11
1.45221e-10
8.51253e-10
5.51553e-11
6.64896e-11
-9.43955e-11
-9.12392e-11
4.07608e-11
-8.13201e-11
-6.06201e-11
-1.15608e-10
1.47156e-11
1.46647e-11
-1.09583e-11
1.67229e-10
-1.48898e-11
2.90041e-12
-1.851e-11
3.04994e-11
-1.60305e-11
1.23069e-10
1.11813e-09
-3.26878e-11
1.24457e-10
1.12318e-09
-4.77427e-11
1.36646e-10
1.13585e-09
-6.75427e-11
1.35858e-10
1.14867e-09
-8.29129e-11
1.46752e-10
1.19331e-09
-8.80216e-11
1.3762e-10
1.24297e-09
-8.3423e-11
1.4098e-10
1.30618e-09
-4.75353e-11
1.27985e-10
1.32123e-09
-6.44675e-11
1.21608e-10
1.01223e-09
4.14065e-11
5.71105e-11
-6.53333e-11
-7.471e-11
5.02034e-11
7.56426e-11
8.09671e-10
6.28152e-11
6.07974e-11
-7.39758e-11
-5.64832e-11
3.37339e-11
-4.82166e-11
-4.35541e-11
-8.14035e-12
8.99675e-12
4.93482e-11
-1.55024e-11
1.05908e-10
1.08846e-09
-3.13122e-11
1.0669e-10
1.09212e-09
-4.55093e-11
1.13596e-10
1.10076e-09
-6.08132e-11
1.141e-10
1.10692e-09
-7.50847e-11
1.24051e-10
1.12335e-09
-9.04905e-11
1.23587e-10
1.13775e-09
-1.00881e-10
1.31025e-10
1.18507e-09
-1.00296e-10
1.20995e-10
1.23237e-09
-8.75799e-11
1.16098e-10
1.2783e-09
-7.59271e-11
8.75136e-11
1.30677e-09
6.06898e-11
6.46139e-11
8.09246e-10
3.38566e-11
5.0291e-11
-4.368e-11
-4.81955e-11