/*--------------------------------*- C++ -*----------------------------------*\
| =========                 |                                                 |
| \\      /  F ield         | OpenFOAM: The Open Source CFD Toolbox           |
|  \\    /   O peration     | Version:  2.1.1                                 |
|   \\  /    A nd           | Web:      www.OpenFOAM.org                      |
|    \\/     M anipulation  |                                                 |
\*---------------------------------------------------------------------------*/
FoamFile
{
    version     2.0;
    format      ascii;
    class       volScalarField;
    location    "0.17";
    object      p;
}
// * * * * * * * * * * * * * * * * * * * * * * * * * * * * * * * * * * * * * //

dimensions      [0 2 -2 0 0 0 0];

internalField   nonuniform List<scalar> 
163952
(
0.0416691
0.0410928
0.0363569
0.0311621
0.0299653
0.0273539
0.0267638
0.0264401
0.0366771
0.032335
0.0272934
0.0248037
0.02356
0.022781
0.0224667
0.0223255
0.0337083
0.0279714
0.0244677
0.0228279
0.0219153
0.0213774
0.0210387
0.0208584
0.0207729
0.0335782
0.0260793
0.0232449
0.0218982
0.0211428
0.020664
0.0203444
0.0201327
0.0200065
0.019943
0.0335795
0.0255374
0.0227207
0.0214424
0.0207275
0.0202636
0.0199396
0.0197087
0.0195492
0.0194486
0.0193962
0.0337088
0.0260795
0.0227207
0.021299
0.0205363
0.0200475
0.0197019
0.0194479
0.0192612
0.0191292
0.0190436
0.0189981
0.0366771
0.0279716
0.0232451
0.0214425
0.0205364
0.0199779
0.0195896
0.0193028
0.0190871
0.0189264
0.0188114
0.0187359
0.0186954
0.0323354
0.024468
0.0218985
0.0207277
0.0200476
0.0195896
0.019256
0.0190041
0.0188128
0.0186694
0.0185662
0.0184979
0.0184611
0.0363575
0.0272939
0.0228284
0.0211432
0.0202639
0.0197022
0.0193029
0.0190042
0.0187761
0.0186017
0.0184706
0.0183758
0.0183129
0.0182788
0.0311628
0.0248042
0.0219158
0.0206645
0.01994
0.0194482
0.0190873
0.0188129
0.0186018
0.0184397
0.0183174
0.0182288
0.0181697
0.0181377
0.029966
0.0235606
0.021378
0.0203449
0.0197092
0.0192616
0.0189267
0.0186696
0.0184707
0.0183174
0.0182015
0.0181173
0.0180611
0.0180306
0.0273546
0.0227817
0.0210393
0.0201333
0.0195497
0.0191296
0.0188118
0.0185665
0.018376
0.0182289
0.0181174
0.0180362
0.017982
0.0179526
0.0416698
0.0267646
0.0224674
0.0208591
0.0200071
0.0194492
0.0190441
0.0187363
0.0184983
0.0183131
0.0181699
0.0180612
0.0179821
0.0179291
0.0179004
0.0410936
0.0264409
0.0223262
0.0207736
0.0199437
0.0193968
0.0189987
0.0186959
0.0184615
0.0182792
0.018138
0.0180308
0.0179527
0.0179004
0.017872
0.0234951
0.0235519
0.02249
0.0236992
0.0224302
0.0221161
0.0220712
0.0220504
0.0225948
0.0244087
0.0220959
0.0217836
0.021523
0.0213321
0.0212574
0.0212056
0.023373
0.0221478
0.0217298
0.0213179
0.020977
0.0206983
0.0205136
0.0204175
0.020368
0.0221175
0.0218271
0.0213898
0.0209485
0.0205557
0.0202444
0.0200082
0.0198484
0.0197562
0.019712
0.0221183
0.021698
0.0212058
0.0207018
0.0202748
0.0199322
0.0196726
0.0194813
0.0193495
0.0192692
0.0192306
0.0233734
0.0218275
0.0212059
0.0206219
0.0201329
0.0197548
0.0194656
0.0192476
0.0190868
0.0189744
0.0189041
0.0188701
0.0225952
0.0221482
0.0213901
0.020702
0.020133
0.0196963
0.0193668
0.0191163
0.0189269
0.0187865
0.0186874
0.0186246
0.018594
0.0244091
0.0217303
0.0209488
0.020275
0.019755
0.0193669
0.0190739
0.0188506
0.018681
0.0185547
0.018465
0.0184076
0.0183796
0.0224905
0.0220964
0.0213183
0.0205561
0.0199325
0.0194658
0.0191165
0.0188507
0.0186469
0.0184913
0.018375
0.018292
0.0182387
0.0182126
0.0236998
0.0217842
0.0209776
0.0202449
0.019673
0.0192479
0.0189271
0.0186812
0.0184914
0.0183458
0.0182366
0.0181585
0.0181082
0.0180835
0.0224309
0.0215236
0.0206989
0.0200087
0.0194817
0.0190872
0.0187868
0.0185549
0.0183751
0.0182367
0.0181325
0.0180579
0.0180097
0.0179861
0.0221168
0.0213328
0.0205142
0.019849
0.01935
0.0189749
0.0186878
0.0184653
0.0182922
0.0181586
0.0180579
0.0179857
0.017939
0.0179161
0.0234959
0.022072
0.0212581
0.0204181
0.0197569
0.0192698
0.0189046
0.018625
0.018408
0.018239
0.0181084
0.0180098
0.0179391
0.0178933
0.0178709
0.0235527
0.0220512
0.0212064
0.0203687
0.0197126
0.0192312
0.0188707
0.0185945
0.01838
0.0182129
0.0180838
0.0179862
0.0179162
0.0178709
0.0178487
0.0198514
0.0198657
0.0199307
0.0203125
0.0205361
0.0204204
0.0203128
0.0202723
0.0199376
0.0207815
0.0203313
0.0202532
0.0201583
0.0201195
0.0200901
0.0200647
0.020148
0.0203453
0.0202448
0.0201242
0.0199874
0.0198429
0.0197515
0.0196964
0.019666
0.0204953
0.0202783
0.0201532
0.0199732
0.0197812
0.0196152
0.0194754
0.0193753
0.019313
0.0192817
0.0204962
0.0202332
0.0200802
0.0198585
0.0196335
0.0194308
0.0192646
0.0191333
0.0190386
0.0189786
0.018949
0.0201483
0.0202787
0.0200803
0.0198207
0.0195547
0.0193211
0.0191246
0.0189662
0.0188435
0.018755
0.0186983
0.0186705
0.019938
0.0203457
0.0201535
0.0198587
0.0195549
0.0192837
0.0190553
0.0188679
0.0187188
0.0186043
0.0185217
0.0184685
0.0184424
0.020782
0.0202453
0.0199736
0.0196338
0.0193213
0.0190554
0.0188356
0.0186577
0.0185173
0.01841
0.0183325
0.0182824
0.0182578
0.0199312
0.0203319
0.0201247
0.0197816
0.0194312
0.0191248
0.0188681
0.0186578
0.0184888
0.0183558
0.0182542
0.0181809
0.0181334
0.01811
0.0203132
0.0202538
0.019988
0.0196158
0.019265
0.0189666
0.018719
0.0185175
0.0183559
0.0182287
0.0181317
0.0180616
0.0180161
0.0179937
0.0205368
0.020159
0.0198435
0.019476
0.0191338
0.0188439
0.0186046
0.0184102
0.0182544
0.0181318
0.0180382
0.0179705
0.0179266
0.0179049
0.0204211
0.0201203
0.0197522
0.0193759
0.0190392
0.0187555
0.0185221
0.0183328
0.0181811
0.0180618
0.0179706
0.0179046
0.0178617
0.0178406
0.0198522
0.0203137
0.0200909
0.0196972
0.0193137
0.0189792
0.0186989
0.0184689
0.0182827
0.0181336
0.0180163
0.0179267
0.0178618
0.0178196
0.0177989
0.0198666
0.0202731
0.0200655
0.0196668
0.0192824
0.0189497
0.0186711
0.0184429
0.0182582
0.0181103
0.017994
0.0179051
0.0178408
0.0177989
0.0177783
0.0185042
0.0185145
0.0186215
0.0188485
0.0191794
0.019179
0.0191265
0.0191045
0.0186366
0.0190625
0.0191025
0.0190899
0.0190606
0.019062
0.0190607
0.0190571
0.0187775
0.0191066
0.019094
0.0190868
0.019058
0.0190062
0.0189704
0.018945
0.0189307
0.01921
0.01911
0.0191039
0.0190535
0.0189872
0.0189229
0.0188601
0.0188102
0.0187755
0.0187572
0.0192107
0.0190904
0.0190853
0.0190221
0.0189326
0.0188391
0.0187532
0.0186786
0.0186215
0.0185833
0.0185639
0.0187778
0.0191103
0.0190853
0.0190109
0.018902
0.0187858
0.0186754
0.0185783
0.0184978
0.0184373
0.0183973
0.0183773
0.018637
0.019107
0.0191042
0.0190224
0.0189022
0.0187673
0.0186352
0.0185155
0.0184137
0.0183316
0.0182704
0.01823
0.01821
0.019063
0.0190945
0.0190539
0.0189329
0.018786
0.0186353
0.0184944
0.018371
0.018268
0.0181863
0.0181257
0.0180859
0.0180661
0.0186221
0.0191031
0.0190874
0.0189877
0.0188395
0.0186757
0.0185157
0.0183711
0.0182469
0.0181445
0.018064
0.0180045
0.0179654
0.0179461
0.0188492
0.0190906
0.0190587
0.0189235
0.0187537
0.0185787
0.0184139
0.0182682
0.0181446
0.0180436
0.0179644
0.0179061
0.0178679
0.0178489
0.0191802
0.0190613
0.0190069
0.0188607
0.0186792
0.0184983
0.0183319
0.0181865
0.0180641
0.0179645
0.0178866
0.0178294
0.0177918
0.0177732
0.0191798
0.0190628
0.0189712
0.0188109
0.0186221
0.0184378
0.0182708
0.0181261
0.0180047
0.0179063
0.0178294
0.017773
0.017736
0.0177177
0.018505
0.0191274
0.0190615
0.0189458
0.0187762
0.018584
0.0183978
0.0182305
0.0180863
0.0179657
0.0178681
0.0177919
0.0177361
0.0176994
0.0176813
0.0185154
0.0191054
0.019058
0.0189315
0.0187579
0.0185646
0.0183779
0.0182105
0.0180666
0.0179464
0.0178492
0.0177734
0.0177178
0.0176814
0.0176633
0.0177861
0.0177943
0.0178474
0.0179959
0.0182124
0.0182558
0.0182461
0.0182445
0.0178726
0.0181049
0.0182128
0.0182317
0.0182371
0.0182494
0.0182576
0.0182621
0.0179625
0.0182144
0.0182406
0.0182736
0.0182918
0.0182912
0.0182881
0.018282
0.0182777
0.0182471
0.0182365
0.0182803
0.0182935
0.0182936
0.0182859
0.0182705
0.0182543
0.0182405
0.0182326
0.0182475
0.0182314
0.0182873
0.0183026
0.01829
0.0182647
0.0182331
0.0182002
0.0181723
0.0181522
0.0181417
0.0179628
0.0182368
0.0182874
0.0183053
0.0182872
0.0182479
0.0182001
0.0181512
0.0181065
0.0180707
0.0180461
0.0180335
0.017873
0.0182149
0.0182807
0.0183028
0.0182873
0.0182419
0.0181816
0.0181175
0.0180574
0.0180056
0.0179653
0.0179379
0.0179241
0.0181055
0.0182411
0.018294
0.0182904
0.0182482
0.0181817
0.0181059
0.0180314
0.0179644
0.0179085
0.0178656
0.0178368
0.0178223
0.0178481
0.0182134
0.0182742
0.0182942
0.0182652
0.0182004
0.0181178
0.0180315
0.0179504
0.0178795
0.0178212
0.0177771
0.0177475
0.0177327
0.0179967
0.0182325
0.0182925
0.0182866
0.0182337
0.0181516
0.0180577
0.0179646
0.0178796
0.0178064
0.017747
0.0177022
0.0176723
0.0176574
0.0182133
0.018238
0.018292
0.0182712
0.0182008
0.018107
0.018006
0.0179088
0.0178214
0.0177471
0.0176871
0.0176421
0.0176122
0.0175972
0.0182567
0.0182503
0.0182889
0.0182551
0.018173
0.0180713
0.0179658
0.017866
0.0177773
0.0177024
0.0176422
0.0175971
0.0175672
0.0175523
0.0177871
0.0182471
0.0182585
0.0182829
0.0182414
0.018153
0.0180467
0.0179385
0.0178372
0.0177478
0.0176726
0.0176123
0.0175672
0.0175373
0.0175224
0.0177953
0.0182455
0.0182631
0.0182786
0.0182334
0.0181425
0.0180341
0.0179247
0.0178228
0.0177331
0.0176577
0.0175974
0.0175524
0.0175225
0.0175076
0.0172759
0.0172826
0.0172954
0.0173882
0.0175134
0.0175636
0.0175687
0.0175747
0.0173179
0.0174618
0.0175437
0.0175746
0.0175958
0.017615
0.0176256
0.0176315
0.0173729
0.0175444
0.0175858
0.0176297
0.0176635
0.017684
0.0176978
0.0177034
0.0177052
0.0175451
0.0175719
0.01763
0.0176684
0.0176973
0.017717
0.017727
0.0177312
0.0177314
0.0177306
0.0175455
0.0175763
0.0176468
0.0176926
0.017718
0.0177307
0.0177328
0.017728
0.0177211
0.0177148
0.0177111
0.0173732
0.0175722
0.0176469
0.0177012
0.0177287
0.0177358
0.0177298
0.0177159
0.0176988
0.017683
0.0176712
0.0176648
0.0173184
0.0175449
0.0176304
0.0176929
0.0177289
0.0177374
0.0177264
0.0177043
0.0176776
0.0176514
0.0176292
0.0176134
0.0176052
0.0174624
0.0175864
0.0176689
0.0177184
0.017736
0.0177265
0.0176999
0.0176653
0.0176293
0.0175965
0.01757
0.0175515
0.0175421
0.0172962
0.0175445
0.0176304
0.017698
0.0177312
0.0177302
0.0177045
0.0176654
0.0176215
0.017579
0.0175418
0.0175123
0.0174921
0.0174818
0.0173891
0.0175754
0.0176643
0.0177177
0.0177334
0.0177164
0.017678
0.0176295
0.0175791
0.0175321
0.017492
0.0174607
0.0174393
0.0174285
0.0175144
0.0175968
0.0176849
0.0177278
0.0177287
0.0176994
0.0176518
0.0175968
0.017542
0.0174921
0.01745
0.0174175
0.0173954
0.0173843
0.0175647
0.0176161
0.0176988
0.0177321
0.0177219
0.0176837
0.0176298
0.0175704
0.0175126
0.0174608
0.0174176
0.0173843
0.0173618
0.0173505
0.017277
0.0175698
0.0176266
0.0177044
0.0177323
0.0177156
0.0176719
0.017614
0.017552
0.0174925
0.0174396
0.0173956
0.0173619
0.0173391
0.0173277
0.0172837
0.0175759
0.0176327
0.0177063
0.0177316
0.0177119
0.0176656
0.0176059
0.0175426
0.0174823
0.0174288
0.0173845
0.0173506
0.0173278
0.0173163
0.0168423
0.0168498
0.0168432
0.0169027
0.0169697
0.0170154
0.0170245
0.0170323
0.0168614
0.0169625
0.0170097
0.0170409
0.0170659
0.0170886
0.0171006
0.0171073
0.0168959
0.0170102
0.0170535
0.0170974
0.0171337
0.0171603
0.0171808
0.0171924
0.0171977
0.0169974
0.0170359
0.0170944
0.0171399
0.0171789
0.0172101
0.0172324
0.0172476
0.017256
0.0172597
0.0169977
0.0170437
0.017113
0.0171679
0.0172097
0.0172416
0.017263
0.0172758
0.0172829
0.0172861
0.0172872
0.0168963
0.0170363
0.017113
0.017178
0.0172262
0.0172589
0.0172788
0.0172885
0.0172912
0.0172903
0.0172884
0.017287
0.016862
0.0170107
0.0170948
0.0171682
0.0172263
0.0172647
0.0172854
0.0172926
0.0172909
0.0172846
0.0172772
0.017271
0.0172676
0.0169632
0.0170542
0.0171405
0.0172101
0.0172592
0.0172855
0.0172935
0.0172891
0.0172779
0.0172644
0.0172519
0.0172425
0.0172375
0.0168441
0.0170106
0.0170982
0.0171796
0.0172421
0.0172793
0.0172929
0.0172892
0.0172752
0.0172566
0.0172377
0.0172214
0.0172097
0.0172036
0.0169037
0.0170419
0.0171346
0.0172109
0.0172637
0.0172891
0.0172914
0.0172782
0.0172568
0.0172327
0.0172099
0.0171909
0.0171775
0.0171706
0.0169708
0.017067
0.0171613
0.0172333
0.0172766
0.0172918
0.0172851
0.0172648
0.017238
0.01721
0.0171844
0.0171636
0.0171491
0.0171417
0.0170167
0.0170898
0.017182
0.0172486
0.0172837
0.0172911
0.0172778
0.0172523
0.0172218
0.0171911
0.0171637
0.0171417
0.0171265
0.0171187
0.0168436
0.0170258
0.0171019
0.0171936
0.0172571
0.017287
0.0172892
0.0172717
0.017243
0.0172101
0.0171778
0.0171493
0.0171265
0.0171108
0.0171028
0.0168511
0.0170336
0.0171086
0.0171989
0.0172608
0.0172882
0.0172879
0.0172683
0.0172381
0.0172041
0.017171
0.0171419
0.0171188
0.0171029
0.0170948
0.0164521
0.01646
0.0164499
0.0164886
0.0165207
0.0165588
0.0165685
0.0165761
0.0164634
0.0165406
0.0165619
0.0165892
0.0166126
0.016635
0.0166474
0.0166544
0.0164865
0.0165623
0.0166022
0.0166422
0.0166761
0.0167026
0.0167245
0.0167382
0.0167449
0.0165444
0.0165841
0.0166378
0.0166828
0.0167233
0.0167578
0.0167847
0.0168049
0.0168174
0.0168234
0.0165447
0.016592
0.016655
0.0167099
0.0167568
0.0167967
0.0168279
0.0168504
0.0168658
0.016875
0.0168792
0.016487
0.0165844
0.0166551
0.0167198
0.016775
0.0168199
0.0168543
0.0168784
0.016894
0.0169034
0.0169085
0.0169107
0.0164642
0.016563
0.0166383
0.0167102
0.0167751
0.0168279
0.0168668
0.0168927
0.0169083
0.0169164
0.0169201
0.0169213
0.0169216
0.0165415
0.016603
0.0166835
0.0167573
0.0168202
0.0168669
0.0168972
0.016914
0.0169213
0.0169228
0.0169215
0.0169195
0.0169182
0.016451
0.016563
0.0166431
0.0167241
0.0167974
0.0168548
0.0168931
0.0169142
0.0169226
0.0169229
0.0169189
0.0169136
0.0169091
0.0169066
0.0164898
0.0165904
0.0166772
0.0167587
0.0168287
0.016879
0.0169088
0.0169217
0.016923
0.0169177
0.0169095
0.0169013
0.0168948
0.0168914
0.0165221
0.0166139
0.0167039
0.0167858
0.0168513
0.0168947
0.016917
0.0169233
0.0169192
0.0169096
0.0168983
0.016888
0.0168802
0.0168761
0.0165603
0.0166365
0.0167258
0.0168061
0.0168668
0.0169043
0.0169208
0.0169221
0.016914
0.0169015
0.0168881
0.0168762
0.0168675
0.016863
0.0164535
0.01657
0.0166489
0.0167395
0.0168187
0.0168761
0.0169095
0.0169221
0.0169201
0.0169096
0.0168952
0.0168804
0.0168676
0.0168583
0.0168535
0.0164615
0.0165777
0.0166559
0.0167463
0.0168247
0.0168804
0.0169117
0.0169225
0.0169189
0.0169071
0.0168918
0.0168764
0.0168631
0.0168536
0.0168486
0.0160965
0.0161039
0.0160965
0.0161221
0.0161338
0.0161641
0.016173
0.0161796
0.0161067
0.0161681
0.0161723
0.0161951
0.0162153
0.0162355
0.0162469
0.0162536
0.0161234
0.016173
0.0162078
0.0162427
0.0162728
0.0162969
0.0163175
0.016331
0.0163379
0.0161544
0.016191
0.0162383
0.0162796
0.0163176
0.0163512
0.0163786
0.0164
0.016414
0.0164209
0.0161547
0.0161982
0.0162535
0.0163042
0.0163503
0.0163917
0.0164263
0.0164532
0.0164728
0.0164853
0.0164913
0.016124
0.0161914
0.0162536
0.0163132
0.0163681
0.0164169
0.0164577
0.0164895
0.0165126
0.0165284
0.0165381
0.0165427
0.0161075
0.0161738
0.0162389
0.0163046
0.0163683
0.0164256
0.0164732
0.0165099
0.0165362
0.016554
0.0165653
0.0165719
0.0165749
0.0161692
0.0162088
0.0162804
0.0163509
0.0164173
0.0164734
0.0165165
0.016547
0.0165671
0.0165794
0.0165865
0.0165902
0.0165917
0.0160978
0.0161736
0.0162439
0.0163186
0.0163925
0.0164583
0.0165103
0.0165472
0.0165711
0.0165853
0.0165928
0.0165962
0.0165975
0.0165978
0.0161236
0.0161966
0.0162741
0.0163523
0.0164273
0.0164903
0.0165368
0.0165674
0.0165855
0.0165946
0.016598
0.0165986
0.016598
0.0165974
0.0161355
0.0162169
0.0162984
0.0163799
0.0164543
0.0165135
0.0165547
0.0165799
0.0165931
0.0165982
0.0165986
0.016597
0.0165949
0.0165937
0.0161659
0.0162372
0.0163191
0.0164014
0.016474
0.0165295
0.0165662
0.0165871
0.0165966
0.0165988
0.0165971
0.0165938
0.0165908
0.0165891
0.0160982
0.0161748
0.0162487
0.0163326
0.0164155
0.0164866
0.0165392
0.0165728
0.0165909
0.016598
0.0165983
0.0165952
0.0165909
0.0165873
0.0165852
0.0161056
0.0161815
0.0162553
0.0163396
0.0164224
0.0164927
0.0165438
0.0165759
0.0165925
0.0165985
0.0165979
0.016594
0.0165893
0.0165853
0.0165831
0.0157701
0.0157765
0.0157729
0.0157903
0.0157891
0.0158131
0.0158206
0.015826
0.0157809
0.0158311
0.0158237
0.0158425
0.0158595
0.0158766
0.0158865
0.0158924
0.0157939
0.015825
0.0158547
0.0158845
0.0159104
0.0159313
0.0159495
0.0159617
0.0159681
0.0158077
0.01584
0.0158808
0.0159172
0.0159511
0.0159817
0.0160073
0.0160278
0.0160416
0.0160486
0.015808
0.0158464
0.015894
0.0159389
0.0159813
0.0160207
0.0160549
0.0160827
0.0161036
0.0161173
0.0161241
0.0157946
0.0158405
0.0158942
0.0159469
0.0159978
0.0160455
0.0160876
0.0161223
0.016149
0.0161682
0.0161804
0.0161864
0.0157819
0.0158259
0.0158815
0.0159394
0.015998
0.0160542
0.0161042
0.0161457
0.0161778
0.0162014
0.0162176
0.0162276
0.0162324
0.0158323
0.0158558
0.0159181
0.015982
0.016046
0.0161045
0.0161535
0.0161916
0.0162197
0.0162393
0.0162522
0.0162599
0.0162635
0.0157744
0.0158253
0.0158859
0.0159523
0.0160216
0.0160883
0.0161461
0.0161919
0.0162256
0.0162492
0.0162649
0.0162747
0.0162804
0.016283
0.0157921
0.0158443
0.015912
0.0159831
0.0160561
0.0161232
0.0161785
0.0162201
0.0162494
0.0162689
0.0162811
0.0162884
0.0162923
0.0162941
0.0157912
0.0158614
0.0159331
0.0160088
0.016084
0.0161501
0.0162022
0.0162399
0.0162653
0.0162813
0.0162908
0.016296
0.0162987
0.0162997
0.0158153
0.0158787
0.0159514
0.0160295
0.016105
0.0161694
0.0162185
0.0162529
0.0162752
0.0162887
0.0162962
0.0162999
0.0163016
0.0163022
0.0157721
0.0158228
0.0158886
0.0159637
0.0160434
0.0161189
0.0161818
0.0162287
0.0162608
0.016281
0.0162928
0.0162989
0.0163017
0.0163027
0.016303
0.0157784
0.0158282
0.0158945
0.0159701
0.0160504
0.0161257
0.0161878
0.0162335
0.0162645
0.0162837
0.0162946
0.0163001
0.0163024
0.0163031
0.0163033
0.0154671
0.0154723
0.0154722
0.0154847
0.0154745
0.0154934
0.0154994
0.0155037
0.0154788
0.0155207
0.0155053
0.0155206
0.0155346
0.0155487
0.0155568
0.0155617
0.0154896
0.0155072
0.0155323
0.0155575
0.0155792
0.0155968
0.0156121
0.0156226
0.0156282
0.015492
0.0155201
0.0155548
0.015586
0.0156153
0.015642
0.0156647
0.0156831
0.0156958
0.0157023
0.0154923
0.0155257
0.0155663
0.015605
0.0156424
0.0156778
0.0157095
0.0157359
0.0157563
0.0157699
0.0157768
0.0154905
0.0155207
0.0155665
0.0156121
0.0156572
0.0157011
0.0157413
0.0157757
0.0158031
0.0158234
0.0158367
0.0158433
0.01548
0.0155084
0.0155557
0.0156056
0.0156575
0.0157093
0.0157577
0.0157998
0.0158341
0.0158603
0.0158791
0.0158911
0.015897
0.0155221
0.0155337
0.0155872
0.0156433
0.0157017
0.015758
0.015808
0.0158494
0.0158816
0.0159054
0.015922
0.0159323
0.0159373
0.0154741
0.0155072
0.0155591
0.0156168
0.015679
0.0157421
0.0158004
0.0158496
0.0158887
0.015918
0.015939
0.0159532
0.0159619
0.0159661
0.0154868
0.0155228
0.0155811
0.0156437
0.0157109
0.0157767
0.0158349
0.0158821
0.0159182
0.0159445
0.0159628
0.015975
0.0159823
0.0159857
0.015477
0.0155369
0.0155989
0.0156666
0.0157375
0.0158044
0.0158613
0.0159061
0.0159394
0.0159631
0.0159791
0.0159895
0.0159957
0.0159985
0.0154961
0.0155512
0.0156144
0.0156852
0.015758
0.0158249
0.0158803
0.0159228
0.0159538
0.0159753
0.0159897
0.0159988
0.0160041
0.0160065
0.0154696
0.015502
0.0155593
0.0156249
0.0156979
0.0157718
0.0158382
0.0158924
0.0159333
0.0159627
0.0159828
0.015996
0.0160042
0.016009
0.0160111
0.0154748
0.0155064
0.0155643
0.0156306
0.0157044
0.0157787
0.0158449
0.0158983
0.0159384
0.0159669
0.0159863
0.015999
0.0160068
0.0160112
0.0160132
0.0151824
0.0151866
0.0151893
0.0151995
0.015182
0.015197
0.0152014
0.0152049
0.0151953
0.0152307
0.0152096
0.0152221
0.0152333
0.0152446
0.0152509
0.0152549
0.0152047
0.0152126
0.0152334
0.0152544
0.0152722
0.0152865
0.0152989
0.0153074
0.0153121
0.0151993
0.0152237
0.0152531
0.0152793
0.0153039
0.0153263
0.0153455
0.0153612
0.0153721
0.0153778
0.0151997
0.0152287
0.0152631
0.0152959
0.0153277
0.0153583
0.0153861
0.0154097
0.0154283
0.015441
0.0154474
0.0152057
0.0152244
0.0152634
0.015302
0.0153408
0.0153793
0.0154156
0.0154475
0.0154737
0.0154935
0.0155067
0.0155133
0.0151967
0.0152139
0.0152541
0.0152966
0.0153411
0.0153868
0.0154311
0.015471
0.0155047
0.0155313
0.0155509
0.0155637
0.01557
0.0152325
0.0152351
0.0152807
0.0153287
0.01538
0.0154314
0.0154791
0.0155203
0.0155538
0.0155794
0.0155978
0.0156097
0.0156154
0.0151916
0.015212
0.0152564
0.0153056
0.0153597
0.0154166
0.0154716
0.0155206
0.0155614
0.0155934
0.0156174
0.0156343
0.015645
0.0156501
0.0152021
0.0152247
0.0152746
0.0153283
0.0153878
0.0154488
0.0155056
0.0155544
0.0155937
0.0156239
0.015646
0.0156614
0.015671
0.0156756
0.0151851
0.0152362
0.0152891
0.0153477
0.0154117
0.0154752
0.0155325
0.0155803
0.0156179
0.0156463
0.0156667
0.0156807
0.0156894
0.0156936
0.0152002
0.0152476
0.0153017
0.0153636
0.0154304
0.0154952
0.0155522
0.0155989
0.015635
0.0156618
0.0156809
0.0156939
0.0157019
0.0157057
0.0151855
0.0152047
0.015254
0.0153103
0.0153746
0.0154431
0.0155085
0.0155652
0.0156108
0.0156458
0.0156716
0.0156898
0.015702
0.0157095
0.0157131
0.0151896
0.0152082
0.015258
0.0153149
0.0153803
0.0154496
0.0155152
0.0155715
0.0156167
0.0156511
0.0156763
0.015694
0.015706
0.0157132
0.0157167
0.0149117
0.014915
0.0149204
0.0149288
0.0149065
0.0149182
0.0149211
0.0149239
0.0149263
0.014957
0.014932
0.0149417
0.0149504
0.014959
0.0149635
0.0149666
0.0149348
0.014936
0.0149533
0.0149703
0.0149844
0.0149953
0.0150048
0.0150112
0.0150149
0.0149245
0.0149458
0.0149705
0.0149921
0.0150119
0.0150299
0.0150452
0.0150578
0.0150666
0.0150713
0.0149249
0.0149501
0.0149792
0.0150063
0.0150325
0.0150577
0.015081
0.015101
0.0151169
0.0151279
0.0151336
0.0149361
0.0149467
0.0149796
0.0150117
0.0150438
0.0150761
0.0151073
0.0151354
0.0151589
0.0151771
0.0151894
0.0151956
0.014928
0.0149376
0.0149718
0.0150072
0.0150442
0.0150829
0.0151213
0.0151572
0.0151884
0.0152137
0.0152328
0.0152454
0.0152517
0.0149592
0.0149553
0.0149937
0.0150337
0.015077
0.0151217
0.0151649
0.0152036
0.0152361
0.0152618
0.0152806
0.015293
0.0152991
0.0149233
0.0149348
0.0149728
0.015014
0.0150593
0.0151085
0.015158
0.0152039
0.0152437
0.0152762
0.0153014
0.0153195
0.0153312
0.0153369
0.0149321
0.014945
0.0149873
0.0150323
0.015083
0.0151369
0.0151895
0.0152368
0.0152766
0.0153083
0.0153325
0.0153496
0.0153606
0.015366
0.0149104
0.014954
0.0149986
0.015048
0.0151033
0.0151607
0.0152151
0.0152627
0.015302
0.0153327
0.0153558
0.015372
0.0153824
0.0153874
0.0149223
0.0149628
0.0150083
0.0150608
0.0151194
0.0151791
0.0152344
0.0152818
0.0153203
0.0153501
0.0153723
0.0153878
0.0153976
0.0154023
0.0149156
0.0149252
0.0149673
0.0150147
0.0150697
0.0151305
0.0151916
0.0152472
0.0152943
0.0153322
0.0153613
0.0153828
0.0153978
0.0154072
0.0154118
0.0149189
0.0149279
0.0149704
0.0150183
0.0150744
0.0151362
0.0151978
0.0152536
0.0153005
0.0153381
0.0153668
0.0153879
0.0154027
0.015412
0.0154164
0.0146516
0.0146544
0.0146627
0.0146696
0.0146444
0.0146535
0.0146545
0.0146568
0.0146689
0.0146964
0.0146688
0.014676
0.014682
0.0146881
0.0146906
0.014693
0.0146772
0.0146743
0.0146882
0.0147015
0.0147119
0.0147194
0.0147258
0.01473
0.0147325
0.0146645
0.014683
0.0147034
0.0147204
0.0147355
0.0147488
0.01476
0.0147692
0.0147757
0.0147792
0.0146649
0.0146865
0.014711
0.0147326
0.0147528
0.0147723
0.0147905
0.0148063
0.0148191
0.0148281
0.0148327
0.0146787
0.014684
0.0147115
0.0147372
0.0147624
0.014788
0.0148132
0.0148365
0.0148565
0.0148723
0.0148831
0.0148886
0.014671
0.0146762
0.0147049
0.0147336
0.0147629
0.0147938
0.0148255
0.0148561
0.0148835
0.0149064
0.0149239
0.0149358
0.0149418
0.0146991
0.0146907
0.0147224
0.0147543
0.014789
0.014826
0.0148631
0.0148976
0.0149276
0.014952
0.0149703
0.0149825
0.0149886
0.0146662
0.0146723
0.0147045
0.014738
0.0147743
0.0148147
0.014857
0.014898
0.014935
0.0149663
0.0149911
0.0150095
0.0150215
0.0150275
0.0146738
0.0146801
0.0147154
0.0147518
0.0147929
0.0148384
0.0148848
0.0149284
0.0149667
0.0149983
0.015023
0.0150409
0.0150526
0.0150584
0.0146494
0.0146866
0.0147234
0.0147633
0.0148091
0.0148587
0.014908
0.0149532
0.0149919
0.0150233
0.0150475
0.015065
0.0150763
0.0150819
0.0146588
0.0146929
0.01473
0.0147728
0.0148221
0.0148747
0.0149258
0.0149717
0.0150105
0.0150415
0.0150653
0.0150823
0.0150933
0.0150986
0.0146566
0.0146596
0.0146954
0.0147342
0.0147794
0.0148312
0.0148857
0.0149378
0.0149841
0.0150227
0.0150534
0.0150768
0.0150935
0.0151042
0.0151095
0.0146592
0.0146618
0.0146976
0.0147367
0.0147829
0.0148359
0.0148913
0.0149439
0.0149902
0.0150288
0.0150593
0.0150825
0.015099
0.0151096
0.0151148
0.0143995
0.0144019
0.0144139
0.0144196
0.0143937
0.0144002
0.0143989
0.0144008
0.014421
0.0144466
0.0144177
0.0144223
0.0144255
0.0144286
0.014429
0.0144306
0.0144295
0.0144253
0.014436
0.0144452
0.0144516
0.0144553
0.0144582
0.01446
0.0144615
0.0144173
0.014433
0.0144492
0.0144614
0.0144712
0.0144795
0.0144862
0.0144917
0.0144957
0.014498
0.0144179
0.0144353
0.0144554
0.0144712
0.0144853
0.0144986
0.0145111
0.0145223
0.0145316
0.0145383
0.0145419
0.0144313
0.0144341
0.014456
0.0144751
0.014493
0.0145113
0.01453
0.0145479
0.0145638
0.0145767
0.0145857
0.0145904
0.0144235
0.0144275
0.0144509
0.0144724
0.0144935
0.0145162
0.0145404
0.0145648
0.0145876
0.0146073
0.0146229
0.0146335
0.0146389
0.0144498
0.0144389
0.0144637
0.014487
0.0145125
0.0145409
0.014571
0.0146004
0.0146269
0.0146492
0.0146662
0.0146778
0.0146836
0.0144183
0.014422
0.0144488
0.0144742
0.0145009
0.0145317
0.0145659
0.0146009
0.0146339
0.0146628
0.0146865
0.0147043
0.0147162
0.0147221
0.0144249
0.0144275
0.014456
0.0144831
0.014514
0.0145501
0.0145892
0.0146279
0.0146633
0.0146935
0.0147178
0.0147358
0.0147477
0.0147537
0.0144002
0.0144313
0.0144603
0.0144903
0.0145256
0.0145664
0.0146093
0.0146505
0.0146873
0.0147181
0.0147426
0.0147605
0.0147723
0.0147782
0.0144071
0.0144348
0.0144635
0.0144961
0.0145352
0.0145795
0.0146251
0.0146679
0.0147054
0.0147365
0.0147608
0.0147786
0.0147903
0.014796
0.014406
0.0144055
0.0144351
0.0144652
0.0145002
0.014542
0.0145887
0.0146359
0.0146796
0.0147175
0.0147486
0.0147729
0.0147905
0.014802
0.0148077
0.0144081
0.0144071
0.0144364
0.0144666
0.0145024
0.0145456
0.0145935
0.0146414
0.0146855
0.0147236
0.0147547
0.0147789
0.0147964
0.0148079
0.0148135
0.0141525
0.0141548
0.014172
0.0141767
0.0141537
0.0141566
0.0141521
0.0141541
0.0141804
0.014206
0.0141777
0.014179
0.0141785
0.0141779
0.0141758
0.0141768
0.0141902
0.0141883
0.014195
0.0141991
0.0142007
0.0141998
0.0141987
0.0141977
0.0141981
0.0141831
0.0141941
0.0142054
0.014212
0.0142158
0.0142183
0.01422
0.0142215
0.0142228
0.0142239
0.0141837
0.0141943
0.0142097
0.014219
0.014226
0.0142325
0.0142391
0.0142454
0.014251
0.0142553
0.0142578
0.0141922
0.0141954
0.0142104
0.0142221
0.0142316
0.0142421
0.0142538
0.014266
0.0142776
0.0142875
0.0142946
0.0142984
0.0141832
0.0141908
0.0142074
0.0142203
0.0142323
0.0142458
0.0142621
0.0142801
0.0142981
0.0143143
0.0143276
0.0143369
0.0143417
0.0142097
0.0141983
0.0142147
0.014228
0.0142434
0.0142627
0.0142854
0.0143092
0.0143319
0.0143517
0.0143673
0.014378
0.0143834
0.0141774
0.0141828
0.0142034
0.0142193
0.0142352
0.0142557
0.0142813
0.0143098
0.0143384
0.0143645
0.0143865
0.0144035
0.014415
0.0144208
0.0141837
0.0141855
0.014206
0.0142226
0.0142424
0.0142685
0.0142998
0.014333
0.014365
0.0143933
0.0144166
0.0144343
0.0144462
0.0144521
0.0141626
0.0141861
0.0142061
0.014225
0.0142493
0.0142806
0.0143165
0.0143532
0.0143874
0.0144171
0.0144411
0.0144591
0.0144711
0.014477
0.0141661
0.014186
0.0142053
0.0142269
0.0142553
0.0142908
0.0143301
0.0143691
0.0144047
0.0144351
0.0144595
0.0144776
0.0144895
0.0144955
0.0141613
0.0141609
0.0141835
0.0142042
0.0142282
0.0142597
0.0142981
0.0143396
0.01438
0.0144165
0.0144472
0.0144717
0.0144898
0.0145017
0.0145076
0.0141629
0.014162
0.0141839
0.0142043
0.0142292
0.0142621
0.014302
0.0143445
0.0143856
0.0144224
0.0144533
0.0144778
0.014496
0.0145079
0.0145138
0.0139063
0.0139092
0.0139336
0.0139388
0.0139257
0.013922
0.0139124
0.0139153
0.0139433
0.0139731
0.0139488
0.0139447
0.0139388
0.0139331
0.0139277
0.0139284
0.0139576
0.0139637
0.0139643
0.0139606
0.0139555
0.0139489
0.0139429
0.0139387
0.0139381
0.0139711
0.013965
0.0139688
0.0139682
0.0139646
0.0139604
0.0139566
0.0139539
0.0139525
0.0139525
0.0139718
0.0139602
0.0139698
0.013971
0.0139699
0.013969
0.0139693
0.0139708
0.013973
0.0139751
0.0139766
0.0139598
0.0139665
0.0139705
0.0139731
0.013973
0.0139751
0.0139798
0.0139866
0.0139942
0.0140013
0.0140068
0.0140099
0.0139464
0.0139665
0.0139709
0.0139725
0.0139738
0.0139777
0.013986
0.0139979
0.0140114
0.0140245
0.0140358
0.0140439
0.0140482
0.0139772
0.013968
0.0139712
0.0139722
0.0139765
0.0139867
0.0140024
0.0140211
0.0140403
0.0140577
0.014072
0.0140819
0.014087
0.0139401
0.0139546
0.0139655
0.0139685
0.0139721
0.013982
0.0139993
0.0140217
0.0140462
0.0140696
0.0140901
0.0141062
0.0141173
0.014123
0.013948
0.0139529
0.0139619
0.0139654
0.0139732
0.0139895
0.0140134
0.0140415
0.0140702
0.0140967
0.014119
0.0141363
0.014148
0.0141539
0.0139387
0.0139491
0.0139567
0.0139625
0.0139753
0.0139976
0.014027
0.0140594
0.0140911
0.0141195
0.014143
0.0141609
0.0141729
0.0141789
0.0139355
0.0139437
0.0139511
0.0139603
0.0139779
0.0140051
0.0140386
0.014074
0.0141077
0.0141372
0.0141613
0.0141795
0.0141916
0.0141977
0.0139186
0.0139241
0.0139374
0.0139466
0.0139589
0.0139802
0.0140108
0.014047
0.0140842
0.014119
0.0141491
0.0141736
0.0141919
0.0142041
0.0142102
0.0139199
0.0139254
0.0139371
0.0139455
0.0139587
0.0139816
0.0140139
0.0140514
0.0140895
0.0141248
0.0141552
0.0141798
0.0141982
0.0142104
0.0142165
0.0136511
0.013657
0.0136911
0.0137023
0.0137157
0.0136947
0.0136769
0.013683
0.0137012
0.0137497
0.0137315
0.0137182
0.0137034
0.0136896
0.0136795
0.0136805
0.0137304
0.0137521
0.0137421
0.0137242
0.0137094
0.0136954
0.013684
0.0136766
0.0136754
0.0138066
0.0137493
0.013732
0.0137226
0.0137099
0.0136982
0.0136889
0.0136825
0.013679
0.0136783
0.0138075
0.0137383
0.0137307
0.0137192
0.0137093
0.0137009
0.0136955
0.013693
0.0136926
0.0136933
0.0136942
0.0137328
0.0137509
0.0137315
0.0137207
0.0137096
0.0137035
0.0137022
0.0137047
0.0137095
0.0137148
0.0137193
0.0137219
0.0137044