/*--------------------------------*- C++ -*----------------------------------*\
| =========                 |                                                 |
| \\      /  F ield         | OpenFOAM: The Open Source CFD Toolbox           |
|  \\    /   O peration     | Version:  2.1.1                                 |
|   \\  /    A nd           | Web:      www.OpenFOAM.org                      |
|    \\/     M anipulation  |                                                 |
\*---------------------------------------------------------------------------*/
FoamFile
{
    version     2.0;
    format      ascii;
    class       surfaceScalarField;
    location    "0.004";
    object      phi;
}
// * * * * * * * * * * * * * * * * * * * * * * * * * * * * * * * * * * * * * //

dimensions      [0 3 -1 0 0 0 0];

internalField   nonuniform List<scalar> 
29937
(
-2.34919e-13
-2.34752e-13
1.17596e-09
-4.88082e-13
-2.26435e-13
1.17554e-09
-7.65548e-13
-2.34042e-13
1.17522e-09
-1.09549e-12
-2.18429e-13
1.17512e-09
-1.47653e-12
-2.32696e-13
1.17533e-09
-1.94852e-12
-1.86909e-13
1.17589e-09
-2.45265e-12
-2.35046e-13
1.1768e-09
-3.10056e-12
-9.03243e-14
1.17841e-09
-3.77925e-12
-2.92333e-13
1.18021e-09
-5.01846e-12
1.22645e-13
1.18283e-09
-6.16135e-12
-8.07093e-13
1.18335e-09
-6.79319e-12
8.63662e-13
1.19792e-09
-5.06333e-12
-1.24921e-13
1.22222e-09
6.85704e-11
2.29588e-12
9.80668e-10
6.89379e-11
-6.69996e-11
-6.70657e-11
-4.32916e-11
1.85273e-12
9.88986e-11
-9.60295e-12
1.50951e-11
1.51189e-11
-9.49983e-12
-2.27227e-13
-4.87943e-13
1.17557e-09
-4.77521e-13
-4.77175e-13
1.17537e-09
-7.5356e-13
-4.91154e-13
1.17516e-09
-1.07666e-12
-4.62831e-13
1.17513e-09
-1.44345e-12
-4.90044e-13
1.1754e-09
-1.88771e-12
-4.11413e-13
1.17597e-09
-2.35993e-12
-5.02727e-13
1.17692e-09
-2.98014e-12
-2.47614e-13
1.17846e-09
-3.67701e-12
-6.00569e-13
1.18023e-09
-4.96752e-12
2.69793e-13
1.18294e-09
-5.81612e-12
-1.58945e-12
1.18783e-09
-6.10735e-12
2.08563e-12
1.21429e-09
-4.55305e-12
-1.43948e-12
1.20276e-09
6.96613e-11
4.9623e-11
7.97545e-10
7.22825e-11
-6.5863e-11
-7.06832e-11
7.46735e-11
-4.69952e-11
-7.0329e-11
-4.50948e-11
-6.58126e-12
1.53144e-11
9.57039e-11
-1.07978e-11
1.56398e-11
1.60487e-11
-1.05719e-11
-2.35524e-13
-7.6565e-13
1.17524e-09
-4.92342e-13
-7.52881e-13
1.17524e-09
-7.79332e-13
-7.77938e-13
1.17526e-09
-1.10939e-12
-7.34183e-13
1.17527e-09
-1.51787e-12
-7.47664e-13
1.17569e-09
-1.97791e-12
-6.45112e-13
1.17632e-09
-2.58574e-12
-6.61486e-13
1.17754e-09
-3.19491e-12
-3.89049e-13
1.17912e-09
-4.24305e-12
-3.85411e-13
1.18173e-09
-5.22302e-12
4.63353e-13
1.18481e-09
-5.95513e-12
-4.45354e-13
1.19573e-09
-2.43922e-12
1.44847e-12
1.20401e-09
4.78701e-11
2.32315e-12
9.62916e-10
6.15392e-11
-4.67376e-11
-6.06436e-11
-5.80115e-11
1.61759e-11
8.25842e-12
1.31071e-10
-3.96432e-11
-2.19515e-11
6.71348e-11
-1.91276e-11
-8.87089e-12
1.03547e-11
1.25646e-11
-8.11221e-12
-1.11303e-11
1.10512e-11
1.60284e-11
-8.29812e-12
-2.19147e-13
-1.09524e-12
1.17513e-09
-4.63526e-13
-1.07564e-12
1.17515e-09
-7.35409e-13
-1.10685e-12
1.17533e-09
-1.04821e-12
-1.04606e-12
1.17545e-09
-1.42874e-12
-1.05399e-12
1.17593e-09
-1.83275e-12
-9.6617e-13
1.17651e-09
-2.34173e-12
-9.18721e-13
1.17774e-09
-2.80361e-12
-7.19289e-13
1.17913e-09
-3.63278e-12
-4.39119e-13
1.18128e-09
-4.39624e-12
-2.39211e-14
1.18319e-09
-5.24361e-12
1.22947e-13
1.19463e-09
-2.05544e-12
-1.78647e-13
1.21228e-09
6.44158e-11
2.65098e-12
9.67536e-10
6.67239e-11
-6.28605e-11
-6.5118e-11
-4.98123e-11
-5.34359e-12
1.80976e-11
1.14068e-12
1.00334e-10
2.16378e-12
-3.38401e-13
-1.36042e-11
2.43658e-12
-1.6098e-14
9.35838e-12
-2.3279e-13
-1.47584e-12
1.17533e-09
-4.90615e-13
-1.44188e-12
1.17541e-09
-7.50121e-13
-1.51426e-12
1.1757e-09
-1.05782e-12
-1.42497e-12
1.17593e-09
-1.44791e-12
-1.44275e-12
1.17663e-09
-1.86443e-12
-1.35415e-12
1.17728e-09
-2.39357e-12
-1.25996e-12
1.17868e-09
-2.89665e-12
-1.04545e-12
1.17999e-09
-3.58218e-12
-7.21674e-13
1.18208e-09
-4.60657e-12
-4.71554e-13
1.18288e-09
-5.4501e-12
3.11898e-13
1.1974e-09
-3.07338e-12
-6.36897e-13
1.22247e-09
6.66091e-11
4.4146e-12
9.78091e-10
6.75379e-11
-6.56247e-11
-6.52391e-11
-5.67478e-11
1.77904e-11
-5.55464e-12
1.09067e-10
2.05401e-12
1.44131e-13
-9.12327e-13
-1.32877e-11
1.23128e-12
1.38996e-12
1.14347e-11
-1.85036e-13
-1.94677e-12
1.1759e-09
-4.09677e-13
-1.88653e-12
1.17597e-09
-6.4656e-13
-1.97342e-12
1.17633e-09
-9.70163e-13
-1.82783e-12
1.17652e-09
-1.3595e-12
-1.85703e-12
1.17726e-09
-1.77031e-12
-1.76458e-12
1.17801e-09
-2.25896e-12
-1.60911e-12
1.17954e-09
-2.6191e-12
-1.51295e-12
1.18067e-09
-3.35691e-12
-1.05457e-12
1.18178e-09
-4.01905e-12
-1.51129e-12
1.18461e-09
-5.06512e-12
2.67971e-13
1.20772e-09
-3.63555e-12
-6.62161e-13
1.19624e-09
6.71225e-11
4.69131e-11
8.07457e-10
6.7999e-11
-6.40669e-11
-6.59906e-11
6.70278e-11
-4.46943e-11
-6.25869e-11
-4.97657e-11
-1.78783e-13
6.11859e-12
1.02062e-10
-9.85437e-12
1.39771e-11
1.44435e-11
-9.68033e-12
-2.30208e-13
-2.45015e-12
1.17681e-09
-4.99918e-13
-2.35729e-12
1.17692e-09
-6.62888e-13
-2.58136e-12
1.17754e-09
-9.25118e-13
-2.33749e-12
1.17776e-09
-1.27044e-12
-2.38426e-12
1.17867e-09
-1.6213e-12
-2.25022e-12
1.17951e-09
-2.09392e-12
-2.08324e-12
1.18126e-09
-2.67774e-12
-2.06653e-12
1.18197e-09
-2.94334e-12
-2.24234e-12
1.18413e-09
-4.66058e-12
-1.58609e-12
1.19586e-09
-1.24475e-12
-2.24942e-12
1.20539e-09
4.76793e-11
2.98962e-12
9.44331e-10
6.21023e-11
-4.6938e-11
-6.11939e-11
-6.03553e-11
1.39816e-11
6.09897e-12
1.34867e-10
1.11146e-11
-1.16099e-11
-1.29094e-11
2.619e-12
1.04493e-12
9.74074e-12
-8.4493e-14
-3.09584e-12
1.17842e-09
-2.36164e-13
-2.98365e-12
1.17846e-09
-3.79468e-13
-3.19299e-12
1.17912e-09
-7.20347e-13
-2.79942e-12
1.17915e-09
-1.05453e-12
-2.8861e-12
1.18e-09
-1.52602e-12
-2.60729e-12
1.18066e-09
-2.07901e-12
-2.66277e-12
1.18196e-09
-2.77079e-12
-2.761e-12
1.18369e-09
-4.02273e-12
-2.7998e-12
1.19585e-09
-3.64426e-12
-1.91516e-12
1.22485e-09
-2.08174e-12
-8.90229e-13
1.19037e-09
6.42532e-11
4.64629e-11
8.21853e-10
6.43588e-11
-6.13552e-11
-6.18933e-11
6.82814e-11
-4.52497e-11
-6.38421e-11
-4.49308e-11
-2.99328e-12
7.18585e-12
9.64055e-11
-9.60558e-12
1.2064e-11
1.37209e-11
-7.59379e-12
-1.91826e-13
-6.56645e-13
-1.53217e-12
2.38064e-12
-2.80592e-13
-3.77172e-12
1.18022e-09
-5.92358e-13
-3.68078e-12
1.18023e-09
-3.82347e-13
-4.24278e-12
1.18173e-09
-4.43421e-13
-3.63117e-12
1.18129e-09
-7.32271e-13
-3.57692e-12
1.18211e-09
-1.07428e-12
-3.34588e-12
1.1818e-09
-2.26167e-12
-2.92938e-12
1.18419e-09
-2.83359e-12
-4.00058e-12
1.19594e-09
-2.79549e-12
-2.78564e-12
1.22811e-09
-1.61206e-12
-1.85249e-12
1.18012e-09
4.46171e-11
4.93068e-11
7.62566e-10
6.79601e-11
-4.40827e-11
-6.5258e-11
6.7296e-11
-4.63947e-11
-6.44445e-11
-7.11143e-11
5.4123e-12
8.92178e-12
1.47861e-10
9.07566e-12
-1.10542e-11
-1.0527e-11
-1.18699e-12
1.24582e-12
1.24467e-11
1.4666e-13
-5.00925e-12
1.18282e-09
2.93724e-13
-4.9753e-12
1.18292e-09
4.74198e-13
-5.2285e-12
1.18481e-09
-2.15548e-14
-4.39808e-12
1.18318e-09
-4.78484e-13
-4.60554e-12
1.1829e-09
-1.52728e-12
-4.01187e-12
1.18464e-09
-1.61014e-12
-4.64599e-12
1.19594e-09
-1.92179e-12
-3.63424e-12
1.22506e-09
-1.85663e-12
-1.6101e-12
1.18021e-09
5.04908e-11
5.05435e-11
7.6887e-10
6.83412e-11
-4.82588e-11
-6.67249e-11
6.84561e-11
-4.83089e-11
-6.68278e-11
-6.22221e-11
1.52317e-11
1.55074e-11
1.31281e-10
-3.46074e-11
-1.91764e-11
6.07853e-11
-1.83499e-11
-9.52796e-12
1.40792e-11
1.21754e-11
-1.04932e-11
-7.65103e-12
9.03872e-12
1.06136e-11
-6.88631e-12
-7.87018e-13
-6.14744e-12
1.18333e-09
-1.56903e-12
-5.82825e-12
1.18779e-09
-4.41091e-13
-5.95941e-12
1.1957e-09
1.21055e-13
-5.24702e-12
1.19461e-09
3.00779e-13
-5.45251e-12
1.19742e-09
2.4888e-13
-5.06078e-12
1.20778e-09
-2.26674e-12
-1.24024e-12
1.20553e-09
-9.03082e-13
-2.07692e-12
1.19077e-09
4.92977e-11
4.45916e-11
7.63095e-10
6.79521e-11
-4.4063e-11
-6.52528e-11
6.73246e-11
-4.6373e-11
-6.4479e-11
-6.22832e-11
1.5499e-11
1.52344e-11
1.31392e-10
-3.63265e-11
6.46235e-11
-1.89319e-11
-1.89393e-11
-8.49774e-12
9.65959e-12
1.13064e-11
-7.68901e-12
-8.51516e-12
9.69153e-12
1.13354e-11
-7.71681e-12
8.8478e-13
-6.78071e-12
1.19786e-09
2.10659e-12
-6.11939e-12
1.21421e-09
1.4454e-12
-2.43838e-12
1.20395e-09
-1.6643e-13
-2.05648e-12
1.21222e-09
-6.38221e-13
-3.08037e-12
1.22249e-09
-6.70252e-13
-3.63386e-12
1.19629e-09
2.98046e-12
4.76741e-11
9.44426e-10
6.20974e-11
-4.69316e-11
-6.1186e-11
4.64733e-11
6.42465e-11
8.21994e-10
6.82886e-11
-4.5262e-11
-6.38487e-11
6.43513e-11
-6.13493e-11
-6.18906e-11
-7.1129e-11
8.9196e-12
5.40292e-12
1.47872e-10
-3.46457e-11
-1.91652e-11
6.07962e-11
-1.83293e-11
-7.65667e-12
9.05164e-12
1.06167e-11
-6.89248e-12
-9.52727e-12
1.40718e-11
1.21718e-11
-1.04917e-11
-1.14969e-13
-5.04827e-12
1.22208e-09
-1.42328e-12
-4.57006e-12
1.20258e-09
2.30859e-12
4.78599e-11
9.6288e-10
6.15295e-11
-4.67251e-11
-6.06407e-11
2.6611e-12
6.44125e-11
9.67493e-10
6.67189e-11
-6.28529e-11
-6.5117e-11
4.42077e-12
6.66058e-11
9.78093e-10
6.75329e-11
-6.56219e-11
-6.52372e-11
4.69126e-11
6.71199e-11
8.07472e-10
6.70269e-11
-4.46949e-11
-6.2584e-11
6.79956e-11
-6.40631e-11
-6.59878e-11
-6.03516e-11
6.10026e-12
1.39788e-11
1.3486e-10
-4.49211e-11
-2.99413e-12
7.18192e-12
9.63945e-11
-9.60511e-12
1.20628e-11
1.37209e-11
-7.59361e-12
9.07509e-12
-1.05252e-11
-1.10551e-11
1.24653e-12
-1.18721e-12
1.24458e-11
2.30254e-12
6.85686e-11
9.80368e-10
6.88915e-11
-6.69861e-11
-6.70346e-11
4.9642e-11
6.96359e-11
7.9728e-10
7.22658e-11
-6.58266e-11
-7.06725e-11
7.46861e-11
-4.7008e-11
-7.03373e-11
-5.80018e-11
8.26848e-12
1.61726e-11
1.31063e-10
-4.98091e-11
-5.34664e-12
1.143e-12
1.80964e-11
1.00329e-10
-5.67451e-11
-5.55259e-12
1.77868e-11
1.09064e-10
2.0527e-12
-4.97647e-11
-1.79413e-13
6.11855e-12
1.02059e-10
-9.85409e-12
1.39767e-11
1.44428e-11
-9.67984e-12
1.11141e-11
-1.29086e-11
-1.16095e-11
1.04494e-12
2.61884e-12
9.7402e-12
-1.91688e-13
-1.53227e-12
-6.56469e-13
2.38043e-12
-4.32782e-11
1.85588e-12
9.88703e-11
-9.59787e-12
1.51029e-11
1.51087e-11
-9.50103e-12
-4.50599e-11
-6.58486e-12
1.53226e-11
9.5647e-11
-1.07937e-11
1.56276e-11
1.60406e-11
-1.05637e-11
-3.96402e-11
-2.19557e-11
6.71327e-11
-1.91263e-11
-1.11302e-11
1.10521e-11
1.60292e-11
-8.29885e-12
-8.87078e-12
1.03549e-11
1.25646e-11
-8.11149e-12
2.16381e-12
-3.38386e-13
-1.36038e-11
-1.59338e-14
2.43636e-12
9.35794e-12
1.44188e-13
-1.32874e-11
-9.12182e-13
1.38992e-12
1.23119e-12
1.14343e-11
-4.75303e-14
-4.8177e-14
1.17606e-09
-1.05076e-13
-4.59666e-14
1.17565e-09
-1.67213e-13
-5.02171e-14
1.17534e-09
-2.38675e-13
-4.51511e-14
1.17524e-09
-3.23044e-13
-5.34119e-14
1.17547e-09
-4.24559e-13
-3.62231e-14
1.17603e-09
-5.24577e-13
-6.53765e-14
1.17697e-09
-6.24643e-13
-3.62054e-15
1.17852e-09
-6.48146e-13
-1.17187e-13
1.18036e-09
-8.73117e-13
1.7709e-13
1.18287e-09
-1.1546e-12
-4.80468e-13
1.18411e-09
-2.16813e-12
4.99536e-13
1.19844e-09
-8.60603e-13
-1.06855e-12
1.22198e-09
6.68113e-11
1.47801e-12
9.76944e-10
6.71499e-11
-6.62357e-11
-6.63457e-11
-4.40615e-11
1.70449e-12
9.97568e-11
-9.94722e-12
1.459e-11
1.46202e-11
-9.84974e-12
-4.55176e-14
-1.05966e-13
1.17568e-09
-1.01904e-13
-1.02489e-13
1.17548e-09
-1.64548e-13
-1.0902e-13
1.17528e-09
-2.34981e-13
-1.00232e-13
1.17526e-09
-3.1517e-13
-1.15586e-13
1.17555e-09
-4.0713e-13
-8.78369e-14
1.17611e-09
-4.949e-13
-1.44301e-13
1.17708e-09
-5.76354e-13
-4.65299e-14
1.17858e-09
-6.33025e-13
-2.65631e-13
1.18044e-09
-9.89925e-13
3.29423e-13
1.18314e-09
-1.44988e-12
-9.02557e-13
1.18871e-09
-2.87251e-12
1.90522e-12
1.21431e-09
-1.62433e-12
-2.44151e-12
1.20288e-09
6.73493e-11
4.83901e-11
7.93849e-10
7.0558e-11
-6.54346e-11
-7.00419e-11
7.25015e-11
-4.84596e-11
-7.13139e-11
-4.61155e-11
-6.2542e-12
1.45758e-11
9.65795e-11
-1.11324e-11
1.50717e-11
1.55635e-11
-1.09397e-11
-5.03922e-14
-1.68189e-13
1.17535e-09
-1.09447e-13
-1.64723e-13
1.17536e-09
-1.763e-13
-1.75405e-13
1.17539e-09
-2.47627e-13
-1.65209e-13
1.17541e-09
-3.48071e-13
-1.74267e-13
1.17585e-09
-4.40534e-13
-1.44118e-13
1.17647e-09
-5.91989e-13
-1.69457e-13
1.17772e-09
-6.47604e-13
-9.13388e-14
1.17922e-09
-9.27272e-13
-1.62293e-13
1.18191e-09
-1.00895e-12
2.77591e-13
1.18494e-09
-2.12906e-12
-1.22407e-13
1.19607e-09
3.72162e-13
9.9418e-13
1.20242e-09
4.71341e-11
8.67025e-13
9.6035e-10
6.08764e-11
-4.76821e-11
-6.06982e-11
-5.9586e-11
1.48792e-11
6.57173e-12
1.33659e-10
-4.03621e-11
-2.05152e-11
6.75482e-11
-1.7702e-11
-9.09231e-12
1.00891e-11
1.20839e-11
-8.34458e-12
-1.13466e-11
1.05936e-11
1.54884e-11
-8.44034e-12
-4.46981e-14
-2.39382e-13
1.17525e-09
-1.0018e-13
-2.34819e-13
1.17528e-09
-1.65981e-13
-2.45889e-13
1.17547e-09
-2.3587e-13
-2.34255e-13
1.17559e-09
-3.32181e-13
-2.36081e-13
1.17609e-09
-4.11656e-13
-2.22958e-13
1.17667e-09
-5.42854e-13
-2.10466e-13
1.17792e-09
-5.44963e-13
-2.09299e-13
1.17925e-09
-7.56297e-13
-1.01693e-13
1.18144e-09
-6.99548e-13
-6.15511e-14
1.18347e-09
-1.85428e-12
3.4974e-13
1.19532e-09
9.70819e-13
-5.07278e-13
1.21095e-09
6.36347e-11
1.61973e-12
9.66136e-10
6.5485e-11
-6.27168e-11
-6.47829e-11
-5.0556e-11
-4.79446e-12
1.6671e-11
9.02201e-13
1.01412e-10
1.82074e-12
-3.25144e-13
-1.32824e-11
2.41387e-12
8.70353e-15
9.36426e-12
-5.24679e-14
-3.23583e-13
1.17547e-09
-1.1553e-13
-3.14593e-13
1.17555e-09
-1.75771e-13
-3.45749e-13
1.17586e-09
-2.38984e-13
-3.2935e-13
1.17609e-09
-3.36846e-13
-3.32565e-13
1.17683e-09
-4.26204e-13
-3.28956e-13
1.17748e-09
-5.65368e-13
-3.0423e-13
1.17891e-09
-6.17136e-13
-2.89851e-13
1.18012e-09
-7.11281e-13
-1.40883e-13
1.18221e-09
-8.4616e-13
-1.93608e-13
1.18314e-09
-1.82061e-12
5.69722e-13
1.19816e-09
-4.55825e-14
-1.44428e-12
1.22163e-09
6.49346e-11
2.75181e-12
9.75721e-10
6.62491e-11
-6.55082e-11
-6.44828e-11
-5.74408e-11
1.58471e-11
-5.62487e-12
1.10155e-10
1.99834e-12
-1.57935e-13
-9.0862e-13
-1.29716e-11
1.2126e-12
1.40105e-12
1.14245e-11
-3.41801e-14
-4.24414e-13
1.17604e-09
-8.62541e-14
-4.07182e-13
1.17612e-09
-1.44568e-13
-4.38414e-13
1.17648e-09
-2.25183e-13
-4.08899e-13
1.17668e-09
-3.33143e-13
-4.20879e-13
1.17746e-09
-4.39514e-13
-4.35044e-13
1.17822e-09
-5.86934e-13
-3.72289e-13
1.17976e-09
-5.95953e-13
-4.00298e-13
1.18079e-09
-8.42216e-13
-2.79469e-14
1.18191e-09
-9.27619e-13
-5.58031e-13
1.18506e-09
-2.4207e-12
1.24659e-12
1.20854e-09
-1.58131e-12
-2.00685e-12
1.19596e-09
6.49424e-11
4.61304e-11
8.04908e-10
6.71488e-11
-6.40545e-11
-6.59836e-11
6.59709e-11
-4.6393e-11
-6.40418e-11
-5.05464e-11
2.66335e-13
4.87638e-12
1.03045e-10
-1.01706e-11
1.34713e-11
1.40318e-11
-1.00324e-11
-6.1341e-14
-5.24083e-13
1.17698e-09
-1.41743e-13
-4.95633e-13
1.17709e-09
-1.69146e-13
-5.92195e-13
1.17773e-09
-2.1368e-13
-5.40579e-13
1.17794e-09
-3.10192e-13
-5.60093e-13
1.17891e-09
-3.8025e-13
-5.8002e-13
1.17973e-09
-4.78764e-13
-4.71765e-13
1.18146e-09
-6.2274e-13
-4.22529e-13
1.18214e-09
-4.30345e-13
-5.00499e-13
1.18442e-09
-1.87357e-12
1.93011e-13
1.19655e-09
1.67447e-12
-1.89519e-12
1.20499e-09
4.65848e-11
2.73586e-12
9.42441e-10
6.10942e-11
-4.77823e-11
-6.10742e-11
-6.19617e-11
1.18993e-11
4.77755e-12
1.38e-10
9.80688e-12
-1.10901e-11
-1.22407e-11
2.4227e-12
8.28903e-13
1.02723e-11
4.5962e-15
-6.22712e-13
1.17853e-09
-4.08317e-14
-5.79149e-13
1.17859e-09
-9.47245e-14
-6.4873e-13
1.17923e-09
-2.09593e-13
-5.52388e-13
1.17928e-09
-2.93632e-13
-6.1444e-13
1.18014e-09
-4.10296e-13
-5.83232e-13
1.18078e-09
-4.32509e-13
-6.17419e-13
1.18213e-09
-5.78208e-13
-5.80832e-13
1.184e-09
-1.56527e-12
-2.87105e-13
1.19662e-09
-1.47427e-12
-5.06048e-13
1.22546e-09
-1.35654e-12
-4.11014e-13
1.18876e-09
6.26385e-11
4.53031e-11
8.19353e-10
6.36542e-11
-6.18138e-11
-6.23217e-11
6.75725e-11
-4.68073e-11
-6.43455e-11
-4.59374e-11
-2.29736e-12
5.82066e-12
9.8088e-11
-9.95906e-12
1.15406e-11
1.33575e-11
-7.97465e-12
-2.35864e-13
-5.91996e-13
-1.52517e-12
2.35303e-12
-1.07093e-13
-6.43822e-13
1.18036e-09
-2.58844e-13
-6.37216e-13
1.18044e-09
-1.69861e-13
-9.27988e-13
1.18192e-09
-1.31759e-13
-7.52108e-13
1.18146e-09
-1.80625e-13
-7.08602e-13
1.18226e-09
-4.78907e-14
-8.46837e-13
1.18193e-09
-5.06337e-13
-4.44953e-13
1.18448e-09
-2.86802e-13
-1.56222e-12
1.1967e-09
-7.60027e-13
-6.71066e-13
1.22897e-09
7.38352e-13
-1.07298e-13
1.17822e-09
4.31617e-11
4.83357e-11
7.61063e-10
6.7105e-11
-4.51624e-11
-6.47933e-11
6.591e-11
-4.77589e-11
-6.4967e-11
-7.28215e-11
3.29897e-12
7.09962e-12
1.50888e-10
7.92028e-12
-1.05747e-11
-9.91749e-12
-1.39403e-12
1.04281e-12
1.29231e-11
1.97694e-13
-8.67601e-13
1.18287e-09
3.4495e-13
-9.98274e-13
1.18313e-09
2.89415e-13
-1.02219e-12
1.18496e-09
-5.75336e-14
-6.9843e-13
1.18347e-09
-1.93006e-13
-8.49567e-13
1.18318e-09
-5.72471e-13
-9.26527e-13
1.1851e-09
1.4723e-13
-1.86673e-12
1.19664e-09
-6.04209e-13
-1.45868e-12
1.22571e-09
-1.05649e-13
7.2219e-13
1.17831e-09
4.96793e-11
4.97303e-11
7.6773e-10
6.73603e-11
-4.95663e-11
-6.70129e-11
6.74734e-11
-4.9618e-11
-6.71181e-11
-6.38857e-11
1.38946e-11
1.39536e-11
1.34053e-10
-3.55908e-11
-1.78332e-11
6.12764e-11
-1.72092e-11
-9.76507e-12
1.3679e-11
1.20115e-11
-1.08117e-11
-7.92144e-12
8.78322e-12
1.04488e-11
-7.06751e-12
-4.58858e-13
-1.14852e-12
1.1841e-09
-8.8327e-13
-1.46207e-12
1.18868e-09
-1.3313e-13
-2.13695e-12
1.19607e-09
3.49206e-13
-1.86509e-12
1.19529e-09
5.6244e-13
-1.82615e-12
1.19819e-09
1.23231e-12
-2.42129e-12
1.2086e-09
-1.91121e-12
1.68011e-12
1.20512e-09
-4.13567e-13
-1.35202e-12
1.18917e-09
4.83207e-11
4.31391e-11
7.61577e-10
6.70989e-11
-4.51417e-11
-6.47884e-11
6.59419e-11
-4.77415e-11
-6.50026e-11
-6.3953e-11
1.39466e-11
1.38887e-11
1.34169e-10
-3.73104e-11
6.5359e-11
-1.79124e-11
-1.79203e-11
-8.77011e-12
9.38848e-12
1.11579e-11
-7.89048e-12
-8.78834e-12
9.4202e-12
1.11852e-11
-7.91872e-12
5.45939e-13
-2.16859e-12
1.19837e-09
1.92937e-12
-2.89211e-12
1.21425e-09
1.01337e-12
3.58574e-13
1.20237e-09
-4.99032e-13
9.66038e-13
1.2109e-09
-1.44284e-12
-5.02719e-14
1.22166e-09
-2.01262e-12
-1.57938e-12
1.19601e-09
2.72913e-12
4.65792e-11
9.42538e-10
6.10887e-11
-4.77764e-11
-6.10661e-11
4.53175e-11
6.26312e-11
8.1949e-10
6.75789e-11
-4.68181e-11
-6.4352e-11
6.36501e-11
-6.1807e-11
-6.23178e-11
-7.28377e-11
7.10137e-12
3.29183e-12
1.50901e-10
-3.5622e-11
-1.78251e-11
6.1288e-11
-1.71913e-11
-7.92712e-12
8.79536e-12
1.04512e-11
-7.07417e-12
-9.76425e-12
1.36716e-11
1.20079e-11
-1.08101e-11
-1.04367e-12
-8.62329e-13
1.22186e-09
-2.41588e-12
-1.65476e-12
1.20271e-09
8.73141e-13
4.7125e-11
9.60325e-10
6.08679e-11
-4.76712e-11
-6.06958e-11
1.62225e-12
6.36286e-11
9.66094e-10
6.54813e-11
-6.27105e-11
-6.47818e-11
2.75195e-12
6.49322e-11
9.75722e-10
6.6245e-11
-6.55062e-11
-6.44808e-11
4.61314e-11
6.49394e-11
8.04925e-10
6.59694e-11
-4.63945e-11
-6.40413e-11
6.71462e-11
-6.40518e-11
-6.59811e-11
-6.19604e-11
4.77878e-12
1.18973e-11
1.37995e-10
-4.5936e-11
-2.29789e-12
5.81888e-12
9.8083e-11
-9.95877e-12
1.15394e-11
1.3357e-11
-7.97465e-12
7.91937e-12
-9.91547e-12
-1.05751e-11
1.04246e-12
-1.39378e-12
1.29225e-11
1.50446e-12
6.68089e-11
9.76661e-10
6.71013e-11
-6.62242e-11
-6.63266e-11
4.84097e-11
6.73252e-11
7.93575e-10
7.05436e-11
-6.54062e-11
-7.00365e-11
7.2514e-11
-4.84713e-11
-7.13234e-11
-5.95777e-11
6.58076e-12
1.48777e-11
1.33654e-10
-5.05543e-11
-4.79823e-12
9.03719e-13
1.6669e-11
1.01408e-10
-5.74387e-11
-5.62319e-12
1.58442e-11
1.10152e-10
1.99757e-12
-5.05458e-11
2.65924e-13
4.87591e-12
1.03043e-10
-1.01703e-11
1.34709e-11
1.40312e-11
-1.00322e-11
9.80648e-12
-1.224e-11
-1.10897e-11
8.28776e-13
2.4226e-12
1.02718e-11
-2.35868e-13
-1.52519e-12
-5.91874e-13
2.35294e-12
-4.40442e-11
1.71339e-12
9.97253e-11
-9.94236e-12
1.45976e-11
1.46093e-11
-9.85073e-12
-4.60816e-11
-6.25861e-12
1.45833e-11
9.65244e-11
-1.11282e-11
1.50607e-11
1.55566e-11
-1.09318e-11
-4.03592e-11
-2.0519e-11
6.75471e-11
-1.77026e-11
-1.13467e-11
1.05947e-11
1.54892e-11
-8.44111e-12
-9.0922e-12
1.00895e-11
1.20841e-11
-8.34397e-12
1.82069e-12
-3.25221e-13
-1.32819e-11
8.81221e-15
2.41367e-12
9.36393e-12
-1.57896e-13
-1.29714e-11
-9.08486e-13
1.40098e-12
1.21262e-12
1.14242e-11
1.35572e-13
1.34108e-13
1.1758e-09
2.77966e-13
1.33742e-13
1.17538e-09
4.31913e-13
1.34704e-13
1.17505e-09
6.1491e-13
1.28274e-13
1.17494e-09
8.24261e-13
1.25606e-13
1.17514e-09
1.08548e-12
1.12694e-13
1.17567e-09
1.38283e-12
1.00204e-13
1.17659e-09
1.76092e-12
8.09951e-14
1.17807e-09
2.21454e-12
5.30015e-14
1.17985e-09
2.74979e-12
7.42757e-14
1.18227e-09
3.22581e-12
-1.72697e-13
1.18382e-09
2.63314e-12
2.18016e-13
1.19882e-09
2.12821e-12
-9.67071e-15
1.2225e-09
6.6407e-11
3.34841e-13
9.78601e-10
6.68147e-11
-6.64925e-11
-6.65935e-11
-4.4635e-11
1.66698e-12
1.00303e-10
-1.00478e-11
1.4521e-11
1.45549e-11
-9.95307e-12
1.35161e-13
2.7632e-13
1.1754e-09
2.74108e-13
2.72899e-13
1.1752e-09
4.24704e-13
2.7535e-13
1.175e-09
6.025e-13
2.60727e-13
1.17495e-09
8.05497e-13
2.56827e-13
1.17521e-09
1.05824e-12
2.30419e-13
1.17574e-09
1.34844e-12
2.05828e-13
1.17669e-09
1.72471e-12
1.66154e-13
1.17812e-09
2.18542e-12
6.9801e-14
1.17996e-09
2.64491e-12
1.08536e-13
1.18265e-09
3.11177e-12
-5.8367e-13
1.18866e-09
1.99126e-12
9.1649e-13
1.21473e-09
1.49534e-12
-2.67514e-13
1.20364e-09
6.7056e-11
4.80821e-11
7.95623e-10
7.03511e-11
-6.56785e-11
-7.0215e-11
7.17973e-11
-4.90685e-11
-7.22688e-11
-4.65458e-11
-6.1627e-12
1.44355e-11
9.70334e-11
-1.12165e-11
1.50182e-11
1.55408e-11
-1.10478e-11
1.35258e-13
4.30158e-13
1.17507e-09
2.7553e-13
4.23597e-13
1.17507e-09
4.25645e-13
4.25926e-13
1.17509e-09
6.08177e-13
3.99594e-13
1.17509e-09
8.11486e-13
3.93892e-13
1.1755e-09
1.0742e-12
3.48447e-13
1.17609e-09
1.35463e-12
3.12903e-13
1.17733e-09
1.76258e-12
2.19025e-13
1.17876e-09
2.10479e-12
8.99615e-14
1.18154e-09
2.78335e-12
-1.09105e-13
1.18448e-09
2.41181e-12
-5.64378e-13
1.19642e-09
3.55536e-12
-3.31206e-13
1.20252e-09
4.7295e-11
5.95158e-13
9.62366e-10
6.149e-11
-4.76942e-11
-6.04137e-11
-6.00322e-11
1.49756e-11
6.16985e-12
1.34264e-10
-4.07665e-11
-2.04005e-11
6.79176e-11
-1.73331e-11
-9.15378e-12
1.00543e-11
1.20601e-11
-8.43768e-12
-1.14311e-11
1.05386e-11
1.54617e-11
-8.50974e-12
1.29216e-13
6.13227e-13
1.17494e-09
2.61452e-13
6.0156e-13
1.17497e-09
3.99386e-13
6.0888e-13
1.17515e-09
5.68345e-13
5.69194e-13
1.17525e-09
7.52011e-13
5.72581e-13
1.17573e-09
9.87435e-13
5.07132e-13
1.17628e-09
1.21125e-12
4.93616e-13
1.17751e-09
1.56532e-12
3.28028e-13
1.17879e-09
1.80788e-12
2.80027e-13
1.181e-09
2.36631e-12
-1.88312e-13
1.18299e-09
1.66261e-12
-1.062e-13
1.19556e-09
2.65146e-12
-1.48266e-12
1.21111e-09
6.35439e-11
7.0929e-13
9.67233e-10
6.55155e-11
-6.28884e-11
-6.47304e-11
-5.08881e-11
-4.62789e-12
1.64799e-11
6.86279e-13
1.01893e-10
1.74423e-12
-3.31025e-13
-1.32419e-11
2.4255e-12
3.6892e-15
9.39956e-12
1.26627e-13
8.22578e-13
1.17514e-09
2.57231e-13
8.04942e-13
1.17522e-09
3.9313e-13
8.12652e-13
1.17552e-09
5.70593e-13
7.53789e-13
1.17573e-09
7.59057e-13
7.62403e-13
1.17645e-09
9.91531e-13
6.82437e-13
1.17707e-09
1.22538e-12
6.54651e-13
1.17852e-09
1.51097e-12
4.98984e-13
1.17966e-09
1.82116e-12
3.92027e-13
1.18178e-09
2.13552e-12
2.46214e-14
1.18261e-09
1.54996e-12
7.65548e-14
1.19856e-09
1.63621e-12
-1.79084e-12
1.22186e-09
6.45074e-11
8.96512e-13
9.77061e-10
6.60783e-11
-6.58579e-11
-6.46196e-11
-5.78887e-11
1.55465e-11
-5.81222e-12
1.10597e-10
2.06535e-12
-2.28677e-13
-9.15482e-13
-1.2952e-11
1.2155e-12
1.40716e-12
1.14736e-11
1.14791e-13
1.084e-12
1.17567e-09
2.32182e-13
1.05727e-12
1.17575e-09
3.48671e-13
1.07523e-12
1.1761e-09
5.05864e-13
9.89166e-13
1.17629e-09
6.79616e-13
9.95544e-13
1.17705e-09
8.83198e-13
8.86934e-13
1.17782e-09
1.06438e-12
8.71213e-13
1.17936e-09
1.33472e-12
6.71494e-13
1.18035e-09
1.38132e-12
7.77951e-13
1.18148e-09
1.77835e-12
6.81364e-14
1.18462e-09
4.49017e-13
9.01521e-13
1.20904e-09
-3.72849e-13
-1.23593e-12
1.19623e-09
6.45759e-11
4.58345e-11
8.05215e-10
6.7011e-11
-6.4438e-11
-6.6251e-11
6.54155e-11
-4.69699e-11
-6.49613e-11
-5.0971e-11
4.14232e-13
4.59458e-12
1.03486e-10
-1.02419e-11
1.34206e-11
1.40155e-11
-1.01423e-11
1.0365e-13
1.38139e-12
1.1766e-09
2.08243e-13
1.34699e-12
1.17669e-09
3.13512e-13
1.35515e-12
1.17734e-09
4.91954e-13
1.2122e-12
1.17754e-09
6.50594e-13
1.22889e-12
1.17852e-09
8.66431e-13
1.06796e-12
1.17933e-09
1.07478e-12
1.07972e-12
1.18104e-09
1.21991e-12
9.89439e-13
1.18167e-09
1.62054e-12
7.65135e-13
1.18403e-09
6.67935e-13
1.16636e-12
1.19641e-09
2.72358e-12
-1.47669e-12
1.20531e-09
4.6709e-11
2.0992e-12
9.4228e-10
6.15064e-11
-4.77745e-11
-6.08926e-11
-6.25347e-11
1.19571e-11
4.42421e-12
1.38697e-10
9.68908e-12
-1.10785e-11
-1.21468e-11
2.37914e-12
7.81156e-13
1.03759e-11
8.64331e-14
1.75913e-12
1.17807e-09
1.7059e-13
1.72243e-12
1.17813e-09
2.20752e-13
1.76281e-12
1.17877e-09
3.27925e-13
1.56402e-12
1.17882e-09
4.96248e-13
1.51202e-12
1.17968e-09
6.66269e-13
1.33668e-12
1.18034e-09
9.85055e-13
1.2218e-12
1.18167e-09
1.16887e-12
1.1713e-12
1.18364e-09
8.12882e-13
1.37426e-12
1.19637e-09
8.74481e-13
6.81878e-13
1.22588e-09
-5.64519e-13
-6.39517e-13
1.18937e-09
6.24732e-11
4.50776e-11
8.19306e-10
6.35075e-11
-6.21529e-11
-6.26683e-11
6.73988e-11
-4.72131e-11
-6.48406e-11
-4.64264e-11
-2.16835e-12
5.58081e-12
9.86603e-11
-1.00056e-11
1.15038e-11
1.34011e-11
-8.07256e-12
-2.47668e-13
-5.85801e-13
-1.52048e-12
2.35395e-12
5.4894e-14
2.21653e-12
1.17986e-09
7.06741e-14
2.18074e-12
1.17997e-09
9.27897e-14
2.1015e-12
1.18156e-09
2.8012e-13
1.80444e-12
1.18103e-09
3.89232e-13
1.81934e-12
1.18184e-09
7.71679e-13
1.37917e-12
1.18151e-09
7.59051e-13
1.62009e-12
1.1841e-09
1.37855e-12
8.02831e-13
1.19645e-09
1.28986e-12
1.27503e-12
1.22916e-09
1.44919e-12
9.78273e-14
1.17864e-09
4.31737e-11
4.81821e-11
7.61177e-10
6.72503e-11
-4.52731e-11
-6.48712e-11
6.57405e-11
-4.81273e-11
-6.53783e-11
-7.33863e-11
3.2564e-12
6.8384e-12
1.51543e-10
7.82206e-12
-1.05347e-11
-9.85286e-12
-1.44728e-12
9.80428e-13
1.30324e-11
7.56527e-14
2.75391e-12
1.18227e-09
1.09067e-13
2.63976e-12
1.18264e-09
-1.03567e-13
2.76934e-12
1.1845e-09
-1.84873e-13
2.36062e-12
1.183e-09
2.33162e-14
2.12971e-12
1.18266e-09
6.21716e-14
1.77533e-12
1.18466e-09
1.15975e-12
6.64552e-13
1.1965e-09
6.90731e-13
8.69927e-13
1.22611e-09
1.03485e-13
1.4387e-12
1.17874e-09
4.96149e-11
4.96648e-11
7.6801e-10
6.74362e-11
-4.98599e-11
-6.72315e-11
6.75475e-11
-4.99116e-11
-6.73381e-11
-6.42836e-11
1.37379e-11
1.36721e-11
1.3467e-10
-3.60157e-11
-1.77071e-11
6.16342e-11
-1.6981e-11
-9.83287e-12
1.36491e-11
1.20631e-11
-1.09318e-11
-7.99529e-12
8.77859e-12
1.04758e-11
-7.13705e-12
-1.41643e-13
3.22726e-12
1.1838e-09
-5.62239e-13
3.10173e-12
1.18864e-09
-5.51595e-13
2.39653e-12
1.19643e-09
-1.0195e-13
1.65529e-12
1.19555e-09
7.45891e-14
1.54303e-12
1.1986e-09
8.97167e-13
4.44919e-13
1.20911e-09
-1.48448e-12
2.72286e-12
1.20545e-09
-6.38725e-13
-5.67939e-13
1.18976e-09
4.81668e-11
4.31512e-11
7.61685e-10
6.72449e-11
-4.52523e-11
-6.48669e-11
6.57742e-11
-4.81112e-11
-6.54137e-11
-6.43532e-11
1.36657e-11
1.37308e-11
1.34788e-10
-3.78349e-11
6.57688e-11
-1.7741e-11
-1.77497e-11
-8.84377e-12
9.38758e-12
1.12017e-11
-7.97334e-12
-8.86226e-12
9.41944e-12
1.1229e-11
-8.00171e-12
2.42882e-13
2.62352e-12
1.19878e-09
9.85598e-13
1.95662e-12
1.21465e-09
-3.10622e-13
3.5426e-12
1.20252e-09
-1.46755e-12
2.64778e-12
1.21107e-09
-1.78651e-12
1.63123e-12
1.22189e-09
-1.23743e-12
-3.76355e-13
1.19629e-09
2.09833e-12
4.67031e-11
9.42375e-10
6.15013e-11
-4.77693e-11
-6.0885e-11
4.50926e-11
6.24668e-11
8.19433e-10
6.74062e-11
-4.72246e-11
-6.4847e-11
6.35036e-11
-6.21461e-11
-6.26641e-11
-7.34035e-11
6.84135e-12
3.24912e-12
1.51557e-10
-3.60481e-11
-1.76998e-11
6.16465e-11
-1.69622e-11
-8.00098e-12
8.7908e-12
1.04783e-11
-7.14383e-12
-9.83207e-12
1.3642e-11
1.20595e-11
-1.09301e-11
3.71994e-14
2.10016e-12
1.22243e-09
-2.44936e-13
1.449e-12
1.2035e-09
6.04826e-13
4.72859e-11
9.62347e-10
6.14832e-11
-4.76861e-11
-6.04118e-11
7.14316e-13
6.3537e-11
9.67197e-10
6.55121e-11
-6.28838e-11
-6.47293e-11
8.96788e-13
6.45053e-11
9.77064e-10
6.60755e-11
-6.58564e-11
-6.46171e-11
4.58363e-11
6.45731e-11
8.05231e-10
6.54144e-11
-4.69717e-11
-6.49615e-11
6.70087e-11
-6.44356e-11
-6.62487e-11
-6.25345e-11
4.42542e-12
1.19553e-11
1.38694e-10
-4.64271e-11
-2.1689e-12
5.57996e-12
9.86568e-11
-1.00052e-11
1.15028e-11
1.34008e-11
-8.07251e-12
7.82109e-12
-9.85108e-12
-1.05352e-11
9.80269e-13
-1.44697e-12
1.30319e-11
4.0173e-13
6.64052e-11
9.78407e-10
6.67527e-11
-6.64849e-11
-6.66103e-11
4.81018e-11
6.70256e-11
7.95399e-10
7.03333e-11
-6.56718e-11
-7.02188e-11
7.18072e-11
-4.9075e-11
-7.22761e-11
-6.00251e-11
6.17833e-12
1.4975e-11
1.34259e-10
-5.08869e-11
-4.63147e-12
6.87125e-13
1.64775e-11
1.0189e-10
-5.78868e-11
-5.81097e-12
1.55439e-11
1.10594e-10
2.06506e-12
-5.09704e-11
4.13825e-13
4.59401e-12
1.03484e-10
-1.02416e-11
1.34202e-11
1.40151e-11
-1.0142e-11
9.68871e-12
-1.21461e-11
-1.10782e-11
7.81019e-13
2.37902e-12
1.03755e-11
-2.47685e-13
-1.52052e-12
-5.85681e-13
2.35388e-12
-4.46155e-11
1.69808e-12
1.00276e-10
-1.00448e-11
1.45301e-11
1.4544e-11
-9.95354e-12
-4.65124e-11
-6.17916e-12
1.44455e-11
9.69835e-11
-1.12128e-11
1.50072e-11
1.55344e-11
-1.10414e-11
-4.07638e-11
-2.0404e-11
6.7917e-11
-1.73332e-11
-1.14313e-11
1.05396e-11
1.54623e-11
-8.51049e-12
-9.15353e-12
1.00544e-11
1.20604e-11
-8.4374e-12
1.74418e-12
-3.31216e-13
-1.32412e-11
3.70762e-15
2.42533e-12
9.39925e-12
-2.28681e-13
-1.29518e-11
-9.15366e-13
1.4071e-12
1.21546e-12
1.14733e-11
3.15499e-13
3.12907e-13
1.17518e-09
6.51858e-13
3.10688e-13
1.17474e-09
1.01822e-12
3.16917e-13
1.17437e-09
1.45187e-12
2.99487e-13
1.17421e-09
1.94916e-12
3.02894e-13
1.17435e-09
2.5665e-12
2.59913e-13
1.1748e-09
3.27208e-12
2.67395e-13
1.17562e-09
4.15857e-12
1.74312e-13
1.17701e-09
5.08778e-12
2.40066e-13
1.17869e-09
6.28704e-12
-1.71643e-14
1.1811e-09
7.2337e-12
2.69703e-13
1.18261e-09
7.46293e-12
-2.44286e-13
1.19884e-09
5.12787e-12
1.71734e-12
1.22313e-09
6.6521e-11
1.68983e-13
9.83602e-10
6.69436e-11
-6.66878e-11
-6.6816e-11
-4.47381e-11
1.70137e-12
1.00495e-10
-1.00694e-11
1.45369e-11
1.45707e-11
-9.97316e-12
3.13321e-13
6.49108e-13
1.17476e-09
6.42098e-13
6.40131e-13
1.17455e-09
1.00059e-12
6.51966e-13
1.1743e-09
1.42202e-12
6.15484e-13
1.17421e-09
1.90389e-12
6.24295e-13
1.17441e-09
2.49563e-12
5.45609e-13
1.17486e-09
3.17407e-12
5.57403e-13
1.17572e-09
4.02373e-12