/*--------------------------------*- C++ -*----------------------------------*\
| =========                 |                                                 |
| \\      /  F ield         | OpenFOAM: The Open Source CFD Toolbox           |
|  \\    /   O peration     | Version:  2.1.1                                 |
|   \\  /    A nd           | Web:      www.OpenFOAM.org                      |
|    \\/     M anipulation  |                                                 |
\*---------------------------------------------------------------------------*/
FoamFile
{
    version     2.0;
    format      ascii;
    class       volScalarField;
    location    "0.004";
    object      Th;
}
// * * * * * * * * * * * * * * * * * * * * * * * * * * * * * * * * * * * * * //

dimensions      [0 0 0 0 0 0 0];

internalField   nonuniform List<scalar> 
10314
(
1.00004e-14
1e-14
1.00001e-14
1.00001e-14
1e-14
1.00001e-14
1.00002e-14
1.00001e-14
1.00001e-14
1.00002e-14
1e-14
1.00001e-14
1.00051e-14
1.11402e-14
1.93691e-14
1e-14
1e-14
1e-14
1.00001e-14
1e-14
1.00001e-14
1.00001e-14
1.00001e-14
1.00001e-14
1.00001e-14
1.00001e-14
1.00002e-14
1.00126e-14
1.28774e-14
2.82957e-14
1.00001e-14
1e-14
1.00001e-14
1.00001e-14
1e-14
1e-14
1e-14
1.00001e-14
1e-14
1.00001e-14
1.00001e-14
1.00001e-14
1e-14
1.03395e-14
4.69668e-14
1.00001e-14
1.00001e-14
1.00001e-14
1e-14
1e-14
1.00001e-14
1.00001e-14
1.00001e-14
1e-14
1.00001e-14
1e-14
1.00001e-14
1.00695e-14
1e-14
1.04761e-14
1.00001e-14
1e-14
1e-14
1e-14
1.00001e-14
1.00001e-14
1.00001e-14
1e-14
1e-14
1e-14
1e-14
1.00003e-14
1.01344e-14
1e-14
1e-14
1.00001e-14
1.00001e-14
1e-14
1.00001e-14
1.00001e-14
1.00001e-14
1e-14
1e-14
1e-14
1e-14
1.00001e-14
1.00112e-14
1.37813e-14
2.02751e-14
1.00002e-14
1.00001e-14
1e-14
1.00001e-14
1.00001e-14
1e-14
1e-14
1e-14
1e-14
1.00001e-14
1.00002e-14
1.01138e-14
1.03288e-14
1.00925e-14
1.00001e-14
1.00001e-14
1.00001e-14
1.00001e-14
1e-14
1e-14
1e-14
1e-14
1e-14
1.00001e-14
1.00124e-14
1.66768e-14
1.60482e-14
9.14874e-13
1.00001e-14
1.00001e-14
1e-14
1e-14
1e-14
1e-14
1e-14
1e-14
1e-14
1.00011e-14
1.06652e-14
1.02625e-14
1e-14
1.00002e-14
1.00001e-14
1.00001e-14
1.00001e-14
1e-14
1e-14
1.00001e-14
1.00001e-14
1.00011e-14
1.07103e-14
1.00293e-14
4.37167e-14
1e-14
1.00001e-14
1.00001e-14
1e-14
1e-14
1.00001e-14
1.00002e-14
1.00124e-14
1.06632e-14
1.00296e-14
3.44968e-14
1.00001e-14
1.00002e-14
1.00001e-14
1.00001e-14
1.00003e-14
1.00112e-14
1.01138e-14
1.66742e-14
1.02629e-14
4.36673e-14
1.00051e-14
1.00126e-14
1e-14
1.00695e-14
1.01344e-14
1.3781e-14
1.03288e-14
1.60454e-14
1e-14
1.11391e-14
1.28776e-14
1.03398e-14
1e-14
1e-14
2.02744e-14
1.00924e-14
9.14888e-13
1.93634e-14
2.82855e-14
4.69607e-14
1.0476e-14
1e-14
1.00002e-14
1e-14
1e-14
1e-14
1.00001e-14
1.00001e-14
1.00001e-14
1e-14
1.00001e-14
1.00001e-14
1.00001e-14
1.00001e-14
1.00024e-14
1.09818e-14
1.92344e-14
1e-14
1e-14
1e-14
1e-14
1e-14
1e-14
1e-14
1e-14
1e-14
1.00001e-14
1.00001e-14
1.00002e-14
1.00065e-14
1.2605e-14
2.76345e-14
1e-14
1e-14
1e-14
1.00001e-14
1e-14
1e-14
1e-14
1.00001e-14
1e-14
1e-14
1.00001e-14
1.00001e-14
1e-14
1.02808e-14
4.83299e-14
1e-14
1e-14
1.00001e-14
1e-14
1e-14
1.00001e-14
1.00001e-14
1.00001e-14
1e-14
1e-14
1.00001e-14
1.00001e-14
1.00587e-14
1e-14
1.0385e-14
1.00001e-14
1e-14
1e-14
1e-14
1.00001e-14
1.00001e-14
1.00001e-14
1e-14
1e-14
1e-14
1e-14
1.00001e-14
1.01129e-14
1e-14
1e-14
1.00001e-14
1e-14
1e-14
1.00001e-14
1.00001e-14
1e-14
1e-14
1e-14
1e-14
1e-14
1e-14
1.00061e-14
1.35329e-14
1.99421e-14
1.00001e-14
1e-14
1e-14
1.00001e-14
1.00001e-14
1e-14
1e-14
1e-14
1e-14
1e-14
1e-14
1.01008e-14
1.02903e-14
1e-14
1e-14
1e-14
1.00001e-14
1.00001e-14
1e-14
1e-14
1e-14
1e-14
1e-14
1.00001e-14
1.00069e-14
1.62454e-14
1.57549e-14
9.2395e-13
1.00001e-14
1.00001e-14
1e-14
1e-14
1e-14
1e-14
1e-14
1e-14
1e-14
1.00002e-14
1.05999e-14
1.02707e-14
1e-14
1.00001e-14
1.00001e-14
1e-14
1e-14
1e-14
1e-14
1e-14
1e-14
1.00002e-14
1.06469e-14
1e-14
4.63229e-14
1.00001e-14
1.00001e-14
1.00001e-14
1.00001e-14
1e-14
1e-14
1e-14
1.00069e-14
1.05979e-14
1e-14
3.6453e-14
1.00001e-14
1.00002e-14
1.00001e-14
1.00001e-14
1.00001e-14
1.00061e-14
1.01008e-14
1.62434e-14
1.02713e-14
4.62753e-14
1.00024e-14
1.00065e-14
1e-14
1.00587e-14
1.01129e-14
1.35325e-14
1.02904e-14
1.57547e-14
1e-14
1.09806e-14
1.26052e-14
1.0281e-14
1e-14
1e-14
1.99415e-14
1e-14
9.23966e-13
1.92296e-14
2.76261e-14
4.83237e-14
1.03849e-14
1e-14
1.00001e-14
1e-14
1e-14
1e-14
1e-14
1e-14
1e-14
1e-14
1e-14
1.00001e-14
1e-14
1.00001e-14
1.00001e-14
1.09392e-14
1.93195e-14
1e-14
1e-14
1e-14
1e-14
1e-14
1e-14
1e-14
1e-14
1e-14
1e-14
1.00001e-14
1.00001e-14
1.00009e-14
1.25301e-14
2.76802e-14
1e-14
1e-14
1e-14
1e-14
1e-14
1e-14
1e-14
1e-14
1e-14
1e-14
1.00001e-14
1.00001e-14
1e-14
1.02683e-14
4.90219e-14
1e-14
1e-14
1e-14
1e-14
1e-14
1.00001e-14
1e-14
1e-14
1e-14
1.00001e-14
1.00001e-14
1e-14
1.0055e-14
1e-14
1.0378e-14
1e-14
1e-14
1e-14
1e-14
1e-14
1e-14
1e-14
1e-14
1e-14
1.00001e-14
1e-14
1e-14
1.01085e-14
1e-14
1e-14
1e-14
1e-14
1e-14
1e-14
1e-14
1e-14
1e-14
1e-14
1e-14
1e-14
1e-14
1.00031e-14
1.34617e-14
1.99788e-14
1e-14
1e-14
1e-14
1e-14
1e-14
1e-14
1e-14
1e-14
1e-14
1e-14
1e-14
1.00974e-14
1.02806e-14
1e-14
1e-14
1e-14
1e-14
1e-14
1e-14
1e-14
1e-14
1e-14
1e-14
1e-14
1.00043e-14
1.60969e-14
1.57259e-14
9.25199e-13
1e-14
1e-14
1e-14
1e-14
1e-14
1e-14
1e-14
1e-14
1e-14
1e-14
1.05865e-14
1.0269e-14
1e-14
1.00001e-14
1e-14
1e-14
1.00001e-14
1.00001e-14
1e-14
1e-14
1e-14
1e-14
1.06317e-14
1e-14
4.72336e-14
1e-14
1.00001e-14
1.00001e-14
1.00001e-14
1e-14
1e-14
1e-14
1.00043e-14
1.05845e-14
1e-14
3.71314e-14
1.00001e-14
1.00001e-14
1.00001e-14
1e-14
1e-14
1.00031e-14
1.00973e-14
1.60954e-14
1.02695e-14
4.71856e-14
1.00001e-14
1.00009e-14
1e-14
1.0055e-14
1.01084e-14
1.34615e-14
1.02806e-14
1.57255e-14
1e-14
1.09398e-14
1.25315e-14
1.02687e-14
1e-14
1e-14
1.99783e-14
1e-14
9.25211e-13
1.9315e-14
2.76744e-14
4.90177e-14
1.03778e-14
1e-14
1e-14
1e-14
1e-14
1e-14
1e-14
1e-14
1e-14
1.00001e-14
1.00001e-14
1e-14
1e-14
1.00001e-14
1e-14
1.08909e-14
1.93192e-14
1e-14
1e-14
1e-14
1e-14
1e-14
1e-14
1e-14
1e-14
1e-14
1e-14
1.00001e-14
1.00001e-14
1e-14
1.2492e-14
2.76879e-14
1e-14
1e-14
1e-14
1e-14
1e-14
1e-14
1e-14
1e-14
1e-14
1e-14
1.00001e-14
1e-14
1e-14
1.02652e-14
4.92958e-14
1e-14
1e-14
1e-14
1e-14
1e-14
1e-14
1e-14
1e-14
1e-14
1.00001e-14
1.00001e-14
1e-14
1.00534e-14
1e-14
1.03733e-14
1e-14
1e-14
1e-14
1e-14
1e-14
1e-14
1e-14
1e-14
1.00001e-14
1e-14
1e-14
1e-14
1.01054e-14
1e-14
1e-14
1e-14
1e-14
1e-14
1e-14
1e-14
1e-14
1e-14
1e-14
1e-14
1e-14
1e-14
1e-14
1.34248e-14
1.9987e-14
1e-14
1e-14
1e-14
1e-14
1e-14
1e-14
1e-14
1e-14
1e-14
1e-14
1e-14
1.00944e-14
1.02741e-14
1e-14
1.00001e-14
1e-14
1e-14
1e-14
1e-14
1e-14
1e-14
1e-14
1e-14
1e-14
1e-14
1.60956e-14
1.57046e-14
9.25495e-13
1.00001e-14
1e-14
1e-14
1e-14
1.00001e-14
1e-14
1e-14
1e-14
1e-14
1e-14
1.0587e-14
1.02652e-14
1e-14
1e-14
1e-14
1e-14
1e-14
1e-14
1e-14
1e-14
1e-14
1e-14
1.06303e-14
1e-14
4.7344e-14
1e-14
1.00001e-14
1.00001e-14
1.00001e-14
1e-14
1e-14
1e-14
1e-14
1.0585e-14
1e-14
3.72212e-14
1.00001e-14
1.00001e-14
1e-14
1e-14
1e-14
1e-14
1.00944e-14
1.60939e-14
1.02657e-14
4.72961e-14
1e-14
1e-14
1e-14
1.00534e-14
1.01053e-14
1.34245e-14
1.02741e-14
1.57042e-14
1e-14
1.08917e-14
1.24943e-14
1.02657e-14
1e-14
1e-14
1.99865e-14
1e-14
9.25508e-13
1.93206e-14
2.76933e-14
4.92932e-14
1.03731e-14
1e-14
1e-14
1e-14
1e-14
1e-14
1e-14
1.00001e-14
1.00001e-14
1.00001e-14
1.00001e-14
1e-14
1e-14
1.00001e-14
1e-14
1.10405e-14
1.9285e-14
1e-14
1e-14
1e-14
1e-14
1e-14
1e-14
1e-14
1e-14
1e-14
1e-14
1e-14
1e-14
1e-14
1.26737e-14
2.77015e-14
1e-14
1e-14
1e-14
1e-14
1e-14
1e-14
1e-14
1e-14
1e-14
1e-14
1e-14
1e-14
1e-14
1.02827e-14
4.98832e-14
1e-14
1e-14
1e-14
1e-14
1e-14
1e-14
1e-14
1e-14
1e-14
1.00001e-14
1e-14
1e-14
1.0054e-14
1e-14
1.03575e-14
1e-14
1e-14
1e-14
1e-14
1e-14
1e-14
1e-14
1e-14
1e-14
1e-14
1e-14
1e-14
1.01212e-14
1e-14
1e-14
1.00001e-14
1e-14
1e-14
1e-14
1e-14
1e-14
1e-14
1e-14
1e-14
1e-14
1e-14
1e-14
1.35345e-14
1.99701e-14
1.00001e-14
1e-14
1e-14
1e-14
1e-14
1e-14
1e-14
1e-14
1e-14
1e-14
1e-14
1.0092e-14
1.02751e-14
1e-14
1.00001e-14
1e-14
1e-14
1e-14
1e-14
1e-14
1e-14
1e-14
1e-14
1.00001e-14
1e-14
1.59404e-14
1.56158e-14
9.25469e-13
1.00001e-14
1e-14
1e-14
1e-14
1e-14
1e-14
1e-14
1e-14
1.00001e-14
1e-14
1.05705e-14
1.02405e-14
1e-14
1e-14
1e-14
1e-14
1e-14
1e-14
1e-14
1e-14
1.00001e-14
1e-14
1.06219e-14
1e-14
4.72593e-14
1e-14
1e-14
1e-14
1e-14
1e-14
1e-14
1e-14
1e-14
1.05685e-14
1e-14
3.71866e-14
1.00001e-14
1e-14
1e-14
1e-14
1e-14
1e-14
1.0092e-14
1.59389e-14
1.02411e-14
4.72108e-14
1e-14
1e-14
1e-14
1.0054e-14
1.01212e-14
1.35343e-14
1.02752e-14
1.56155e-14
1e-14
1.10412e-14
1.26749e-14
1.02829e-14
1e-14
1e-14
1.99695e-14
1e-14
9.2548e-13
1.92807e-14
2.77097e-14
4.98798e-14
1.03572e-14
1e-14
1e-14
1e-14
1e-14
1e-14
1e-14
1.00001e-14
1.00001e-14
1e-14
1e-14
1e-14
1.00001e-14
1.00002e-14
1e-14
1.0618e-14
1.87476e-14
1e-14
1e-14
1e-14
1e-14
1e-14
1e-14
1e-14
1e-14
1e-14
1e-14
1e-14
1e-14
1e-14
1.22545e-14
2.74817e-14
1e-14
1e-14
1e-14
1e-14
1e-14
1e-14
1e-14
1e-14
1e-14
1e-14
1e-14
1e-14
1e-14
1.02686e-14
5.21533e-14
1e-14
1e-14
1e-14
1e-14
1e-14
1e-14
1e-14
1e-14
1e-14
1e-14
1.00001e-14
1e-14
1.00475e-14
1e-14
1.02784e-14
1e-14
1e-14
1e-14
1.00001e-14
1e-14
1e-14
1e-14
1e-14
1e-14
1e-14
1e-14
1e-14
1.00759e-14
1e-14
1e-14
1.00001e-14
1e-14
1e-14
1e-14
1e-14
1.00001e-14
1e-14
1e-14
1e-14
1.00001e-14
1e-14
1e-14
1.31384e-14
1.96984e-14
1.00001e-14
1e-14
1e-14
1e-14
1e-14
1e-14
1e-14
1e-14
1.00001e-14
1.00001e-14
1e-14
1.00818e-14
1.02379e-14
1e-14
1e-14
1e-14
1e-14
1e-14
1e-14
1e-14
1e-14
1.00001e-14
1.00001e-14
1e-14
1e-14
1.6176e-14
1.54529e-14
9.24418e-13
1e-14
1e-14
1e-14
1e-14
1e-14
1e-14
1.00001e-14
1.00001e-14
1e-14
1e-14
1.06547e-14
1.02959e-14
1e-14
1e-14
1e-14
1e-14
1e-14
1e-14
1.00001e-14
1.00001e-14
1e-14
1e-14
1.06629e-14
1e-14
4.70643e-14
1.00001e-14
1e-14
1e-14
1e-14
1e-14
1e-14
1e-14
1e-14
1.06526e-14
1e-14
3.73119e-14
1.00002e-14
1e-14
1e-14
1e-14
1e-14
1e-14
1.00818e-14
1.61746e-14
1.02963e-14
4.70137e-14
1e-14
1e-14
1e-14
1.00475e-14
1.00759e-14
1.31381e-14
1.02379e-14
1.54524e-14
1e-14
1.06183e-14
1.22548e-14
1.02687e-14
1e-14
1e-14
1.9698e-14
1e-14
9.24426e-13
1.87467e-14
2.74848e-14
5.21494e-14
1.02782e-14
1e-14
1e-14
1e-14
1.00001e-14
1.00002e-14
1.00002e-14
1.00002e-14
1.00001e-14
1e-14
1e-14
1e-14
1.00001e-14
1.00001e-14
1e-14
1.21713e-14
1.24943e-14
1e-14
1e-14
1e-14
1e-14
1e-14
1e-14
1e-14
1e-14
1e-14
1e-14
1e-14
1.00001e-14
1e-14
1.45406e-14
2.47722e-14
1.00001e-14
1e-14
1e-14
1e-14
1e-14
1e-14
1e-14
1.00001e-14
1e-14
1.00001e-14
1.00001e-14
1e-14
1e-14
1.06374e-14
5.31459e-14
1.00002e-14
1e-14
1e-14
1.00001e-14
1e-14
1e-14
1.00001e-14
1e-14
1e-14
1.00001e-14
1e-14
1e-14
1.00687e-14
1e-14
1e-14
1.00002e-14
1e-14
1e-14
1e-14
1e-14
1.00001e-14
1e-14
1e-14
1e-14
1.00001e-14
1e-14
1e-14
1.02479e-14
1e-14
1e-14
1.00002e-14
1e-14
1e-14
1e-14
1.00001e-14
1e-14
1e-14
1e-14
1.00001e-14
1e-14
1e-14
1e-14
1.49427e-14
1.86209e-14
1.00001e-14
1e-14
1e-14
1.00001e-14
1e-14
1e-14
1e-14
1.00001e-14
1e-14
1e-14
1e-14
1.00754e-14
1.03856e-14
1e-14
1e-14
1e-14
1.00001e-14
1e-14
1e-14
1e-14
1.00001e-14
1.00001e-14
1.00001e-14
1e-14
1e-14
1.65276e-14
1.67394e-14
9.0548e-13
1e-14
1e-14
1e-14
1e-14
1e-14
1.00001e-14
1e-14
1.00001e-14
1e-14
1e-14
1.0412e-14
1.03226e-14
1e-14
1e-14
1e-14
1.00001e-14
1.00001e-14
1.00001e-14
1e-14
1e-14
1e-14
1e-14
1.05062e-14
1.00252e-14
4.94408e-14
1.00001e-14
1e-14
1.00001e-14
1e-14
1e-14
1e-14
1e-14
1e-14
1.04105e-14
1.00253e-14
4.69907e-14
1.00001e-14
1.00001e-14
1e-14
1e-14
1e-14
1e-14
1.00755e-14
1.65268e-14
1.03229e-14
4.93781e-14
1e-14
1e-14
1e-14
1.00687e-14
1.02478e-14
1.49424e-14
1.03856e-14
1.67392e-14
1e-14
1.21715e-14
1.45413e-14
1.06375e-14
1e-14
1e-14
1.86207e-14
1e-14
9.05488e-13
1.24942e-14
2.47727e-14
5.31434e-14
1e-14
1e-14
1e-14
1e-14
1e-14
1.00001e-14
1.00001e-14
1.00002e-14
1e-14
1e-14
1.00001e-14
1.00001e-14
1.00001e-14
1.00001e-14
1e-14
1.07889e-14
1e-14
1e-14
1e-14
1e-14
1e-14
1e-14
1.00001e-14
1e-14
1e-14
1.00001e-14
1.00001e-14
1.00001e-14
1e-14
1e-14
1.12325e-14
1.13006e-14
1e-14
1e-14
1e-14
1e-14
1e-14
1e-14
1e-14
1e-14
1e-14
1.00001e-14
1.00001e-14
1e-14
1.00001e-14
1e-14
3.06335e-14
1.00001e-14
1e-14
1e-14
1e-14
1.00001e-14
1e-14
1e-14
1e-14
1e-14
1e-14
1e-14
1e-14
1.00185e-14
1.00948e-14
1.13001e-14
1.00001e-14
1e-14
1e-14
1.00001e-14
1.00001e-14
1e-14
1e-14
1e-14
1e-14
1e-14
1e-14
1e-14
1.00786e-14
1.04728e-14
1e-14
1.00002e-14
1.00001e-14
1e-14
1e-14
1e-14
1e-14
1.00001e-14
1e-14
1e-14
1e-14
1e-14
1e-14
1.09577e-14
1e-14
1e-14
1e-14
1e-14
1e-14
1e-14
1.00001e-14
1.00001e-14
1e-14
1e-14
1e-14
1e-14
1.00121e-14
1.0011e-14
1.35755e-14
1e-14
1e-14
1e-14
1e-14
1e-14
1e-14
1e-14
1e-14
1e-14
1e-14
1e-14
1.12998e-14
1e-14
1e-14
1.00001e-14
1.00001e-14
1e-14
1e-14
1e-14
1e-14
1e-14
1e-14
1e-14
1e-14
1.00724e-14
1e-14
1e-14
1.00001e-14
1.00001e-14
1.00001e-14
1e-14
1e-14
1e-14
1e-14
1e-14
1e-14
1.00997e-14
1.00835e-14
2.65126e-14
1.00001e-14
1.00001e-14
1e-14
1e-14
1e-14
1e-14
1e-14
1e-14
1.00721e-14
1.00832e-14
2.01536e-14
1.00001e-14
1e-14
1e-14
1e-14
1e-14
1e-14
1.00121e-14
1.12996e-14
1e-14
2.65083e-14
1e-14
1e-14
1.00001e-14
1.00185e-14
1.00786e-14
1.09577e-14
1.0011e-14
1e-14
1e-14
1.07889e-14
1.12326e-14
1e-14
1.00948e-14
1.04721e-14
1e-14
1.35754e-14
1e-14
1e-14
1.13021e-14
3.06335e-14
1.13004e-14
1e-14
1e-14
1e-14
1e-14
1.00001e-14
1.00001e-14
1.00002e-14
1e-14
1e-14
1e-14
1.00001e-14
1.00002e-14
1.00001e-14
1e-14
1.02247e-14
1e-14
1e-14
1e-14
1e-14
1e-14
1e-14
1e-14
1e-14
1e-14
1e-14
1e-14
1e-14
1e-14
1e-14
1.03426e-14
1e-14
1e-14
1e-14
1e-14
1e-14
1.00001e-14
1e-14
1e-14
1e-14
1e-14
1e-14
1e-14
1e-14
1e-14
1e-14
1.11029e-14
1.00001e-14
1e-14
1e-14
1.00001e-14
1.00001e-14
1e-14
1e-14
1e-14
1e-14
1e-14
1e-14
1e-14
1.00048e-14
1.00191e-14
1.01163e-14
1.00001e-14
1e-14
1.00001e-14
1.00001e-14
1e-14
1e-14
1e-14
1e-14
1e-14
1e-14
1e-14
1e-14
1.00221e-14
1e-14
1.00439e-14
1.00002e-14
1e-14
1e-14
1e-14
1e-14
1e-14
1e-14
1e-14
1e-14
1e-14
1e-14
1e-14
1.02199e-14
1e-14
1e-14
1e-14
1e-14
1e-14
1e-14
1e-14
1e-14
1e-14
1e-14
1e-14
1e-14
1.00016e-14
1.00125e-14
1.00538e-14
1e-14
1e-14
1e-14
1e-14
1e-14
1e-14
1e-14
1e-14
1.00001e-14
1.00001e-14
1e-14
1.0296e-14
1.00041e-14
1e-14
1e-14
1e-14
1e-14
1e-14
1e-14
1e-14
1.00001e-14
1.00001e-14
1e-14
1.00099e-14
1.00146e-14
1.00336e-14
1.00001e-14
1e-14
1e-14
1e-14
1e-14
1e-14
1e-14
1.00001e-14
1e-14
1.00176e-14
1.00034e-14
1.03521e-14
1.00002e-14
1e-14
1e-14
1e-14
1e-14
1e-14
1e-14
1e-14
1.00098e-14
1.00034e-14
1.02024e-14
1.00001e-14
1e-14
1e-14
1e-14
1e-14
1e-14
1.00016e-14
1.02959e-14
1.00146e-14
1.03517e-14
1e-14
1e-14
1e-14
1.00048e-14
1.00221e-14
1.02198e-14
1.00125e-14
1.00041e-14
1.00336e-14
1.02247e-14
1.03426e-14
1e-14
1.00191e-14
1e-14
1e-14
1.00538e-14
1e-14
1e-14
1.11029e-14
1.01163e-14
1.0044e-14
1e-14
1e-14
1e-14
1.00001e-14
1.00001e-14
1.00001e-14
1e-14
1e-14
1e-14
1e-14
1e-14
1e-14
1e-14
1.00542e-14
1.00034e-14
1e-14
1e-14
1e-14
1e-14
1e-14
1e-14
1e-14
1e-14
1e-14
1e-14
1e-14
1e-14
1e-14
1.00846e-14
1.00075e-14
1e-14
1e-14
1e-14
1.00001e-14
1e-14
1e-14
1e-14
1e-14
1e-14
1e-14
1e-14
1e-14
1e-14
1.00007e-14
1.00265e-14
1.00001e-14
1e-14
1.00001e-14
1.00001e-14
1e-14
1e-14
1e-14
1e-14
1e-14
1e-14
1e-14
1e-14
1.00012e-14
1.00015e-14
1.00019e-14
1.00001e-14
1e-14
1e-14
1e-14
1e-14
1e-14
1e-14
1e-14
1e-14
1e-14
1e-14
1e-14
1.00051e-14
1e-14
1.00004e-14
1.00001e-14
1e-14
1e-14
1e-14
1e-14
1e-14
1e-14
1e-14
1e-14
1e-14
1e-14
1e-14
1.00448e-14
1.00037e-14
1e-14
1e-14
1e-14
1e-14
1e-14
1e-14
1e-14
1e-14
1e-14
1e-14
1e-14
1.00002e-14
1.00027e-14
1.00006e-14
1e-14
1e-14
1e-14
1e-14
1e-14
1e-14
1e-14
1e-14
1e-14
1e-14
1e-14
1.00591e-14
1.00048e-14
1e-14
1e-14
1e-14
1e-14
1e-14
1e-14
1e-14
1e-14
1.00001e-14
1e-14
1.00011e-14
1.00043e-14
1.00005e-14
1e-14
1e-14
1e-14
1e-14
1e-14
1e-14
1e-14
1e-14
1e-14
1.00027e-14
1.00012e-14
1.00045e-14
1e-14
1e-14
1e-14
1e-14
1e-14
1e-14
1e-14
1e-14
1.00011e-14
1.00012e-14
1.00027e-14
1e-14
1e-14
1e-14
1e-14
1e-14
1e-14
1.00002e-14
1.00591e-14
1.00043e-14
1.00045e-14
1e-14
1e-14
1e-14
1.00012e-14
1.00051e-14
1.00448e-14
1.00027e-14
1.00048e-14
1.00005e-14
1.00542e-14
1.00846e-14
1.00007e-14
1.00015e-14
1e-14
1.00037e-14
1.00007e-14
1.00034e-14
1.00075e-14
1.00265e-14
1.00019e-14
1.00004e-14
1e-14
1e-14
1e-14
1e-14
1e-14
1e-14
1e-14
1e-14
1e-14
1e-14
1e-14
1e-14
1e-14
1.00115e-14
1.00008e-14
1e-14
1.00001e-14
1.00001e-14
1.00001e-14
1e-14
1e-14
1e-14
1e-14
1e-14
1e-14
1e-14
1e-14
1e-14
1.00183e-14
1.00014e-14
1e-14
1.00001e-14
1.00001e-14
1.00001e-14
1e-14
1e-14
1e-14
1e-14
1e-14
1e-14
1e-14
1e-14
1e-14
1.00002e-14
1.00004e-14
1e-14
1.00001e-14
1.00001e-14
1e-14
1e-14
1e-14
1e-14
1e-14
1e-14
1e-14
1e-14
1e-14
1.00003e-14
1.00001e-14
1e-14
1e-14
1e-14
1e-14
1e-14
1e-14
1e-14
1e-14
1e-14
1e-14
1e-14
1e-14
1e-14
1.0001e-14
1e-14
1e-14
1e-14
1e-14
1e-14
1e-14
1e-14
1e-14
1e-14
1e-14
1e-14
1e-14
1e-14
1e-14
1.0008e-14
1.00009e-14
1e-14
1e-14
1e-14
1e-14
1e-14
1e-14
1e-14
1e-14
1e-14
1e-14
1e-14
1e-14
1.00004e-14
1.00002e-14
1e-14
1e-14
1e-14
1e-14
1e-14
1e-14
1e-14
1e-14
1e-14
1e-14
1e-14
1.001e-14
1.00007e-14
1e-14
1e-14
1e-14
1e-14
1e-14
1e-14
1e-14
1e-14
1e-14
1e-14
1.00001e-14
1.00005e-14
1.00001e-14
1e-14
1e-14
1e-14
1e-14
1e-14
1e-14
1e-14
1e-14
1e-14
1.00004e-14
1.00001e-14
1.00001e-14
1e-14
1e-14
1e-14
1e-14
1e-14
1e-14
1e-14
1e-14
1.00001e-14
1.00001e-14
1e-14
1e-14
1e-14
1e-14
1e-14
1e-14
1e-14
1e-14
1.001e-14
1.00005e-14
1.00001e-14
1e-14
1e-14
1e-14
1.00003e-14
1.0001e-14
1.0008e-14
1.00004e-14
1.00007e-14
1.00001e-14
1.00115e-14
1.00183e-14
1.00002e-14
1.00001e-14
1e-14
1.00009e-14
1.00002e-14
1.00008e-14
1.00014e-14
1.00004e-14
1e-14
1e-14
1e-14
1.00001e-14
1.00001e-14
1.00001e-14
1e-14
1.00001e-14
1e-14
1e-14
1e-14
1e-14
1e-14
1e-14
1e-14
1.00022e-14
1e-14
1.00001e-14
1.00001e-14
1.00001e-14
1.00001e-14
1e-14
1e-14
1e-14
1e-14
1e-14
1e-14
1e-14
1e-14
1e-14
1.00035e-14
1.00002e-14
1.00001e-14
1.00001e-14
1.00001e-14
1e-14
1e-14
1e-14
1e-14
1e-14
1e-14
1e-14
1e-14
1e-14
1e-14
1.00001e-14
1e-14
1.00001e-14
1.00001e-14
1e-14
1e-14
1e-14
1e-14
1e-14
1e-14
1e-14
1e-14
1e-14
1e-14
1.00001e-14
1e-14
1e-14
1e-14
1e-14
1e-14
1e-14
1e-14
1e-14
1e-14
1e-14
1e-14
1e-14
1e-14
1e-14
1.00002e-14
1e-14
1e-14
1.00001e-14
1e-14
1e-14
1e-14
1e-14
1e-14
1e-14
1e-14
1e-14
1e-14
1e-14
1e-14
1.00012e-14
1.00002e-14
1e-14
1e-14
1e-14
1e-14
1e-14
1e-14
1e-14
1e-14
1e-14
1e-14
1e-14
1e-14
1e-14
1e-14
1e-14
1e-14
1e-14
1e-14
1e-14
1e-14
1e-14
1e-14
1e-14
1e-14
1e-14
1.00014e-14
1.00005e-14
1e-14
1e-14
1e-14
1e-14
1e-14
1e-14
1e-14
1e-14
1e-14
1e-14
1e-14
1e-14
1e-14
1e-14
1e-14
1e-14
1e-14
1e-14
1e-14
1e-14
1e-14
1e-14
1e-14
1e-14
1.00003e-14
1e-14
1e-14
1e-14
1e-14
1e-14
1e-14
1e-14
1e-14
1e-14
1e-14
1e-14
1e-14
1e-14
1e-14
1e-14
1e-14
1e-14
1e-14
1.00014e-14
1e-14
1.00003e-14
1e-14
1e-14
1e-14
1.00001e-14
1.00002e-14
1.00012e-14
1e-14
1.00005e-14
1e-14
1.00022e-14
1.00035e-14
1.00001e-14
1e-14
1e-14
1.00002e-14
1e-14
1e-14
1.00002e-14
1e-14
1e-14
1e-14
1.00002e-14
1.00002e-14
1.00001e-14
1e-14
1e-14
1e-14
1e-14
1e-14
1e-14
1e-14
1e-14
1.00001e-14
1e-14
1.00003e-14
1e-14
1.00002e-14
1.00001e-14
1.00001e-14
1e-14
1e-14
1e-14
1e-14
1e-14
1e-14
1.00001e-14
1e-14
1e-14
1e-14
1.00006e-14
1e-14
1.00001e-14
1.00001e-14
1e-14
1e-14
1e-14
1e-14
1e-14
1e-14
1e-14
1e-14
1e-14
1e-14
1e-14
1e-14
1e-14
1e-14
1e-14
1e-14
1e-14
1e-14
1e-14
1e-14
1e-14
1e-14
1e-14
1e-14
1e-14
1e-14
1e-14
1e-14
1e-14
1e-14
1e-14
1e-14
1e-14
1e-14
1e-14
1e-14
1e-14
1e-14
1e-14
1e-14
1e-14
1e-14
1.00002e-14
1e-14
1e-14
1e-14
1e-14
1e-14
1e-14
1e-14
1e-14
1e-14
1e-14
1e-14
1e-14
1.00002e-14
1.00003e-14
1e-14
1e-14
1e-14
1e-14
1e-14
1e-14
1e-14
1e-14
1e-14
1.00001e-14
1e-14
1e-14
1e-14
1e-14
1e-14
1e-14
1e-14
1e-14
1e-14
1e-14
1e-14
1e-14
1e-14
1e-14
1e-14
1.00001e-14
1.00001e-14
1e-14
1e-14
1e-14
1e-14
1e-14
1e-14
1e-14
1e-14
1e-14
1e-14
1e-14
1.00001e-14
1e-14
1e-14
1.00001e-14
1e-14
1e-14
1e-14
1e-14
1.00001e-14
1e-14
1e-14
1e-14
1e-14
1.00002e-14
1.00001e-14
1e-14
1e-14
1e-14
1e-14
1e-14
1e-14
1e-14
1e-14
1e-14
1e-14
1.00001e-14
1e-14
1e-14
1e-14
1e-14
1e-14
1e-14
1.00001e-14
1.00001e-14
1.00002e-14
1e-14
1e-14
1e-14
1e-14
1e-14
1.00002e-14
1e-14
1.00001e-14
1e-14
1.00003e-14
1.00006e-14
1e-14
1e-14
1e-14
1.00003e-14
1e-14
1e-14
1e-14
1e-14
1e-14
1.00002e-14
1e-14
1.00002e-14
1.00001e-14
1.00001e-14
1e-14
1e-14
1e-14
1e-14
1.00001e-14
1.00001e-14
1.00002e-14
1e-14
1e-14
1e-14
1.00001e-14
1.00002e-14
1.00001e-14
1e-14
1e-14
1e-14
1e-14
1e-14
1e-14
1.00001e-14
1e-14
1e-14
1e-14
1e-14
1.00001e-14
1e-14
1.00001e-14
1e-14
1e-14
1e-14
1e-14
1e-14
1e-14
1.00001e-14
1.00001e-14
1e-14
1e-14
1e-14
1e-14
1e-14
1.00001e-14
1.00001e-14
1e-14
1e-14
1e-14
1e-14
1e-14
1e-14
1.00001e-14
1e-14
1e-14
1e-14
1e-14
1e-14
1e-14
1e-14
1e-14
1e-14
1e-14
1e-14
1e-14
1e-14
1e-14
1e-14
1e-14
1e-14
1e-14
1e-14
1e-14
1e-14
1.00001e-14
1e-14
1e-14
1e-14
1e-14
1e-14
1e-14
1e-14
1e-14
1e-14
1e-14
1e-14
1e-14
1e-14
1.00004e-14
1e-14
1e-14
1e-14
1e-14
1e-14
1e-14
1e-14
1e-14
1e-14
1.00001e-14
1e-14
1e-14
1.00003e-14
1e-14
1e-14
1e-14
1.00001e-14
1.00001e-14
1e-14
1e-14
1e-14
1e-14
1e-14
1e-14
1e-14
1e-14
1.00004e-14
1.00001e-14
1.00001e-14
1.00001e-14
1e-14
1e-14
1e-14
1e-14
1e-14
1e-14
1e-14
1e-14
1e-14
1e-14
1.00001e-14
1e-14
1e-14
1e-14
1e-14
1e-14
1.00001e-14
1e-14
1e-14
1e-14
1.00001e-14
1.00004e-14
1.00002e-14
1e-14
1e-14
1e-14
1e-14
1e-14
1e-14
1e-14
1e-14
1.00001e-14
1e-14
1e-14
1e-14
1e-14
1e-14
1e-14
1e-14
1e-14
1e-14
1e-14
1.00004e-14
1e-14
1e-14
1e-14
1e-14
1e-14
1e-14
1.00003e-14
1.00004e-14
1e-14
1e-14
1.00001e-14
1e-14
1e-14
1e-14
1.00004e-14
1e-14
1.00002e-14
1e-14
1e-14
1e-14
1.00001e-14
1e-14
1.00002e-14
1.00001e-14
1.00001e-14
1e-14
1e-14
1e-14
1e-14
1e-14
1.00001e-14
1.00001e-14
1e-14
1e-14
1e-14
1e-14
1.00002e-14
1.00001e-14
1e-14
1e-14
1e-14
1e-14
1e-14
1e-14
1.00001e-14
1e-14
1e-14
1e-14
1e-14
1e-14
1.00001e-14
1.00001e-14
1e-14
1e-14
1e-14
1e-14
1e-14
1.00001e-14
1.00001e-14
1e-14
1e-14
1e-14
1e-14
1e-14
1e-14
1e-14
1.00001e-14
1e-14
1e-14
1e-14
1e-14
1.00001e-14
1.00001e-14
1e-14
1e-14
1e-14
1e-14
1e-14
1e-14
1e-14
1e-14
1e-14
1e-14
1e-14
1e-14
1.00001e-14
1e-14
1e-14
1e-14
1e-14
1e-14
1e-14
1e-14
1e-14
1e-14
1e-14
1e-14
1e-14
1e-14
1.00001e-14
1e-14
1e-14
1e-14
1e-14
1e-14
1.00001e-14
1e-14
1e-14
1e-14
1.00004e-14
1e-14
1e-14
1.00001e-14
1.00001e-14
1e-14
1e-14
1e-14
1e-14
1e-14
1e-14
1e-14
1e-14
1e-14
1e-14
1e-14
1e-14
1.00001e-14
1e-14
1e-14
1e-14
1e-14
1e-14
1e-14
1e-14
1e-14
1.00001e-14
1.00002e-14
1e-14
1.00001e-14
1e-14
1e-14
1e-14
1e-14
1e-14
1e-14
1e-14
1e-14
1.00001e-14
1.00001e-14
1e-14
1.00001e-14
1e-14
1e-14
1e-14
1e-14
1.00001e-14
1e-14
1e-14
1e-14
1e-14
1.00001e-14
1.00002e-14
1.00001e-14
1e-14
1e-14
1e-14
1e-14
1e-14
1e-14
1e-14
1.00001e-14
1.00001e-14
1.00001e-14
1e-14
1e-14
1e-14
1e-14
1e-14
1e-14
1e-14
1.00001e-14
1.00001e-14
1.00002e-14
1e-14
1e-14
1e-14
1e-14
1e-14
1e-14
1e-14
1.00002e-14
1e-14
1e-14
1e-14
1e-14
1e-14
1e-14
1.00005e-14
1e-14
1e-14
1.00001e-14
1e-14
1e-14
1e-14
3.15861e-14
6.466e-13
3.50539e-14
6.90963e-13
4.21286e-14
7.30214e-13
5.89002e-14
1.06258e-13
1.60833e-14
1.10556e-14
1.22259e-13
1.47102e-14
6.97215e-14
1.02347e-14
6.65146e-14
1.53478e-13
1.51609e-12
2.73142e-14
4.36207e-13
9.37844e-14
1.03596e-14
2.15257e-14
1.39556e-14
7.68496e-14
1.19926e-14
5.50011e-13
1.9297e-14
1.78572e-13
1.64e-13
1.3045e-12
1.07616e-14
4.63073e-14
2.4195e-14
5.4998e-13
1e-14
1.41595e-13
1.35784e-12
1.2376e-12
1.28602e-13
1.27903e-12
1.27527e-12
1.07605e-14
2.41844e-14
4.62998e-14
5.50029e-13
1.41449e-13
1.23606e-12
1.35773e-12
1.03595e-14
1.39532e-14
2.15246e-14
7.68413e-14
1.92912e-14
1.63966e-13
1.78562e-13
1e-14
1.47094e-14
1.02347e-14
6.9717e-14
6.65117e-14
2.73131e-14
9.37807e-14
4.36201e-13
1.19931e-14
5.49998e-13
1.3045e-12
3.15817e-14
3.5016e-14
6.46867e-13
6.90886e-13
4.21104e-14
5.89077e-14
7.30146e-13
1.06265e-13
1.60828e-14
1.10554e-14
1.22263e-13
1.53472e-13
1.5161e-12
4.47098e-13
2.0929e-14
4.6502e-13
2.92118e-14
6.36185e-13
3.24066e-14
6.802e-13
4.96152e-13
1.76052e-14
3.86096e-14
7.19526e-13
5.30586e-14
1e-14
9.49743e-14
1.47173e-14
1e-14
1.1157e-14
1.14145e-13
5.19688e-14
1.02938e-14
1e-14
1.33744e-14
6.29527e-14
1.02302e-14
6.18822e-14
1.3185e-12
1.46792e-13
1.50529e-12
3.06538e-13
3.57947e-14
2.5389e-14
4.32032e-13
8.69755e-14
1.11909e-14
1e-14
5.16978e-14
1.02137e-14
1.97709e-14
1.32517e-14
6.99704e-14
8.55815e-14
1.28475e-14
5.52395e-13
1e-14
5.01403e-14
1.83358e-14
1.69326e-13
1.50538e-13
1.29732e-12
2.35456e-14
1.35432e-14
3.73348e-13
1.04396e-14
4.35729e-14
2.1801e-14
5.40052e-13
1e-14
9.92328e-13
2.62038e-13
1.28218e-13
1.34115e-12
1.25577e-12
3.44134e-13
3.44153e-13
1.15627e-13
1.29252e-12
1.28849e-12
1.35471e-14
2.35438e-14
3.7335e-13
1.04385e-14
2.17859e-14
4.35672e-14
5.40082e-13
2.63056e-13
9.92442e-13
1.28085e-13
1.25426e-12
1.34107e-12
1e-14
1.1191e-14
5.16943e-14
1.02137e-14
1.32509e-14
1.97702e-14
6.99652e-14
5.01546e-14
1e-14
1.83376e-14
1.50514e-13
1.69329e-13
1e-14
1.02937e-14
5.19677e-14
1e-14
1.33736e-14
1.02302e-14
6.29492e-14
6.18782e-14
3.57924e-14
3.0654e-13
2.53881e-14
8.69717e-14
4.32031e-13
8.56063e-14
1.28473e-14
5.52395e-13
1.29733e-12
2.09164e-14
4.47374e-13
4.65144e-13
2.92096e-14
3.23748e-14
6.36453e-13
6.80144e-13
1.76051e-14
4.9625e-13
3.85946e-14
5.30669e-14
7.19475e-13
1e-14
9.49794e-14
1.47169e-14
1e-14
1.11565e-14
1.14148e-13
1.31849e-12
1.46791e-13
1.50532e-12
4.47239e-13
2.07576e-14
4.65604e-13
2.89253e-14
6.35491e-13
3.21127e-14
6.79323e-13
4.98113e-13
1.72129e-14
3.82943e-14
7.19093e-13
5.21878e-14
1e-14
9.35596e-14
1.45735e-14
1e-14
1.10901e-14
1.13927e-13
5.07385e-14
1.0329e-14
1e-14
1.31368e-14
6.21318e-14
1.02074e-14
6.04988e-14
1.3107e-12
1.47199e-13
1.50552e-12
3.0809e-13
3.5194e-14
2.51606e-14
4.32186e-13
8.6722e-14
1.09606e-14
1e-14
5.16839e-14
1.02e-14
1.98083e-14
1.30365e-14
7.01162e-14
9.58602e-14
1.34338e-14
5.49673e-13
1e-14
5.31999e-14
1.81676e-14
1.72167e-13
1.49568e-13
1.29807e-12
2.32105e-14
1.31078e-14
3.75407e-13
1.0454e-14
4.39484e-14
2.13665e-14
5.40334e-13
1e-14
9.94883e-13
2.89004e-13
1.26214e-13
1.34322e-12
1.2486e-12
3.72444e-13
3.72423e-13
1.1418e-13
1.28571e-12
1.28174e-12
1.31112e-14
2.3209e-14
3.75402e-13
1.04528e-14
2.13521e-14
4.39435e-14
5.40359e-13
2.89979e-13
9.94954e-13
1.26087e-13
1.24714e-12
1.34314e-12
1e-14
1.09607e-14
5.16814e-14
1.02e-14
1.30357e-14
1.98074e-14
7.01115e-14
5.31974e-14
1e-14
1.81678e-14
1.49554e-13
1.7217e-13
1e-14
1.03289e-14
5.07379e-14
1e-14
1.31362e-14
1.02074e-14
6.21284e-14
6.04978e-14
3.51922e-14
3.08095e-13
2.51599e-14
8.67185e-14
4.32181e-13
9.58819e-14
1.34334e-14
5.49675e-13
1.29809e-12
2.07472e-14
4.47511e-13
4.6573e-13
2.89246e-14
3.20883e-14
6.35756e-13
6.79291e-13
1.72132e-14
4.98203e-13
3.82836e-14
5.21987e-14
7.19063e-13
1e-14
9.35638e-14
1.45733e-14
1e-14
1.10898e-14
1.1393e-13
1.3107e-12
1.47198e-13
1.50551e-12
4.4772e-13
2.0845e-14
4.65996e-13
2.89696e-14
6.35433e-13
3.21739e-14
6.79299e-13
4.98797e-13
1.71781e-14
3.83852e-14
7.19207e-13
5.21994e-14
1e-14
9.37303e-14
1.45532e-14
1e-14
1.1071e-14
1.13819e-13
5.08909e-14
1.0338e-14
1e-14
1.31107e-14
6.21968e-14
1.02028e-14
6.01592e-14
1.30744e-12
1.47385e-13
1.50572e-12
3.08295e-13
3.54551e-14
2.52187e-14
4.32564e-13
8.68857e-14
1.09708e-14
1e-14
5.21505e-14
1.01922e-14
1.98871e-14
1.29931e-14
7.03558e-14
9.56551e-14
1.35499e-14
5.48481e-13
1e-14
5.40959e-14
1.81532e-14
1.73742e-13
1.49498e-13
1.29826e-12
2.33139e-14
1.3018e-14
3.75902e-13
1.04464e-14
4.4079e-14
2.13373e-14
5.40505e-13
1e-14
9.94257e-13
2.89467e-13
1.2597e-13
1.34352e-12
1.24709e-12
3.73389e-13
3.734e-13
1.14003e-13
1.28409e-12
1.28012e-12
1.30217e-14
2.33128e-14
3.7589e-13
1.04452e-14
2.1323e-14
4.40743e-14
5.40526e-13
2.9046e-13
9.94333e-13
1.25845e-13
1.2456e-12
1.34343e-12
1e-14
1.09707e-14
5.21483e-14
1.01921e-14
1.29924e-14
1.98864e-14
7.03525e-14
5.40954e-14
1e-14
1.81528e-14
1.49486e-13
1.73748e-13
1e-14
1.03379e-14
5.08905e-14
1e-14
1.311e-14
1.02027e-14
6.2193e-14
6.01575e-14
3.54533e-14
3.08299e-13
2.52179e-14
8.68827e-14
4.32561e-13
9.56771e-14
1.35502e-14
5.48481e-13
1.29825e-12
2.08363e-14
4.47988e-13
4.66138e-13
2.89746e-14
3.2171e-14
6.35714e-13
6.79326e-13
1.71799e-14
4.98891e-13
3.83879e-14
5.22165e-14
7.19219e-13
1e-14
9.3732e-14
1.45533e-14
1e-14
1.10709e-14
1.13821e-13
1.30746e-12
1.47384e-13
1.50572e-12
4.47517e-13
2.08488e-14
4.65807e-13
2.90467e-14
6.35516e-13
3.22827e-14
6.79492e-13
4.98613e-13
1.70428e-14
3.85729e-14
7.19348e-13
5.25014e-14
1e-14
9.42475e-14
1.45461e-14
1e-14
1.10855e-14
1.1361e-13
5.10316e-14
1.03344e-14
1e-14
1.30973e-14
6.23473e-14
1.01984e-14
5.96795e-14
1.30654e-12
1.47391e-13
1.50576e-12
3.08402e-13
3.53547e-14
2.52701e-14
4.33171e-13
8.70033e-14
1.10022e-14
1e-14
5.22281e-14
1.01816e-14
1.99332e-14
1.29476e-14
7.03997e-14
9.50524e-14
1.36467e-14
5.47495e-13
1e-14
5.40551e-14
1.81411e-14
1.75149e-13
1.49266e-13
1.29882e-12
2.33498e-14
1.3004e-14
3.76095e-13
1.04367e-14
4.40814e-14
2.13263e-14
5.40506e-13
1e-14
9.94235e-13
2.89168e-13
1.25986e-13
1.3434e-12
1.24675e-12
3.73169e-13
3.73162e-13
1.14035e-13
1.28366e-12
1.2797e-12
1.30079e-14
2.33493e-14
3.76079e-13
1.04355e-14
2.13119e-14
4.40776e-14
5.40527e-13
2.90141e-13
9.94303e-13
1.2586e-13
1.24529e-12
1.34333e-12
1e-14
1.10022e-14
5.22263e-14
1.01816e-14
1.2947e-14
1.99326e-14
7.03968e-14
5.4056e-14
1e-14
1.81407e-14
1.49253e-13
1.75152e-13
1e-14
1.03343e-14
5.10307e-14
1e-14
1.30966e-14
1.01983e-14
6.23437e-14
5.96741e-14
3.53537e-14
3.08406e-13
2.52695e-14
8.70005e-14
4.3317e-13
9.50682e-14
1.3647e-14
5.47494e-13
1.29881e-12
2.08494e-14
4.47721e-13
4.65949e-13
2.90341e-14
3.22986e-14
6.35483e-13
6.79564e-13
1.70512e-14
4.98701e-13
3.85871e-14
5.25205e-14
7.19394e-13
1e-14
9.42457e-14
1.45462e-14
1e-14
1.10855e-14
1.13613e-13
1.30654e-12
1.47392e-13
1.50578e-12
4.46631e-13
2.08223e-14
4.64909e-13
2.92229e-14
6.35742e-13
3.25717e-14
6.80048e-13
4.97292e-13
1.67758e-14
3.91215e-14
7.19433e-13
5.35535e-14
1e-14
9.53812e-14
1.46531e-14
1e-14
1.12179e-14
1.13603e-13
5.13979e-14
1.03232e-14
1e-14
1.30781e-14
6.3009e-14
1.01905e-14