/*--------------------------------*- C++ -*----------------------------------*\
| =========                 |                                                 |
| \\      /  F ield         | OpenFOAM: The Open Source CFD Toolbox           |
|  \\    /   O peration     | Version:  2.1.1                                 |
|   \\  /    A nd           | Web:      www.OpenFOAM.org                      |
|    \\/     M anipulation  |                                                 |
\*---------------------------------------------------------------------------*/
FoamFile
{
    version     2.0;
    format      ascii;
    class       volScalarField;
    location    "0.0045";
    object      p;
}
// * * * * * * * * * * * * * * * * * * * * * * * * * * * * * * * * * * * * * //

dimensions      [0 2 -2 0 0 0 0];

internalField   nonuniform List<scalar> 
10156
(
0.0518563
0.0518566
0.0518535
0.0518546
0.0518476
0.0518519
0.0518389
0.0518515
0.0518255
0.0518601
0.0517996
0.0518896
0.0517459
0.0519509
0.0626922
0.0518566
0.0518569
0.0518538
0.0518548
0.0518481
0.0518521
0.0518396
0.0518517
0.0518268
0.0518611
0.0518019
0.0518964
0.0517401
0.0519803
0.0630237
0.0518537
0.051854
0.0518511
0.0518522
0.051846
0.0518496
0.0518384
0.0518481
0.0518277
0.0518514
0.0518101
0.0518625
0.0517846
0.0518642
0.0611516
0.0518548
0.051855
0.0518522
0.051853
0.0518472
0.0518502
0.0518405
0.0518492
0.0518311
0.0518555
0.0518124
0.0518893
0.0517378
0.0520561
0.0639004
0.051848
0.0518484
0.0518461
0.0518473
0.0518424
0.0518455
0.051837
0.0518435
0.0518307
0.0518411
0.0518248
0.0518207
0.0518478
0.0680366
0.0581561
0.0518522
0.0518524
0.0518497
0.0518503
0.0518455
0.0518473
0.0518411
0.0518452
0.0518374
0.0518427
0.0518496
0.0518108
0.0519812
0.0612958
0.0518393
0.05184
0.0518386
0.0518406
0.0518371
0.0518412
0.051834
0.0518417
0.0518295
0.0518524
0.0517939
0.0518862
0.0695634
0.0572293
0.0518518
0.051852
0.0518483
0.0518493
0.0518436
0.0518454
0.0518419
0.0518439
0.0518354
0.0518438
0.0518048
0.0519872
0.0623909
0.051826
0.0518272
0.051828
0.0518313
0.0518308
0.0518375
0.0518295
0.0518352
0.0518441
0.051857
0.0518459
0.0697592
0.0588278
0.0518605
0.0518614
0.0518517
0.0518558
0.0518415
0.051843
0.0518531
0.0518446
0.051862
0.0516907
0.0520581
0.0653388
0.0518002
0.0518024
0.0518105
0.0518127
0.0518248
0.0518502
0.0517932
0.051808
0.0518433
0.0520921
0.0733526
0.0518901
0.0518969
0.0518629
0.0518897
0.0518211
0.0518111
0.0518863
0.051987
0.0697606
0.0653334
0.0517466
0.0517406
0.0517852
0.0517383
0.0518481
0.0519816
0.0695635
0.0623914
0.0588266
0.0519516
0.0519808
0.0518647
0.0520566
0.068037
0.0612961
0.0572294
0.0626933
0.0630249
0.0611526
0.0639011
0.0581566
0.0507858
0.0507863
0.0507834
0.050785
0.0507785
0.0507835
0.0507709
0.0507843
0.0507583
0.0507944
0.0507317
0.0508241
0.0506799
0.0508865
0.0616264
0.0507863
0.0507867
0.0507839
0.0507854
0.0507791
0.0507838
0.0507717
0.0507846
0.0507597
0.0507952
0.0507318
0.0508271
0.0506797
0.0509164
0.0619582
0.0507837
0.0507841
0.0507815
0.050783
0.0507772
0.0507814
0.0507707
0.0507811
0.0507609
0.0507857
0.0507428
0.0507971
0.0507189
0.0507994
0.060086
0.0507852
0.0507855
0.050783
0.0507841
0.0507788
0.0507823
0.050773
0.0507822
0.0507643
0.0507899
0.0507456
0.050824
0.0506718
0.0509908
0.0628352
0.050779
0.0507794
0.0507774
0.0507789
0.0507743
0.0507779
0.0507698
0.0507768
0.0507644
0.0507751
0.050759
0.0507553
0.0507817
0.0669717
0.0570908
0.0507838
0.050784
0.0507815
0.0507824
0.0507779
0.0507802
0.0507743
0.0507788
0.0507709
0.050777
0.0507834
0.0507453
0.0509153
0.0602303
0.0507714
0.0507721
0.0507709
0.0507731
0.0507699
0.0507743
0.0507673
0.0507756
0.0507632
0.0507869
0.0507278
0.0508206
0.068498
0.0561636
0.0507847
0.0507849
0.0507812
0.0507824
0.050777
0.050779
0.0507759
0.050778
0.0507694
0.0507785
0.0507393
0.0509218
0.0613254
0.0507588
0.05076
0.0507611
0.0507644
0.0507645
0.050771
0.0507634
0.0507692
0.0507786
0.0507929
0.0507846
0.0686949
0.0577624
0.0507948
0.0507955
0.0507859
0.0507902
0.0507755
0.0507774
0.0507874
0.0507787
0.0507925
0.0506264
0.0510311
0.0642789
0.0507323
0.0507323
0.0507432
0.050746
0.050759
0.0507839
0.0507273
0.0507397
0.0507781
0.0509915
0.0722937
0.0508247
0.0508277
0.0507976
0.0508244
0.0507557
0.0507456
0.0508207
0.0509216
0.0686981
0.0642756
0.0506807
0.0506804
0.0507196
0.0506724
0.0507821
0.0509156
0.0684982
0.0613257
0.0577618
0.0508872
0.0509172
0.0508001
0.0509914
0.0669722
0.0602306
0.0561638
0.0616276
0.0619596
0.0600872
0.0628361
0.0570913
0.0497159
0.0497164
0.0497138
0.0497158
0.0497097
0.0497152
0.049703
0.0497174
0.0496909
0.0497291
0.0496653
0.0497595
0.0496122
0.04982
0.0605602
0.0497164
0.0497169
0.0497144
0.0497162
0.0497104
0.0497156
0.0497039
0.0497177
0.0496924
0.0497303
0.0496702
0.0497664
0.0496047
0.0498488
0.0608922
0.0497141
0.0497146
0.0497123
0.0497141
0.0497087
0.0497134
0.0497031
0.0497141
0.049694
0.0497202
0.0496768
0.0497325
0.049651
0.0497334
0.05902
0.0497159
0.0497163
0.0497141
0.0497154
0.0497105
0.0497144
0.0497055
0.0497154
0.0496973
0.0497242
0.0496789
0.0497584
0.0496054
0.049925
0.0617695
0.0497102
0.0497107
0.0497088
0.0497106
0.0497064
0.0497103
0.0497027
0.04971
0.0496981
0.0497091
0.0496928
0.0496896
0.0497155
0.0659065
0.0560251
0.0497155
0.0497158
0.0497134
0.0497145
0.0497103
0.0497129
0.0497074
0.0497123
0.0497043
0.049711
0.049717
0.0496795
0.0498491
0.0591646
0.0497037
0.0497043
0.0497031
0.0497055
0.0497027
0.0497074
0.0497006
0.0497095
0.0496967
0.0497212
0.0496614
0.0497548
0.0674323
0.0550978
0.0497177
0.0497179
0.0497142
0.0497155
0.0497102
0.0497124
0.0497097
0.0497116
0.049703
0.0497122
0.0496726
0.0498559
0.0602596
0.0496913
0.0496925
0.0496941
0.0496973
0.0496981
0.0497044
0.0496971
0.049703
0.0497128
0.0497254
0.049714
0.0676289
0.0566968
0.0497294
0.0497305
0.0497203
0.0497244
0.0497094
0.0497114
0.0497215
0.049713
0.0497271
0.0495603
0.0499251
0.0632094
0.0496659
0.0496708
0.0496771
0.0496793
0.049693
0.0497174
0.0496614
0.0496733
0.0497179
0.0499603
0.0712252
0.0497602
0.049767
0.049733
0.049759
0.04969
0.0496799
0.049755
0.0498563
0.0676344
0.0632172
0.0496131
0.0496054
0.0496519
0.0496062
0.049716
0.0498495
0.0674327
0.06026
0.0566972
0.049821
0.0498498
0.0497344
0.0499258
0.0659071
0.059165
0.055098
0.0605616
0.0608939
0.0590215
0.0617706
0.0560258
0.0486462
0.0486469
0.0486445
0.0486467
0.0486412
0.048647
0.0486353
0.0486505
0.0486234
0.0486629
0.0485971
0.0486935
0.0485465
0.0487554
0.0594942
0.0486469
0.0486475
0.0486452
0.0486472
0.0486419
0.0486474
0.0486362
0.0486508
0.0486249
0.0486628
0.0485952
0.0486971
0.0485489
0.0487853
0.0598262
0.0486448
0.0486454
0.0486433
0.0486453
0.0486404
0.0486454
0.0486356
0.0486473
0.0486269
0.048654
0.0486088
0.0486666
0.0485857
0.0486682
0.0579539
0.0486468
0.0486473
0.0486453
0.0486469
0.0486424
0.0486466
0.0486381
0.0486486
0.0486301
0.0486581
0.0486121
0.0486926
0.0485391
0.0488593
0.0607038
0.0486416
0.0486422
0.0486405
0.0486425
0.0486387
0.0486429
0.0486356
0.0486432
0.0486316
0.048643
0.0486266
0.0486237
0.0486493
0.064841
0.0549593
0.0486472
0.0486475
0.0486455
0.0486466
0.0486429
0.0486456
0.0486405
0.0486455
0.0486378
0.0486448
0.0486506
0.0486137
0.0487829
0.0580987
0.0486357
0.0486365
0.0486356
0.0486382
0.0486356
0.0486405
0.0486337
0.0486432
0.0486305
0.0486554
0.0485951
0.048689
0.0663666
0.0540318
0.0486506
0.0486507
0.0486472
0.0486486
0.0486433
0.0486456
0.0486431
0.0486451
0.0486367
0.0486464
0.0486068
0.0487902
0.0591938
0.0486235
0.0486246
0.0486267
0.0486301
0.0486316
0.0486378
0.0486306
0.0486366
0.0486468
0.0486607
0.0486518
0.0665639
0.055631
0.0486629
0.0486624
0.0486537
0.0486581
0.0486431
0.048645
0.0486556
0.0486465
0.0486599
0.0484951
0.0488921
0.0621465
0.0485974
0.0485966
0.0486088
0.0486123
0.0486267
0.0486508
0.0485952
0.0486065
0.0486486
0.0488649
0.0701629
0.048694
0.0486978
0.048667
0.0486931
0.0486242
0.048614
0.0486891
0.0487904
0.0665686
0.0621495
0.0485478
0.0485486
0.048587
0.0485401
0.0486499
0.0487833
0.066367
0.0591942
0.0556318
0.048757
0.0487869
0.0486698
0.0488604
0.0648418
0.0580993
0.0540321
0.059496
0.0598285
0.0579559
0.0607052
0.0549602
0.0475765
0.0475774
0.0475753
0.0475777
0.0475727
0.0475788
0.0475675
0.0475836
0.0475562
0.0475978
0.0475316
0.0476287
0.0474779
0.0476874
0.0584275
0.0475774
0.0475782
0.0475761
0.0475784
0.0475735
0.0475792
0.0475685
0.0475838
0.047558
0.0475997
0.0475401
0.0476336
0.047469
0.0477156
0.0587595
0.0475757
0.0475764
0.0475745
0.0475767
0.0475722
0.0475775
0.0475682
0.0475806
0.04756
0.0475888
0.0475438
0.0476013
0.0475167
0.0476012
0.0568873
0.0475778
0.0475785
0.0475767
0.0475784
0.0475744
0.0475787
0.0475707
0.0475816
0.047563
0.0475921
0.0475455
0.0476267
0.0474725
0.0477929
0.0596376
0.0475732
0.0475739
0.0475724
0.0475746
0.0475711
0.0475754
0.0475686
0.0475766
0.047565
0.0475767
0.0475603
0.0475577
0.0475829
0.0637752
0.0538934
0.047579
0.0475794
0.0475775
0.0475788
0.0475754
0.0475782
0.0475736
0.0475787
0.0475712
0.0475785
0.0475842
0.0475476
0.0477166
0.0570328
0.0475678
0.0475688
0.0475682
0.0475708
0.0475686
0.0475736
0.047567
0.0475766
0.047564
0.0475894
0.0475287
0.0476229
0.0653007
0.0529659
0.0475836
0.0475837
0.0475804
0.0475816
0.0475766
0.0475788
0.0475766
0.0475787
0.0475703
0.0475801
0.0475403
0.0477241
0.0581278
0.0475559
0.047557
0.0475594
0.0475628
0.0475649
0.0475712
0.047564
0.0475703
0.0475807
0.0475937
0.047583
0.0654978
0.054565
0.0475967
0.0475955
0.0475873
0.0475917
0.0475767
0.0475786
0.0475893
0.0475806
0.0475945
0.0474286
0.0478022
0.0610792
0.0475301
0.0475265
0.0475413
0.0475453
0.0475604
0.0475843
0.0475288
0.0475405
0.047585
0.0478196
0.069095
0.0476281
0.0476318
0.0476012
0.0476271
0.0475581
0.047548
0.0476232
0.0477245
0.0655032
0.061085
0.0474812
0.047485
0.0475208
0.0474738
0.0475836
0.0477171
0.0653012
0.0581282
0.0545659
0.0476914
0.0477218
0.0476043
0.0477946
0.0637761
0.0570334
0.0529662
0.05843
0.0587626
0.05689
0.0596395
0.0538945
0.046507
0.0465082
0.0465062
0.046509
0.0465043
0.0465109
0.0464995
0.0465166
0.0464885
0.0465314
0.0464642
0.0465626
0.0464113
0.0466215
0.0573609
0.0465083
0.0465092
0.0465074
0.0465098
0.0465053
0.0465115
0.0465007
0.0465169
0.0464903
0.046533
0.0464721
0.0465669
0.0464037
0.0466499
0.057693
0.0465064
0.0465075
0.0465057
0.0465083
0.046504
0.0465099
0.0465004
0.0465137
0.0464926
0.0465224
0.0464765
0.0465352
0.0464502
0.0465353
0.0558209
0.0465092
0.04651
0.0465083
0.0465102
0.0465066
0.0465112
0.0465032
0.0465148
0.0464957
0.0465257
0.0464786
0.0465605
0.046406
0.0467268
0.0585712
0.0465046
0.0465056
0.0465042
0.0465066
0.0465033
0.0465081
0.0465014
0.0465098
0.0464982
0.0465103
0.0464939
0.0464915
0.0465165
0.062709
0.0528272
0.0465112
0.0465117
0.0465099
0.0465112
0.0465081
0.0465111
0.0465065
0.0465121
0.0465045
0.0465122
0.0465176
0.0464815
0.0466502
0.0559666
0.0464998
0.0465009
0.0465005
0.0465032
0.0465014
0.0465065
0.0465002
0.0465099
0.0464974
0.0465233
0.0464624
0.0465568
0.0642345
0.0518997
0.0465167
0.0465168
0.0465136
0.0465147
0.0465098
0.0465121
0.04651
0.0465124
0.0465038
0.0465137
0.046474
0.046658
0.0570616
0.0464884
0.0464898
0.0464922
0.0464955
0.0464982
0.0465045
0.0464974
0.0465037
0.0465144
0.046528
0.0465183
0.0644318
0.0534989
0.0465311
0.0465318
0.0465218
0.0465255
0.0465104
0.0465123
0.0465235
0.0465138
0.0465277
0.0463626
0.0467506
0.0600136
0.0464645
0.0464708
0.0464761
0.0464787
0.046494
0.0465178
0.0464625
0.0464739
0.0465174
0.0467404
0.0680304
0.0465631
0.0465691
0.0465358
0.046561
0.0464919
0.0464818
0.046557
0.0466583
0.0644371
0.0600186
0.0464129
0.046405
0.0464519
0.0464072
0.0465171
0.0466506
0.064235
0.0570621
0.0534999
0.0466233
0.0466521
0.0465371
0.046728
0.0627099
0.0559672
0.0519001
0.057363
0.0576958
0.0558234
0.058573
0.0528282
0.0454378
0.0454394
0.0454372
0.0454408
0.0454357
0.0454434
0.0454314
0.0454496
0.0454204
0.0454639
0.0453955
0.0454952
0.0453462
0.0455575
0.0562949
0.0454395
0.0454407
0.0454386
0.0454418
0.045437
0.0454442
0.0454328
0.0454501
0.045422
0.0454632
0.0453937
0.0454993
0.0453487
0.0455874
0.0566274
0.0454373
0.0454387
0.0454367
0.0454401
0.0454355
0.0454423
0.0454324
0.0454466
0.0454247
0.0454549
0.0454074
0.0454687
0.0453858
0.0454705
0.054755
0.0454411
0.045442
0.0454402
0.0454427
0.0454387
0.0454441
0.0454356
0.0454481
0.0454283
0.045459
0.0454113
0.0454942
0.0453397
0.045661
0.0575052
0.045436
0.0454372
0.0454356
0.0454387
0.0454352
0.0454408
0.0454338
0.0454429
0.0454311
0.0454437
0.0454273
0.0454251
0.04545
0.0616429
0.0517608
0.0454437
0.0454444
0.0454424
0.0454441
0.0454408
0.0454443
0.0454394
0.0454456
0.0454377
0.0454457
0.0454509
0.0454152
0.0455837
0.0549003
0.0454317
0.045433
0.0454325
0.0454357
0.0454338
0.0454394
0.0454332
0.0454431
0.0454305
0.0454566
0.0453957
0.0454904
0.0631682
0.0508334
0.0454499
0.0454501
0.0454467
0.0454481
0.045443
0.0454456
0.0454432
0.0454461
0.0454372
0.0454477
0.0454075
0.0455917
0.0559953
0.0454206
0.0454219
0.0454246
0.0454283
0.0454312
0.0454377
0.0454305
0.0454372
0.0454482
0.0454614
0.0454511
0.0633657
0.0524327
0.0454641
0.0454631
0.0454548
0.045459
0.0454439
0.0454458
0.0454566
0.045448
0.0454616
0.0452962
0.0456762
0.0589474
0.0453961
0.0453938
0.0454076
0.0454116
0.0454275
0.0454511
0.0453959
0.0454076
0.0454518
0.0456811
0.0669636
0.0454958
0.0455001
0.0454692
0.0454947
0.0454255
0.0454155
0.0454907
0.045592
0.063371
0.0589525
0.0453473
0.0453498
0.0453869
0.0453405
0.0454506
0.0455841
0.0631687
0.0559957
0.0524337
0.0455587
0.0455887
0.0454717
0.0456619
0.0616436
0.0549009
0.0508338
0.0562965
0.0566294
0.0547569
0.0575065
0.0517617
0.0443689
0.0443707
0.0443683
0.0443727
0.044367
0.0443761
0.0443632
0.0443828
0.0443527
0.0443974
0.0443286
0.0444288
0.0442794
0.0444913
0.0552287
0.0443708
0.0443723
0.04437
0.044374
0.0443685
0.044377
0.0443648
0.0443833
0.0443543
0.0443966
0.0443268
0.0444334
0.0442816
0.0445213
0.0555613
0.0443685
0.0443701
0.0443679
0.044372
0.0443669
0.044375
0.0443643
0.0443797
0.0443571
0.0443883
0.0443403
0.0444025
0.0443192
0.0444044
0.0536889
0.044373
0.0443741
0.0443721
0.0443752
0.0443707
0.0443772
0.044368
0.0443815
0.0443611
0.0443925
0.0443443
0.0444279
0.0442731
0.0445948
0.056439
0.0443672
0.0443687
0.044367
0.0443708
0.0443668
0.0443735
0.0443661
0.044376
0.0443639
0.0443771
0.0443607
0.0443587
0.0443835
0.0605768
0.0506945
0.0443765
0.0443772
0.0443751
0.0443773
0.0443735
0.0443777
0.0443723
0.0443792
0.0443708
0.0443793
0.0443841
0.0443489
0.0445171
0.053834
0.0443636
0.044365
0.0443645
0.0443681
0.0443661
0.0443723
0.044366
0.0443763
0.0443635
0.0443903
0.0443291
0.044424
0.0621017
0.0497671
0.0443831
0.0443835
0.0443798
0.0443816
0.0443761
0.0443793
0.0443763
0.0443797
0.0443705
0.0443813
0.044341
0.0445253
0.0549289
0.0443531
0.0443545
0.0443572
0.0443612
0.044364
0.0443709
0.0443636
0.0443704
0.0443819
0.044395
0.0443851
0.0622994
0.0513663
0.0443978
0.0443968
0.0443885
0.0443927
0.0443773
0.0443795
0.0443906
0.0443811
0.0443949
0.04423
0.0446138
0.0578811
0.0443292
0.0443272
0.0443407
0.0443446
0.0443609
0.0443844
0.0443293
0.0443409
0.0443851
0.0446111
0.0658976
0.0444294
0.0444341
0.044403
0.0444283
0.0443591
0.0443492
0.0444243
0.0445256
0.0623047
0.0578862
0.0442802
0.0442823
0.0443199
0.0442737
0.0443839
0.0445174
0.0621022
0.0549293
0.0513673
0.0444921
0.0445221
0.0444051
0.0445954
0.0605773
0.0538344
0.0497673
0.05523
0.0555629
0.0536903
0.0564399
0.0506951
0.0433001
0.0433021
0.0432995
0.0433047
0.0432984
0.0433087
0.0432951
0.043316
0.0432853
0.0433314
0.0432623
0.0433636
0.0432117
0.0434236
0.0541621
0.0433023
0.043304
0.0433015
0.0433061
0.0433002
0.0433098
0.0432968
0.0433166
0.0432872
0.0433323
0.0432684
0.0433689
0.0432054
0.0434523
0.0544945
0.0432997
0.0433016
0.0432992
0.0433041
0.0432985
0.0433076
0.0432963
0.0433129
0.0432898
0.0433225
0.0432747
0.0433365
0.0432508
0.0433372
0.0526222
0.0433049
0.0433063
0.0433042
0.0433077
0.0433029
0.0433102
0.0433004
0.043315
0.043294
0.0433262
0.0432775
0.0433616
0.0432064
0.0435281
0.0553724
0.0432987
0.0433003
0.0432986
0.0433029
0.0432988
0.0433062
0.0432983
0.0433092
0.0432967
0.0433105
0.043294
0.0432924
0.0433169
0.0595103
0.049628
0.0433091
0.04331
0.0433078
0.0433103
0.0433062
0.0433111
0.0433051
0.0433128
0.043304
0.043313
0.0433174
0.0432825
0.0434504
0.0527675
0.0432955
0.0432971
0.0432965
0.0433005
0.0432983
0.0433051
0.0432987
0.0433094
0.0432964
0.043324
0.0432624
0.0433576
0.0610352
0.0487004
0.0433164
0.0433169
0.0433131
0.0433152
0.0433094
0.0433129
0.0433095
0.0433135
0.0433038
0.0433147
0.0432743
0.0434589
0.0538623
0.0432858
0.0432875
0.04329
0.0432941
0.0432968
0.043304
0.0432965
0.0433039
0.0433155
0.0433284
0.0433184
0.0612329
0.0502997
0.0433319
0.0433326
0.0433228
0.0433264
0.0433107
0.0433131
0.0433237
0.0433152
0.0433286
0.0431636
0.043545
0.0568148
0.0432629
0.0432689
0.0432751
0.0432778
0.0432942
0.0433176
0.0432625
0.0432744
0.0433188
0.0435466
0.0648312
0.0433642
0.0433694
0.043337
0.043362
0.0432927
0.0432828
0.0433578
0.0434591
0.0612382
0.0568199
0.0432124
0.043206
0.0432513
0.0432069
0.0433173
0.0434507
0.0610356
0.0538627
0.0503007
0.0434243
0.0434529
0.0433378
0.0435286
0.0595108
0.0527678
0.0487006
0.0541632
0.0544958
0.0526233
0.0553731
0.0496285
0.0422315
0.0422336
0.0422309
0.0422367
0.04223
0.0422414
0.042227
0.0422493
0.0422178
0.0422645
0.0421946
0.0422963
0.0421457
0.0423584
0.0530958
0.0422338
0.0422357
0.0422331
0.0422383
0.042232
0.0422426
0.0422289
0.04225
0.0422197
0.0422644
0.0421942
0.0422998
0.0421476
0.0423879
0.053428
0.0422311
0.0422332
0.0422307
0.0422361
0.0422303
0.0422403
0.0422283
0.0422462
0.0422223
0.0422557
0.0422069
0.0422698
0.0421852
0.0422712
0.0515556
0.0422369
0.0422385
0.0422362
0.0422403
0.0422351
0.0422432
0.0422328
0.0422485
0.0422268
0.0422597
0.0422105
0.0422951
0.0421397
0.0424618
0.0543058
0.0422303
0.0422321
0.0422304
0.0422351
0.0422308
0.0422389
0.0422305
0.0422425
0.0422293
0.042244
0.0422276
0.0422257
0.0422503
0.0584439
0.0485615
0.0422418
0.0422428
0.0422405
0.0422433
0.0422389
0.0422443
0.0422379
0.0422464
0.0422371
0.0422465
0.0422507
0.042216
0.0423838
0.051701
0.0422274
0.0422291
0.0422285
0.0422329
0.0422305
0.0422379
0.0422313
0.0422426
0.0422293
0.0422571
0.0421956
0.0422911
0.0599686
0.0476338
0.0422497
0.0422503
0.0422465
0.0422487
0.0422426
0.0422464
0.0422427
0.0422472
0.0422372
0.0422486
0.0422078
0.0423923
0.0527957
0.0422182
0.04222
0.0422226
0.042227
0.0422294
0.0422373
0.0422295
0.0422371
0.0422488
0.0422621
0.042252
0.0601665
0.0492331
0.042265
0.0422647
0.042256
0.0422599
0.0422442
0.0422468
0.0422578
0.0422481
0.0422619
0.0420972
0.0424803
0.0557485
0.0421951
0.0421946
0.0422072
0.0422108
0.0422278
0.0422509
0.0421959
0.0422077
0.042252
0.0424786
0.063765
0.0422969
0.0423002
0.0422702
0.0422954
0.0422259
0.0422163
0.0422912
0.0423926
0.0601717
0.0557534
0.0421463
0.0421481
0.0421857
0.04214
0.0422505
0.042384
0.059969
0.0527961
0.049234
0.042359
0.0423884
0.0422717
0.0424622
0.0584442
0.0517012
0.0476339
0.0530967
0.053429
0.0515565
0.0543064
0.0485619
0.0411631
0.0411653
0.0411625
0.0411688
0.0411618
0.0411741
0.0411589
0.0411826
0.0411503
0.0411982
0.0411282
0.0412306
0.0410783
0.0412909
0.0520289
0.0411654
0.0411675
0.0411648
0.0411705
0.0411638
0.0411753
0.0411608
0.0411833
0.0411525
0.0411992
0.0411342
0.0412357
0.0410723
0.0413194
0.0523612
0.0411626
0.0411648
0.0411623
0.0411682
0.041162
0.0411729
0.0411603
0.0411794
0.041155
0.0411895
0.0411409
0.0412036
0.0411173
0.0412042
0.0504889
0.041169
0.0411707
0.0411683
0.0411728
0.0411673
0.0411761
0.0411652
0.0411819
0.0411596
0.0411932
0.0411437
0.0412287
0.041073
0.0413951
0.0532392
0.041162
0.041164
0.0411622
0.0411673
0.0411629
0.0411716
0.0411628
0.0411756
0.041162
0.0411774
0.0411606
0.0411594
0.0411837
0.0573773
0.047495
0.0411744
0.0411755
0.0411731
0.0411762
0.0411716
0.0411775
0.0411708
0.0411798
0.0411704
0.04118
0.041184
0.0411496
0.0413172
0.0506344
0.0411593
0.0411611
0.0411605
0.0411653
0.0411629
0.0411708
0.0411638
0.0411759
0.0411623
0.0411911
0.041129
0.0412246
0.058902
0.0465671
0.041183
0.0411836
0.0411797
0.041182
0.0411757
0.0411798
0.0411759
0.0411807
0.0411703
0.0411816
0.0411411
0.0413259
0.0517292
0.0411508
0.0411528
0.0411552
0.0411598
0.0411621
0.0411704
0.0411623
0.0411705
0.0411821
0.0411954
0.0411852
0.0590999
0.0481664
0.0411986
0.0411996
0.0411898
0.0411934
0.0411776
0.04118
0.0411906
0.0411823
0.0411955
0.0410307
0.041412
0.0546818
0.0411287
0.0411346
0.0411412
0.0411439
0.0411607
0.0411841
0.041129
0.0411412
0.0411856
0.0414136
0.0626982
0.0412311
0.041236
0.041204
0.041229
0.0411596
0.0411498
0.0412247
0.0413261
0.0591052
0.054687
0.0410788
0.0410727
0.0411177
0.0410733
0.0411839
0.0413173
0.0589023
0.0517295
0.0481673
0.0412913
0.0413198
0.0412046
0.0413954
0.0573776
0.0506346
0.0465672
0.0520298
0.0523621
0.0504897
0.0532397
0.0474953
0.0400947
0.0400971
0.0400942
0.0401009
0.0400936
0.0401067
0.0400909
0.0401156
0.0400828
0.0401311
0.0400606
0.0401633
0.0400123
0.0402255
0.0509624
0.0400972
0.0400994
0.0400966
0.0401027
0.0400957
0.040108
0.040093
0.0401164
0.040085
0.0401311
0.0400606
0.0401669
0.0400138
0.0402548
0.0512947
0.0400943
0.0400966
0.040094
0.0401004
0.0400939
0.0401056
0.0400925
0.0401125
0.0400875
0.0401226
0.0400731
0.0401368
0.0400517
0.0401383
0.0494223
0.0401012
0.0401029
0.0401004
0.0401052
0.0400995
0.040109
0.0400976
0.0401151
0.0400924
0.0401265
0.0400767
0.0401621
0.0400063
0.0403287
0.0521726
0.0400938
0.0400959
0.040094
0.0400995
0.0400951
0.0401042
0.0400952
0.0401087
0.0400948
0.0401108
0.0400941
0.0400926
0.040117
0.0563108
0.0464285
0.0401071
0.0401082
0.0401057
0.0401091
0.0401043
0.0401106
0.0401037
0.0401131
0.0401035
0.0401133
0.0401174
0.0400831
0.0402507
0.0495679
0.0400913
0.0400932
0.0400926
0.0400977
0.0400953
0.0401037
0.0400963
0.0401091
0.0400952
0.0401242
0.0400621
0.0401581
0.0578354
0.0455007
0.040116
0.0401167
0.0401128
0.0401152
0.0401088
0.0401131
0.0401091
0.0401141
0.0401037
0.0401155
0.0400746
0.0402596
0.0506627
0.0400832
0.0400852
0.0400877
0.0400926
0.0400949
0.0401035
0.0400953
0.0401036
0.0401153
0.040129
0.0401188
0.0580335
0.0471
0.0401316
0.0401314
0.0401228
0.0401267
0.040111
0.0401134
0.0401246
0.0401151
0.0401288
0.0399643
0.0403477
0.0536156
0.040061
0.0400609
0.0400733
0.0400769
0.0400942
0.0401174
0.0400623
0.0400744
0.0401187
0.0403449
0.061632
0.0401637
0.0401672
0.0401371
0.0401623
0.0400928
0.0400832
0.0401582
0.0402597
0.0580387
0.0536203
0.0400127
0.0400142
0.040052
0.0400065
0.0401172
0.0402508
0.0578357
0.050663
0.0471009
0.0402259
0.0402551
0.0401385
0.0403289
0.0563109
0.049568
0.0455007
0.0509631
0.0512955
0.049423
0.052173
0.0464286
0.0390264
0.0390289
0.039026
0.0390331
0.0390256
0.0390393
0.0390231
0.0390486
0.0390155
0.0390647
0.0389942
0.0390976
0.038945
0.039158
0.0498956
0.039029
0.0390313
0.0390285
0.039035
0.0390278
0.0390406
0.0390252
0.0390494
0.0390178
0.0390657
0.0390001
0.0391022
0.0389396
0.0391865
0.050228
0.0390261
0.0390285
0.0390258
0.0390325
0.039026
0.0390382
0.0390248
0.0390455
0.0390202
0.0390562
0.039007
0.0390705
0.0389841
0.0390713
0.0483557
0.0390333
0.0390351
0.0390326
0.0390377
0.0390318
0.0390418
0.0390302
0.0390482
0.0390253
0.0390598
0.0390099
0.0390956
0.0389398
0.039262
0.0511061
0.0390258
0.0390279
0.039026
0.0390318
0.0390273
0.039037
0.0390277
0.0390418
0.0390275
0.0390442
0.0390272
0.0390262
0.0390505
0.0552442
0.045362
0.0390396
0.0390408
0.0390384
0.0390419
0.039037
0.0390436
0.0390366
0.0390463
0.0390366
0.0390465
0.0390508
0.0390167
0.0391843
0.0485015
0.0390234
0.0390254
0.0390249
0.0390302
0.0390277
0.0390366
0.039029
0.0390422
0.0390281
0.0390578
0.0389954
0.0390917
0.056769
0.0444345
0.039049
0.0390496
0.0390457
0.0390483
0.0390419
0.0390463
0.0390422
0.0390475
0.0390369
0.0390488
0.0390079
0.0391934
0.0495963
0.0390159
0.0390181
0.0390204
0.0390254
0.0390276
0.0390366
0.0390281
0.0390368
0.0390485
0.0390623
0.0390517
0.056967
0.046034
0.0390651
0.039066
0.0390564
0.03906
0.0390442
0.0390466
0.0390576
0.039049
0.0390624
0.0388976
0.0392771
0.0525487
0.0389946
0.0390003
0.0390072
0.03901
0.0390272
0.0390507
0.0389954
0.0390078
0.0390523
0.0392817
0.0605649
0.039098
0.0391024
0.0390707
0.0390957
0.0390263
0.0390167
0.0390917
0.0391934
0.0569722
0.0525542
0.0389453
0.0389398
0.0389843
0.03894
0.0390506
0.0391843
0.0567691
0.0495965
0.0460347
0.0391583
0.0391867
0.0390715
0.0392621
0.0552443
0.0485015
0.0444345
0.0498962
0.0502286
0.0483562
0.0511064
0.0453621
0.0379582
0.0379609
0.0379579
0.0379653
0.0379576
0.0379719
0.0379554
0.0379815
0.0379481
0.0379976
0.0379269
0.0380301
0.0378788
0.0380925
0.0488293
0.037961
0.0379633
0.0379604
0.0379672
0.0379599
0.0379732
0.0379576
0.0379823
0.0379504
0.0379975
0.0379272
0.038034
0.0378798
0.0381215
0.0491615
0.037958
0.0379604
0.0379577
0.0379648
0.0379581
0.0379708
0.0379571
0.0379785
0.0379528
0.037989
0.0379392
0.0380037
0.0379184
0.0380053
0.0472892
0.0379655
0.0379673
0.0379648
0.0379702
0.0379642
0.0379746
0.0379627
0.0379812
0.0379581
0.0379929
0.037943
0.0380289
0.0378734
0.0381955
0.0500396
0.0379578
0.03796
0.0379582
0.0379642
0.0379596
0.0379696
0.0379602
0.0379748
0.0379602
0.0379774
0.0379603
0.0379597
0.037984
0.0541777
0.0442956
0.0379722
0.0379733
0.0379709
0.0379747
0.0379697
0.0379765
0.0379694
0.0379794
0.0379696
0.0379798
0.0379841
0.0379502
0.038118
0.0474352
0.0379557
0.0379578
0.0379573
0.0379628
0.0379602
0.0379694
0.0379616
0.0379753
0.037961
0.0379912
0.0379286
0.0380253
0.0557024
0.0433683
0.0379819
0.0379825
0.0379787
0.0379813
0.0379748
0.0379795
0.0379753
0.0379809
0.03797
0.0379824
0.0379414
0.0381272
0.0485299
0.0379485
0.0379506
0.0379529
0.0379582
0.0379602
0.0379696
0.037961
0.0379699
0.0379816
0.037996
0.0379857
0.0559007
0.0449678
0.037998
0.0379977
0.0379892
0.037993
0.0379775
0.0379797
0.0379912
0.0379822
0.0379955
0.0378312
0.038219
0.0514832
0.0379273
0.0379274
0.0379394
0.037943
0.0379603
0.037984
0.0379285
0.037941
0.0379846
0.0382075
0.0594991
0.0380305
0.0380342
0.0380038
0.0380289
0.0379596
0.0379501
0.0380252
0.0381271
0.0559056
0.0514866
0.0378791
0.03788
0.0379185
0.0378734
0.0379839
0.0381178
0.0557024
0.0485299
0.0449684
0.0380927
0.0381216
0.0380053
0.0381955
0.0541776
0.0474351
0.0433681
0.0488298
0.0491621
0.0472897
0.0500399
0.0442956
0.0368901
0.0368928
0.0368898
0.0368975
0.0368897
0.0369045
0.0368878
0.0369143
0.0368808
0.0369307
0.0368601
0.0369639
0.0368118
0.0370252
0.0477627
0.0368929
0.0368952
0.0368924
0.0368994
0.0368921
0.0369057
0.03689
0.036915
0.0368831
0.0369314
0.0368654
0.0369677
0.0368077
0.0370535
0.048095
0.0368899
0.0368924
0.0368898
0.036897
0.0368903
0.0369034
0.0368895
0.0369113
0.0368854
0.0369223
0.0368728
0.0369369
0.036851
0.0369384
0.0462226
0.0368976
0.0368995
0.036897
0.0369026
0.0368965
0.0369073
0.0368952
0.0369141
0.0368909
0.036926
0.0368761
0.036962
0.0368068
0.0371287
0.0489732
0.0368898
0.0368921
0.0368904
0.0368966
0.036892
0.0369022
0.0368927
0.0369077
0.0368929
0.0369107
0.0368934
0.036893
0.0369174
0.0531111
0.0432292
0.0369046
0.0369058
0.0369035
0.0369074
0.0369023
0.0369094
0.0369022
0.0369125
0.0369026
0.036913
0.0369175
0.0368838
0.0370519
0.0463687
0.036888
0.0368901
0.0368896
0.0368953
0.0368928
0.0369022
0.0368943
0.0369083
0.0368939
0.0369246
0.0368617
0.036959
0.0546357
0.042302
0.0369147
0.0369152
0.0369115
0.0369142
0.0369077
0.0369125
0.0369082
0.0369142
0.0369031
0.0369158
0.0368744
0.0370612
0.0474636
0.0368812
0.0368833
0.0368856
0.0368909
0.0368929
0.0369025
0.0368938
0.036903
0.0369146
0.0369286
0.0369169
0.0548341
0.0439013
0.0369312
0.0369316
0.0369224
0.036926
0.0369106
0.0369129
0.0369244
0.0369159
0.0369294
0.0367643
0.0371329
0.0504141
0.0368605
0.0368656
0.0368729
0.0368761
0.0368933
0.0369172
0.0368615
0.0368743
0.0369194
0.0371579
0.0584305
0.0369641
0.0369678
0.036937
0.036962
0.0368929
0.0368836
0.0369587
0.037061
0.0548395
0.0504223
0.0368119
0.0368077
0.036851
0.0368068
0.0369173
0.0370516
0.0546356
0.0474634
0.0439018
0.0370252
0.0370535
0.0369384
0.0371287
0.053111
0.0463685
0.0423016
0.0477631
0.0480954
0.046223
0.0489734
0.0432291
0.0358221
0.0358248
0.0358218
0.0358297
0.0358219
0.035837
0.0358201
0.0358469
0.0358133
0.0358632
0.0357932
0.0358955
0.0357453
0.0359596
0.0466964
0.0358248
0.0358272
0.0358244
0.0358317
0.0358243
0.0358382
0.0358223
0.0358475
0.0358155
0.0358627
0.0357934
0.0359005
0.0357459
0.0359878
0.0470286
0.0358218
0.0358243
0.0358219
0.0358292
0.0358226
0.0358358
0.0358219
0.035844
0.0358179
0.0358548
0.0358051
0.0358699
0.0357854
0.0358721
0.0451562
0.0358297
0.0358316
0.0358292
0.035835
0.0358288
0.0358399
0.0358277
0.0358469
0.0358236
0.0358587
0.0358092
0.035895
0.0357413
0.0360613
0.0479068
0.0358219
0.0358242
0.0358226
0.0358289
0.0358244
0.0358348
0.0358254
0.0358404
0.0358256
0.0358437
0.0358264
0.0358264
0.0358511
0.0520445
0.0421628
0.0358371
0.0358382
0.0358359
0.03584
0.0358349
0.0358422
0.0358349
0.0358455
0.0358355
0.0358462
0.0358508
0.0358174
0.0359865
0.0453027
0.0358204
0.0358225
0.0358221
0.0358278
0.0358254
0.0358349
0.035827
0.0358412
0.0358266
0.0358579
0.0357948
0.035893
0.0535693
0.0412362
0.0358473
0.0358478
0.0358442
0.035847
0.0358405
0.0358455
0.0358411
0.0358476
0.0358361
0.0358499
0.035808
0.0359963
0.0463974
0.0358138
0.0358158
0.0358181
0.0358236
0.0358255
0.0358354
0.0358265
0.0358358
0.0358474
0.0358635
0.0358542
0.0537691
0.0428354
0.0358637
0.0358629
0.0358549
0.0358587
0.0358436
0.035846
0.0358576
0.0358492
0.0358614
0.0356989
0.036106
0.0493537
0.0357934
0.0357935
0.0358052
0.0358091
0.0358262
0.0358504
0.0357944
0.0358068
0.0358484
0.0360552
0.0573683
0.0358959
0.0359005
0.0358699
0.0358949
0.0358262
0.0358171
0.0358924
0.0359955
0.0537725
0.049351
0.0357453
0.0357459
0.0357853
0.0357411
0.0358508
0.035986
0.053569
0.0463969
0.0428354
0.0359594
0.0359877
0.035872
0.0360611
0.0520442
0.0453023
0.0412356
0.0466965
0.0470289
0.0451565
0.0479068
0.0421625
0.0347542
0.0347567
0.0347538
0.0347619
0.0347542
0.0347694
0.0347526
0.0347794
0.0347459
0.0347955
0.0347255
0.0348279
0.0346786
0.034894
0.0456306
0.0347567
0.0347592
0.0347563
0.0347639