/*--------------------------------*- C++ -*----------------------------------*\
| =========                 |                                                 |
| \\      /  F ield         | OpenFOAM: The Open Source CFD Toolbox           |
|  \\    /   O peration     | Version:  2.1.1                                 |
|   \\  /    A nd           | Web:      www.OpenFOAM.org                      |
|    \\/     M anipulation  |                                                 |
\*---------------------------------------------------------------------------*/
FoamFile
{
    version     2.0;
    format      ascii;
    class       surfaceScalarField;
    location    "0.0045";
    object      phi;
}
// * * * * * * * * * * * * * * * * * * * * * * * * * * * * * * * * * * * * * //

dimensions      [0 3 -1 0 0 0 0];

internalField   nonuniform List<scalar> 
28985
(
4.19981e-14
4.35306e-14
1.14878e-09
-1.14887e-09
8.49864e-14
4.50972e-14
1.14786e-09
-1.14795e-09
1.31468e-13
4.13718e-14
1.14666e-09
-1.14675e-09
1.66799e-13
4.37403e-14
1.14542e-09
-1.1455e-09
2.09165e-13
3.10051e-14
1.14421e-09
-1.14429e-09
2.25076e-13
3.88187e-14
1.14301e-09
-1.14306e-09
2.61659e-13
1.08143e-14
1.14178e-09
-1.14182e-09
2.37282e-13
4.55726e-14
1.14034e-09
-1.14036e-09
2.87062e-13
-3.7392e-14
1.13851e-09
-1.13852e-09
1.727e-13
9.779e-14
1.13538e-09
-1.13536e-09
2.86322e-13
-1.38435e-13
1.13047e-09
-1.13044e-09
3.84842e-15
2.31055e-13
1.12893e-09
-1.12888e-09
2.26942e-13
-2.67906e-13
1.1257e-09
-1.12565e-09
6.19531e-11
2.01833e-13
8.72024e-10
6.27948e-11
-6.19653e-11
-6.28098e-11
-8.71968e-10
1.43272e-11
-1.0709e-12
9.86834e-11
-4.99784e-11
4.31568e-14
8.65307e-14
1.14787e-09
-1.14797e-09
8.59651e-14
8.80916e-14
1.14729e-09
-1.14738e-09
1.30892e-13
8.15349e-14
1.14622e-09
-1.14631e-09
1.65891e-13
8.48468e-14
1.14506e-09
-1.14514e-09
2.05429e-13
6.41705e-14
1.14386e-09
-1.14393e-09
2.19924e-13
8.12479e-14
1.14266e-09
-1.14271e-09
2.52557e-13
2.74655e-14
1.1415e-09
-1.14155e-09
2.2586e-13
9.67472e-14
1.14033e-09
-1.14036e-09
2.67924e-13
-6.05038e-14
1.13916e-09
-1.13918e-09
1.14539e-13
2.40026e-13
1.1374e-09
-1.13739e-09
2.49637e-13
-2.83016e-13
1.13483e-09
-1.13482e-09
-1.80174e-13
6.15073e-13
1.13727e-09
-1.13722e-09
1.08553e-13
-5.95577e-13
1.13984e-09
-1.1398e-09
6.46885e-11
3.1383e-14
8.78391e-10
6.60451e-11
-6.45436e-11
-6.59593e-11
-8.78342e-10
9.42959e-13
1.41759e-11
1.50859e-12
9.65197e-11
-4.84583e-11
4.13017e-14
1.32992e-13
1.14667e-09
-1.14676e-09
8.1403e-14
1.32866e-13
1.14632e-09
-1.14641e-09
1.22547e-13
1.22921e-13
1.14547e-09
-1.14555e-09
1.58009e-13
1.23617e-13
1.14435e-09
-1.14442e-09
1.9519e-13
9.57361e-14
1.1432e-09
-1.14327e-09
2.18114e-13
1.10373e-13
1.14206e-09
-1.14211e-09
2.47129e-13
4.31307e-14
1.14105e-09
-1.14109e-09
2.47226e-13
1.14158e-13
1.14024e-09
-1.14026e-09
2.77669e-13
-7.45622e-14
1.13987e-09
-1.13988e-09
2.8921e-13
2.14399e-13
1.13959e-09
-1.13958e-09
3.07866e-13
-3.19334e-13
1.1405e-09
-1.14048e-09
1.88922e-13
6.84963e-13
1.15481e-09
-1.15476e-09
2.8706e-13
-7.43787e-13
1.18683e-09
-1.18678e-09
5.74765e-11
8.4994e-13
9.74216e-10
4.00843e-11
-5.73906e-11
-4.07612e-11
-9.74156e-10
-4.36095e-12
8.44812e-12
1.02061e-12
1.11754e-10
-5.93851e-11
4.26994e-14
1.68011e-13
1.14543e-09
-1.14551e-09
8.39101e-14
1.67437e-13
1.14511e-09
-1.14518e-09
1.22604e-13
1.58168e-13
1.14445e-09
-1.14452e-09
1.55405e-13
1.56158e-13
1.14343e-09
-1.14349e-09
1.83509e-13
1.26708e-13
1.14215e-09
-1.14221e-09
1.99209e-13
1.3795e-13
1.14094e-09
-1.14099e-09
2.181e-13
6.03657e-14
1.13994e-09
-1.13998e-09
2.04265e-13
1.38396e-13
1.13926e-09
-1.13927e-09
2.21449e-13
-8.20256e-14
1.13916e-09
-1.13917e-09
1.19156e-13
3.00017e-13
1.13942e-09
-1.1394e-09
3.15395e-13
-5.42224e-13
1.14436e-09
-1.14433e-09
-8.3847e-13
1.79092e-12
1.16981e-09
-1.16976e-09
3.21249e-13
-1.95779e-12
1.16275e-09
-1.16269e-09
4.26862e-11
4.44508e-11
7.61787e-10
4.82996e-11
-4.23497e-11
-4.82026e-11
5.77866e-11
-4.4894e-11
-5.66511e-11
-7.61741e-10
7.68681e-12
-6.93747e-12
7.89964e-11
-3.70598e-11
3.21277e-14
2.10461e-13
1.14421e-09
-1.14428e-09
6.52018e-14
2.06797e-13
1.14387e-09
-1.14394e-09
9.63632e-14
1.955e-13
1.14323e-09
-1.14329e-09
1.27338e-13
1.84142e-13
1.14223e-09
-1.14229e-09
1.53366e-13
1.53002e-13
1.1409e-09
-1.14095e-09
1.83528e-13
1.45534e-13
1.13945e-09
-1.13948e-09
1.9857e-13
7.37109e-14
1.13809e-09
-1.13812e-09
2.43742e-13
1.00725e-13
1.13709e-09
-1.13709e-09
2.43966e-13
-8.334e-14
1.13648e-09
-1.13648e-09
5.26487e-13
-7.11591e-15
1.13678e-09
-1.13675e-09
7.21442e-14
-1.16422e-13
1.1471e-09
-1.14707e-09
1.33725e-12
4.76647e-13
1.15658e-09
-1.15653e-09
4.65805e-11
8.31046e-13
9.01491e-10
5.50199e-11
-4.79194e-11
-5.51711e-11
-9.01451e-10
1.35081e-11
7.01008e-12
1.34718e-10
-6.42047e-11
-3.43641e-12
-6.49421e-12
2.0216e-11
-1.02854e-11
3.84071e-14
2.26069e-13
1.143e-09
-1.14305e-09
8.08005e-14
2.20903e-13
1.14266e-09
-1.14271e-09
1.09772e-13
2.18193e-13
1.14207e-09
-1.14212e-09
1.37582e-13
1.99368e-13
1.14097e-09
-1.14101e-09
1.45216e-13
1.82848e-13
1.13946e-09
-1.1395e-09
1.56986e-13
1.56571e-13
1.13771e-09
-1.13773e-09
1.52967e-13
9.16193e-14
1.13577e-09
-1.13578e-09
1.55233e-13
9.36142e-14
1.13389e-09
-1.13389e-09
7.0736e-14
-7.32592e-15
1.13222e-09
-1.13222e-09
1.804e-13
-1.48994e-13
1.13454e-09
-1.13451e-09
-9.20643e-13
9.48479e-13
1.15511e-09
-1.15507e-09
2.36253e-13
-7.32249e-13
1.13155e-09
-1.1315e-09
5.79198e-11
4.46962e-11
7.21972e-10
6.15993e-11
-5.7475e-11
-6.08484e-11
6.50173e-11
-4.52826e-11
-6.45948e-11
-7.21935e-10
-5.82947e-12
9.65638e-12
8.41774e-12
1.02869e-10
-5.71937e-11
1.25801e-14
2.62678e-13
1.14177e-09
-1.14182e-09
2.91592e-14
2.5324e-13
1.14151e-09
-1.14156e-09
4.43369e-14
2.47235e-13
1.14107e-09
-1.14111e-09
6.15568e-14
2.18051e-13
1.13998e-09
-1.14001e-09
7.44701e-14
1.97975e-13
1.13813e-09
-1.13815e-09
9.30272e-14
1.52133e-13
1.13583e-09
-1.13584e-09
9.43173e-14
9.28327e-14
1.13314e-09
-1.13314e-09
7.10667e-14
1.10342e-13
1.12983e-09
-1.12983e-09
3.43377e-13
-3.07634e-13
1.1276e-09
-1.12757e-09
1.29728e-13
3.37811e-14
1.13639e-09
-1.13636e-09
1.23292e-12
-1.95493e-13
1.14604e-09
-1.146e-09
4.69736e-11
1.64234e-12
8.81868e-10
5.8899e-11
-4.81558e-11
-5.88964e-11
-8.81828e-10
1.44376e-11
6.96382e-12
1.25622e-10
-5.53536e-11
-1.14128e-11
-1.62863e-11
4.89495e-12
5.45341e-11
-3.173e-11
4.52117e-14
2.38828e-13
1.14034e-09
-1.14036e-09
9.60943e-14
2.26752e-13
1.14035e-09
-1.14037e-09
1.13252e-13
2.47135e-13
1.14027e-09
-1.14028e-09
1.37377e-13
2.03726e-13
1.1393e-09
-1.13931e-09
9.94354e-14
2.4198e-13
1.13715e-09
-1.13716e-09
9.28261e-14
1.51995e-13
1.13399e-09
-1.13398e-09
1.09336e-13
5.9447e-14
1.13002e-09
-1.13e-09
9.45138e-14
8.04131e-14
1.12491e-09
-1.12487e-09
1.75992e-13
-4.39466e-13
1.12367e-09
-1.12362e-09
-1.07356e-12
1.24001e-12
1.14397e-09
-1.14392e-09
3.11486e-13
-1.62762e-12
1.13592e-09
-1.13587e-09
5.8424e-11
4.37851e-11
7.46611e-10
6.28074e-11
-5.79181e-11
-6.18902e-11
5.83616e-11
-4.44411e-11
-5.7212e-11
-7.46572e-10
-5.54162e-12
1.12984e-11
4.47544e-12
1.02811e-10
-5.46199e-11
-3.40017e-14
2.87361e-13
1.1385e-09
-1.13851e-09
-5.75573e-14
2.6827e-13
1.13918e-09
-1.13919e-09
-7.19402e-14
2.77248e-13
1.1399e-09
-1.13992e-09
-7.9788e-14
2.20739e-13
1.13922e-09
-1.13923e-09
-8.23324e-14
2.42321e-13
1.13658e-09
-1.13657e-09
-5.13816e-15
6.41154e-14
1.13236e-09
-1.13235e-09
-3.14237e-13
3.35038e-13
1.12781e-09
-1.12778e-09
-4.24751e-13
1.27906e-13
1.12406e-09
-1.12399e-09
-4.59355e-13
-4.61966e-13
1.12707e-09
-1.12701e-09
1.7375e-12
-9.75826e-13
1.1318e-09
-1.13178e-09
4.52388e-11
1.31656e-12
8.80878e-10
5.28063e-11
-4.62852e-11
-5.29849e-11
-8.80857e-10
1.43659e-11
-2.97916e-13
1.37589e-10
-6.26338e-11
-5.82057e-12
-1.14431e-11
3.42952e-11
-1.70315e-11
9.78729e-14
1.73038e-13
1.13537e-09
-1.13535e-09
2.38971e-13
1.15346e-13
1.13742e-09
-1.13741e-09
2.12397e-13
2.89006e-13
1.13962e-09
-1.13961e-09
2.94704e-13
1.19422e-13
1.13947e-09
-1.13945e-09
-1.8217e-14
5.23699e-13
1.13689e-09
-1.13686e-09
-1.7302e-13
1.74939e-13
1.13467e-09
-1.13462e-09
-3.98234e-14
1.27769e-13
1.13663e-09
-1.13655e-09
1.13433e-12
-1.22705e-12
1.14435e-09
-1.14417e-09
-1.02889e-12
1.40513e-12
1.13242e-09
-1.13213e-09
-9.66571e-13
-1.04268e-12
1.12273e-09
-1.12272e-09
5.67692e-11
3.38425e-11
7.19373e-10
5.05425e-11
-5.62859e-11
-5.07729e-11
4.331e-11
-3.47656e-11
-4.22962e-11
-7.19366e-10
6.95026e-12
1.23313e-11
-1.89029e-11
1.02095e-10
-4.57048e-11
-1.3609e-13
2.86523e-13
1.13045e-09
-1.13042e-09
-2.80765e-13
2.49964e-13
1.13486e-09
-1.13485e-09
-3.18549e-13
3.07942e-13
1.14052e-09
-1.14049e-09
-5.40677e-13
3.15386e-13
1.14438e-09
-1.14435e-09
-1.12246e-13
6.96931e-14
1.14718e-09
-1.14716e-09
9.36721e-13
-9.20635e-13
1.1552e-09
-1.15515e-09
-1.79933e-13
1.2133e-12
1.14619e-09
-1.14615e-09
-1.90648e-12
3.04661e-13
1.1362e-09
-1.136e-09
1.05459e-12
4.52341e-11
8.81238e-10
5.28077e-11
-4.63269e-11
-5.31542e-11
-8.81352e-10
3.37101e-11
5.67725e-11
7.20194e-10
4.32421e-11
-3.46987e-11
-4.23423e-11
5.05964e-11
-5.63186e-11
-5.0767e-11
-7.20376e-10
-1.06438e-11
-1.06555e-11
1.4583e-10
-5.69782e-11
2.31929e-13
4.05184e-15
1.12892e-09
-1.12886e-09
6.15551e-13
-1.79858e-13
1.1373e-09
-1.13725e-09
6.85332e-13
1.89057e-13
1.15481e-09
-1.15476e-09
1.79164e-12
-8.38686e-13
1.16982e-09
-1.16977e-09
4.78778e-13
1.33457e-12
1.15662e-09
-1.15657e-09
-7.26836e-13
2.37553e-13
1.13159e-09
-1.13154e-09
1.65639e-12
4.69686e-11
8.81915e-10
5.88956e-11
-4.8154e-11
-5.88981e-11
-8.81895e-10
4.37809e-11
5.84253e-11
7.4667e-10
5.83774e-11
-4.44357e-11
-5.71982e-11
6.28101e-11
-5.79117e-11
-6.18866e-11
-7.46669e-10
-3.00499e-13
1.43553e-11
1.37614e-10
-6.26544e-11
6.9583e-12
-1.89155e-11
1.23191e-11
1.02204e-10
-4.57929e-11
-2.65876e-13
2.26936e-13
1.12569e-09
-1.12564e-09
-5.93505e-13
1.08496e-13
1.13984e-09
-1.13979e-09
-7.41838e-13
2.8725e-13
1.18682e-09
-1.18677e-09
-1.95592e-12
3.21339e-13
1.16275e-09
-1.16269e-09
8.31724e-13
4.65793e-11
9.01499e-10
5.50197e-11
-4.79187e-11
-5.51709e-11
-9.0146e-10
4.47003e-11
5.79192e-11
7.21973e-10
6.50186e-11
-4.52853e-11
-6.45961e-11
6.15994e-11
-5.74744e-11
-6.08481e-11
-7.21936e-10
6.96429e-12
1.44364e-11
1.25622e-10
-5.53535e-11
-5.5417e-12
4.47608e-12
1.12989e-11
1.02811e-10
-5.46194e-11
-1.14385e-11
-5.8239e-12
3.42979e-11
-1.70355e-11
2.02896e-13
6.19521e-11
8.7201e-10
6.27943e-11
-6.19645e-11
-6.28091e-11
-8.71952e-10
3.17088e-14
6.46896e-11
8.7836e-10
6.60473e-11
-6.45449e-11
-6.59609e-11
-8.78311e-10
8.49937e-13
5.74775e-11
9.74205e-10
4.00849e-11
-5.73913e-11
-4.07615e-11
-9.74145e-10
4.44519e-11
4.26858e-11
7.61789e-10
5.77871e-11
-4.4895e-11
-5.66515e-11
4.82996e-11
-4.23494e-11
-4.82024e-11
-7.61743e-10
7.01014e-12
1.35078e-11
1.34718e-10
-6.42049e-11
-5.82965e-12
8.41764e-12
9.65631e-12
1.02869e-10
-5.71937e-11
-1.6286e-11
-1.14129e-11
4.89506e-12
5.4534e-11
-3.17302e-11
-1.0728e-12
1.4327e-11
9.86808e-11
-4.99761e-11
9.44816e-13
1.50744e-12
1.41763e-11
9.65173e-11
-4.8456e-11
-4.36196e-12
1.02282e-12
8.44785e-12
1.1175e-10
-5.93816e-11
7.6848e-12
-6.93688e-12
7.89978e-11
-3.70603e-11
-6.49412e-12
-3.43655e-12
2.02161e-11
-1.02854e-11
3.29643e-14
3.47419e-14
1.1487e-09
6.6092e-14
3.57018e-14
1.14779e-09
1.02342e-13
3.14772e-14
1.14659e-09
1.28685e-13
3.40526e-14
1.14536e-09
1.64e-13
2.26924e-14
1.14416e-09
1.74327e-13
3.30684e-14
1.14296e-09
2.07581e-13
5.57772e-15
1.14174e-09
1.97064e-13
4.33617e-14
1.14031e-09
2.3808e-13
-4.2261e-14
1.13851e-09
1.26004e-13
1.01528e-13
1.13539e-09
2.51868e-13
-1.37313e-13
1.13048e-09
-2.31717e-14
2.37114e-13
1.12897e-09
2.18627e-13
-2.75771e-13
1.12573e-09
6.19552e-11
2.03517e-13
8.72065e-10
6.27972e-11
-6.19671e-11
-6.28119e-11
-4.99808e-11
1.43273e-11
-1.07122e-12
9.86868e-11
3.35565e-14
6.77658e-14
1.1478e-09
6.66607e-14
6.8819e-14
1.14723e-09
1.02016e-13
6.20639e-14
1.14616e-09
1.28041e-13
6.6315e-14
1.14501e-09
1.60849e-13
4.633e-14
1.14381e-09
1.70319e-13
6.56921e-14
1.14262e-09
1.99984e-13
1.27592e-14
1.14147e-09
1.86025e-13
8.69839e-14
1.14031e-09
2.19416e-13
-7.65388e-14
1.13916e-09
6.19452e-14
2.43233e-13
1.13742e-09
2.25993e-13
-3.02011e-13
1.13483e-09
-1.80372e-13
6.127e-13
1.1373e-09
1.02847e-13
-5.9997e-13
1.13988e-09
6.46916e-11
3.31469e-14
8.7843e-10
6.60479e-11
-6.45455e-11
-6.5961e-11
-4.84599e-11
9.43541e-13
1.41765e-11
1.50838e-12
9.6523e-11
3.15729e-14
1.03959e-13
1.1466e-09
6.21195e-14
1.04064e-13
1.14626e-09
9.41241e-14
9.43648e-14
1.14541e-09
1.21047e-13
9.66048e-14
1.14429e-09
1.51542e-13
6.98828e-14
1.14315e-09
1.69761e-13
8.71499e-14
1.14202e-09
1.95197e-13
2.23946e-14
1.14101e-09
2.09261e-13
9.67664e-14
1.14022e-09
2.31335e-13
-9.66851e-14
1.13987e-09
2.49347e-13
2.12903e-13
1.13961e-09
2.73894e-13
-3.38604e-13
1.14051e-09
1.58712e-13
6.90007e-13
1.15485e-09
2.75827e-13
-7.54869e-13
1.18687e-09
5.74769e-11
8.55738e-13
9.74262e-10
4.00861e-11
-5.73937e-11
-4.07625e-11
-5.93875e-11
-4.36094e-12
8.44787e-12
1.01966e-12
1.11758e-10
3.29451e-14
1.29917e-13
1.14537e-09
6.53322e-14
1.29603e-13
1.14505e-09
9.55426e-14
1.21056e-13
1.1444e-09
1.20342e-13
1.2104e-13
1.14338e-09
1.42464e-13
9.3103e-14
1.14211e-09
1.54223e-13
1.07556e-13
1.14091e-09
1.71069e-13
3.27522e-14
1.13992e-09
1.71244e-13
1.13903e-13
1.13924e-09
1.76311e-13
-1.05808e-13
1.13917e-09
7.13539e-14
3.01551e-13
1.13944e-09
2.86319e-13
-5.71374e-13
1.14438e-09
-8.57935e-13
1.79679e-12
1.16985e-09
3.14096e-13
-1.96764e-12
1.16279e-09
4.26877e-11
4.44536e-11
7.61823e-10
4.83017e-11
-4.23515e-11
-4.82041e-11
5.77913e-11
-4.48942e-11
-5.66502e-11
-3.70612e-11
7.68809e-12
-6.93801e-12
7.89992e-11
2.4096e-14
1.65351e-13
1.14415e-09
4.7657e-14
1.62215e-13
1.14381e-09
7.07108e-14
1.51769e-13
1.14317e-09
9.39737e-14
1.43009e-13
1.14218e-09
1.14398e-13
1.13882e-13
1.14086e-09
1.40091e-13
1.1033e-13
1.13942e-09
1.51929e-13
4.34551e-14
1.13807e-09
1.98524e-13
7.21029e-14
1.13708e-09
2.02401e-13
-1.08699e-13
1.13648e-09
5.1944e-13
-2.85579e-14
1.13679e-09
5.04035e-14
-1.30959e-13
1.14713e-09
1.33091e-12
4.79499e-13
1.15662e-09
4.65814e-11
8.28841e-13
9.01521e-10
5.50211e-11
-4.79224e-11
-5.51747e-11
-6.42072e-11
1.35079e-11
7.01166e-12
1.34723e-10
-1.02858e-11
-3.43621e-12
-6.49456e-12
2.02166e-11
3.24797e-14
1.75256e-13
1.14296e-09
6.513e-14
1.71198e-13
1.14262e-09
8.64306e-14
1.69674e-13
1.14203e-09
1.07181e-13
1.5406e-13
1.14094e-09
1.10054e-13
1.39046e-13
1.13944e-09
1.17897e-13
1.17127e-13
1.1377e-09
1.15306e-13
5.56041e-14
1.13576e-09
1.18571e-13
6.2911e-14
1.1339e-09
3.68784e-14
-3.46117e-14
1.13223e-09
1.55576e-13
-1.70277e-13
1.13457e-09
-9.41414e-13
9.38858e-13
1.15514e-09
2.30009e-13
-7.31915e-13
1.1316e-09
5.79216e-11
4.46977e-11
7.22e-10
6.16014e-11
-5.74773e-11
-6.08507e-11
6.50198e-11
-4.52839e-11
-6.45968e-11
-5.7196e-11
-5.82998e-12
9.65627e-12
8.41799e-12
1.02873e-10
7.62211e-15
2.08572e-13
1.14174e-09
1.47343e-14
2.00624e-13
1.14148e-09
2.37704e-14
1.95134e-13
1.14103e-09
3.41567e-14
1.70685e-13
1.13995e-09
4.42541e-14
1.51106e-13
1.1381e-09
5.71169e-14
1.13879e-13
1.13582e-09
5.84815e-14
5.76699e-14
1.13314e-09
2.83032e-14
8.48436e-14
1.12984e-09
3.14184e-13
-3.34651e-13
1.12762e-09
1.01579e-13
1.8471e-14
1.13642e-09
1.22234e-12
-2.11162e-13
1.14607e-09
4.69752e-11
1.64269e-12
8.81896e-10
5.89007e-11
-4.81578e-11
-5.88991e-11
-5.53555e-11
1.44378e-11
6.96392e-12
1.25626e-10
-3.17315e-11
-1.14131e-11
-1.62862e-11
4.89436e-12
5.45365e-11
4.28755e-14
1.97809e-13
1.14031e-09
8.60743e-14
1.86406e-13
1.14032e-09
9.54888e-14
2.08632e-13
1.14025e-09
1.12532e-13
1.6929e-13
1.13929e-09
7.06791e-14
1.95954e-13
1.13715e-09
6.21783e-14
1.14258e-13
1.13399e-09
8.38239e-14
2.32335e-14
1.13003e-09
7.18921e-14
6.32739e-14
1.12495e-09
1.54036e-13
-4.43357e-13
1.1237e-09
-1.08937e-12
1.22688e-12
1.14401e-09
3.03259e-13
-1.63951e-12
1.13596e-09
5.8426e-11
4.37867e-11
7.4664e-10
6.28099e-11
-5.79217e-11
-6.18934e-11
5.83651e-11
-4.44427e-11
-5.72132e-11
-5.46219e-11
-5.54143e-12
1.12988e-11
4.4751e-12
1.02814e-10
-3.88038e-14
2.38303e-13
1.13851e-09
-7.34386e-14
2.19663e-13
1.13918e-09
-9.38269e-14
2.30664e-13
1.1399e-09
-1.03682e-13
1.74984e-13
1.13923e-09
-1.07707e-13
2.00238e-13
1.13658e-09
-3.53353e-14
3.01422e-14
1.13238e-09
-3.40786e-13
3.08862e-13
1.12784e-09
-4.42851e-13
1.26302e-13
1.1241e-09
-4.71139e-13
-4.43988e-13
1.1271e-09
1.72499e-12
-9.93317e-13
1.13183e-09
4.52401e-11
1.29149e-12
8.80898e-10
5.28088e-11
-4.62878e-11
-5.29874e-11
-6.26354e-11
1.43657e-11
-2.98437e-13
1.37594e-10
-1.70321e-11
-5.82014e-12
-1.1444e-11
3.42963e-11
1.01502e-13
1.26235e-13
1.13539e-09
2.41946e-13
6.28417e-14
1.13744e-09
2.10595e-13
2.48807e-13
1.13964e-09
2.96339e-13
7.08775e-14
1.13949e-09
-3.35156e-14
5.13144e-13
1.13691e-09
-1.82956e-13
1.48719e-13
1.1347e-09
-1.2658e-14
1.0274e-13
1.13666e-09
1.1877e-12
-1.13893e-12
1.14442e-09
-1.00231e-12
1.75558e-12
1.13242e-09
-1.01794e-12
-9.97799e-13
1.12275e-09
5.6778e-11
3.38211e-11
7.1943e-10
5.05571e-11
-5.62832e-11
-5.07628e-11
4.32557e-11
-3.47893e-11
-4.23613e-11
-4.57022e-11
6.95175e-12
1.23322e-11
-1.89033e-11
1.02099e-10
-1.352e-13
2.52079e-13
1.13046e-09
-2.99625e-13
2.26251e-13
1.13486e-09
-3.36482e-13
2.73733e-13
1.14053e-09
-5.70071e-13
2.86174e-13
1.1444e-09
-1.26212e-13
4.58289e-14
1.14721e-09
9.35457e-13
-9.43281e-13
1.15523e-09
-1.90314e-13
1.20479e-12
1.14621e-09
-1.63093e-12
3.00069e-13
1.1362e-09
1.2725e-12
4.52587e-11
8.81333e-10
5.29513e-11
-4.63175e-11
-5.31357e-11
3.37398e-11
5.67912e-11
7.20141e-10
4.32982e-11
-3.4681e-11
-4.22886e-11
5.05657e-11
-5.63095e-11
-5.07885e-11
-5.6966e-11
-1.07146e-11
-1.05942e-11
1.45835e-10
2.38133e-13
-2.29628e-14
1.12896e-09
6.1324e-13
-1.80218e-13
1.13733e-09
6.90588e-13
1.58466e-13
1.15485e-09
1.79784e-12
-8.5841e-13
1.16986e-09
4.81579e-13
1.32669e-12
1.15666e-09
-7.28054e-13
2.30869e-13
1.13163e-09
1.64912e-12
4.69708e-11
8.8193e-10
5.88984e-11
-4.81562e-11
-5.89013e-11
4.37646e-11
5.84259e-11
7.4669e-10
5.83667e-11
-4.44274e-11
-5.72005e-11
6.28109e-11
-5.79186e-11
-6.18927e-11
-6.26351e-11
-3.12969e-13
1.43575e-11
1.37613e-10
-4.5726e-11
6.89028e-12
-1.89033e-11
1.23419e-11
1.02188e-10
-2.73457e-13
2.18555e-13
1.12572e-09
-5.97564e-13
1.0261e-13
1.13988e-09
-7.52484e-13
2.75757e-13
1.18685e-09
-1.96527e-12
3.13999e-13
1.16279e-09
8.29782e-13
4.65802e-11
9.01527e-10
5.5021e-11
-4.79218e-11
-5.51746e-11
4.47016e-11
5.79213e-11
7.21999e-10
6.50215e-11
-4.52864e-11
-6.45977e-11
6.16016e-11
-5.74768e-11
-6.08504e-11
-5.53554e-11
6.96416e-12
1.44367e-11
1.25626e-10
-5.4622e-11
-5.54127e-12
4.47436e-12
1.1299e-11
1.02815e-10
-1.7033e-11
-1.14457e-11
-5.81995e-12
3.42987e-11
2.04807e-13
6.19541e-11
8.72051e-10
6.27966e-11
-6.19662e-11
-6.28112e-11
3.37378e-14
6.46926e-11
8.784e-10
6.60499e-11
-6.45468e-11
-6.59627e-11
8.5599e-13
5.74778e-11
9.74251e-10
4.00867e-11
-5.73944e-11
-4.07629e-11
4.44546e-11
4.26873e-11
7.61824e-10
5.77918e-11
-4.48951e-11
-5.66505e-11
4.83016e-11
-4.23513e-11
-4.82039e-11
-6.42073e-11
7.01172e-12
1.35076e-11
1.34723e-10
-5.71959e-11
-5.83013e-12
8.4179e-12
9.65623e-12
1.02872e-10
-3.17316e-11
-1.6286e-11
-1.14132e-11
4.8945e-12
5.45364e-11
-4.99785e-11
-1.07307e-12
1.43271e-11
9.86842e-11
-4.84576e-11
9.45363e-13
1.50723e-12
1.41769e-11
9.65206e-11
-5.93839e-11
-4.36195e-12
1.02187e-12
8.44755e-12
1.11755e-10
-3.70616e-11
7.68606e-12
-6.93742e-12
7.90006e-11
-1.02859e-11
-6.49447e-12
-3.43636e-12
2.02167e-11
2.73982e-14
2.94093e-14
1.14865e-09
5.34332e-14
2.96134e-14
1.14774e-09
8.18051e-14
2.52037e-14
1.14654e-09
1.01282e-13
2.7731e-14
1.14532e-09
1.30956e-13
1.6626e-14
1.14411e-09
1.35809e-13
2.81033e-14
1.14294e-09
1.68545e-13
2.86273e-16
1.14171e-09
1.49517e-13
4.1923e-14
1.1403e-09
2.01676e-13
-5.02769e-14
1.13851e-09
8.5043e-14
1.03337e-13
1.13541e-09
2.24137e-13
-1.44703e-13
1.13049e-09
-4.41621e-14
2.35668e-13
1.129e-09
2.09455e-13
-2.77261e-13
1.12575e-09
6.19575e-11
2.06097e-13
8.72092e-10
6.2799e-11
-6.19693e-11
-6.28142e-11
-4.99817e-11
1.43281e-11
-1.0717e-12
9.86888e-11
2.7475e-14
5.53188e-14
1.14775e-09
5.32511e-14
5.53621e-14
1.14718e-09
8.1343e-14
4.84487e-14
1.14611e-09
1.00841e-13
5.30927e-14
1.14496e-09
1.28423e-13
3.34368e-14
1.14376e-09
1.3275e-13
5.4393e-14
1.14259e-09
1.61494e-13
1.75643e-15
1.14144e-09
1.38855e-13
8.28363e-14
1.14029e-09
1.82145e-13
-9.24908e-14
1.13916e-09
2.57977e-14
2.44334e-13
1.13744e-09
1.81847e-13
-3.13279e-13
1.13484e-09
-2.29636e-13
6.14808e-13
1.13733e-09
8.74782e-14
-6.09579e-13
1.13989e-09
6.46934e-11
3.31852e-14
8.78457e-10
6.60499e-11
-6.45475e-11
-6.59633e-11
-4.84609e-11
9.44247e-13
1.41768e-11
1.50808e-12
9.65252e-11
2.54662e-14
8.36189e-14
1.14654e-09
4.8735e-14
8.34676e-14
1.1462e-09
7.38404e-14
7.395e-14
1.14536e-09
9.44371e-14
7.69201e-14
1.14425e-09
1.19507e-13
5.08146e-14
1.14311e-09
1.33602e-13
6.99207e-14
1.14199e-09
1.56715e-13
6.9773e-15
1.14099e-09
1.74564e-13
8.59124e-14
1.1402e-09
1.96467e-13
-1.15818e-13
1.13987e-09
2.1808e-13
2.1206e-13
1.13962e-09
2.48387e-13
-3.53356e-13
1.14052e-09
1.36974e-13
6.95039e-13
1.15488e-09
2.66615e-13
-7.64744e-13
1.18689e-09
5.7478e-11
8.59793e-13
9.74296e-10
4.00875e-11
-5.73963e-11
-4.07636e-11
-5.93891e-11
-4.36109e-12
8.44853e-12
1.01888e-12
1.11761e-10
2.64923e-14
1.02562e-13
1.14533e-09
5.20572e-14
1.02427e-13
1.14501e-09
7.57848e-14
9.43196e-14
1.14435e-09
9.46521e-14
9.53472e-14
1.14335e-09
1.12184e-13
6.82488e-14
1.14207e-09
1.20238e-13
8.48113e-14
1.14089e-09
1.36057e-13
1.19076e-14
1.1399e-09
1.34437e-13
9.91128e-14
1.13923e-09
1.42701e-13
-1.26177e-13
1.13917e-09
3.29346e-14
3.03936e-13
1.13946e-09
2.63792e-13
-5.93473e-13
1.14439e-09
-8.73479e-13
1.80181e-12
1.16988e-09
3.0832e-13
-1.97668e-12
1.16282e-09
4.26889e-11
4.44558e-11
7.61849e-10
4.83035e-11
-4.23529e-11
-4.82054e-11
5.7795e-11
-4.48943e-11
-5.66495e-11
-3.70624e-11
7.6891e-12
-6.93846e-12
7.90011e-11
1.83717e-14
1.32424e-13
1.14411e-09
3.51293e-14
1.29782e-13
1.14377e-09
5.18585e-14
1.19698e-13
1.14313e-09
6.93135e-14
1.1267e-13
1.14215e-09
8.54507e-14
8.48254e-14
1.14083e-09
1.08109e-13
8.36606e-14
1.1394e-09
1.17241e-13
2.16011e-14
1.13805e-09
1.71438e-13
5.11626e-14
1.13708e-09
1.72384e-13
-1.26233e-13
1.13648e-09
5.04924e-13
-4.07239e-14
1.13681e-09
3.74039e-14
-1.43888e-13
1.14715e-09
1.32586e-12
4.81553e-13
1.15665e-09
4.65821e-11
8.26216e-13
9.01541e-10
5.50221e-11
-4.79248e-11
-5.51777e-11
-6.42088e-11
1.35077e-11
7.01303e-12
1.34726e-10
-1.02861e-11
-3.43588e-12
-6.49501e-12
2.0217e-11
2.73627e-14
1.36846e-13
1.14293e-09
5.37737e-14
1.33629e-13
1.14259e-09
6.9138e-14
1.33549e-13
1.142e-09
8.44316e-14
1.19996e-13
1.14091e-09
8.35003e-14
1.06885e-13
1.13941e-09
8.88722e-14
8.78413e-14
1.13769e-09
8.82756e-14
2.94331e-14
1.13575e-09
9.31934e-14
4.08246e-14
1.1339e-09
1.31589e-14
-4.47128e-14
1.13223e-09
1.37132e-13
-1.85699e-13
1.13459e-09
-9.57875e-13
9.31241e-13
1.15516e-09
2.24791e-13
-7.32786e-13
1.13162e-09
5.79235e-11
4.4699e-11
7.22017e-10
6.16034e-11
-5.7479e-11
-6.08525e-11
6.50215e-11
-4.52851e-11
-6.45987e-11
-5.71975e-11
-5.83018e-12
9.6567e-12
8.418e-12
1.02875e-10
2.6059e-15
1.69538e-13
1.14171e-09
3.57527e-15
1.6225e-13
1.14145e-09
8.29886e-15
1.56526e-13
1.14101e-09
1.32444e-14
1.35545e-13
1.13993e-09
2.23056e-14
1.16383e-13
1.13808e-09
3.05212e-14
8.66293e-14
1.13581e-09
3.22914e-14
3.27943e-14
1.13313e-09
-7.44342e-15
6.92993e-14
1.12985e-09
2.93902e-13
-3.55913e-13
1.12763e-09
8.1487e-14
3.98013e-15
1.13644e-09
1.2159e-12
-2.24867e-13
1.14609e-09
4.69764e-11
1.64082e-12
8.81919e-10
5.89024e-11
-4.81592e-11
-5.89007e-11
-5.53567e-11
1.44377e-11
6.96435e-12
1.25629e-10
-3.17324e-11
-1.14142e-11
-1.62865e-11
4.89485e-12
5.45382e-11
4.15118e-14
1.50261e-13
1.1403e-09
8.19006e-14
1.39445e-13
1.1403e-09
8.45577e-14
1.74058e-13
1.14023e-09
9.74298e-14
1.33312e-13
1.13928e-09
5.02629e-14
1.67054e-13
1.13715e-09
4.1006e-14
8.9466e-14
1.134e-09
6.89675e-14
-7.32566e-15
1.13005e-09
6.28098e-14
5.4239e-14
1.12497e-09
1.39594e-13
-4.5027e-13
1.12372e-09
-1.09941e-12
1.21743e-12
1.14403e-09
2.95831e-13
-1.64557e-12
1.13598e-09
5.8427e-11
4.37873e-11
7.4666e-10
6.28117e-11
-5.79234e-11
-6.18947e-11
5.83661e-11
-4.44439e-11
-5.72151e-11
-5.46238e-11
-5.54114e-12
1.12987e-11
4.47446e-12
1.02818e-10
-4.6957e-14
2.01916e-13
1.13851e-09
-8.95565e-14
1.82383e-13
1.13918e-09
-1.13156e-13
1.95776e-13
1.1399e-09
-1.24234e-13
1.41428e-13
1.13923e-09
-1.26049e-13
1.70386e-13
1.13657e-09
-4.63328e-14
8.22809e-15
1.13238e-09
-3.5893e-13
2.91333e-13
1.12785e-09
-4.52749e-13
1.25717e-13
1.12412e-09
-4.69792e-13
-4.60423e-13
1.12713e-09
1.72569e-12
-1.00213e-12
1.13185e-09
4.52397e-11
1.30031e-12
8.80909e-10
5.28087e-11
-4.62908e-11
-5.29907e-11
-6.26373e-11
1.43652e-11
-2.98913e-13
1.37597e-10
-1.70325e-11
-5.81961e-12
-1.1445e-11
3.42972e-11
1.03365e-13
8.53383e-14
1.13541e-09
2.43358e-13
2.60962e-14
1.13746e-09
2.10311e-13
2.17483e-13
1.13965e-09
3.00455e-13
3.21886e-14
1.13951e-09
-4.29592e-14
5.01251e-13
1.13692e-09
-1.90945e-13
1.32193e-13
1.13473e-09
-4.89048e-15
8.15774e-14
1.13669e-09
1.20598e-12
-1.11915e-12
1.14446e-09
-1.00799e-12
1.73758e-12
1.13243e-09
-1.00387e-12
-1.03688e-12
1.12277e-09
5.67716e-11
3.38414e-11
7.19401e-10
5.05443e-11
-5.62922e-11
-5.07781e-11
4.33157e-11
-3.47756e-11
-4.23024e-11
-4.57072e-11
6.95116e-12
1.23311e-11
-1.89056e-11
1.02102e-10
-1.42755e-13
2.24331e-13
1.13047e-09
-3.10894e-13
1.82278e-13
1.13488e-09
-3.51528e-13
2.48096e-13
1.14054e-09
-5.9298e-13
2.63672e-13
1.14441e-09
-1.41391e-13
2.98603e-14
1.14723e-09
9.31521e-13
-9.59727e-13
1.15525e-09
-2.18685e-13
1.20653e-12
1.14624e-09
-1.64225e-12
2.92022e-13
1.13621e-09
1.27861e-12
4.52669e-11
8.81379e-10
5.29597e-11
-4.63193e-11
-5.31384e-11
3.37199e-11
5.67968e-11
7.20172e-10
4.32477e-11
-3.46977e-11
-4.23419e-11
5.05729e-11
-5.63069e-11
-5.07813e-11
-5.69747e-11
-1.06361e-11
-1.06667e-11
1.45839e-10
2.36841e-13
-4.40018e-14
1.12899e-09
6.15369e-13
-2.29508e-13
1.13737e-09
6.9565e-13
1.36541e-13
1.15488e-09
1.8027e-12
-8.73976e-13
1.16989e-09
4.81567e-13
1.32228e-12
1.15668e-09
-7.33103e-13
2.25261e-13
1.13165e-09
1.63882e-12
4.69728e-11
8.81948e-10
5.89017e-11
-4.81571e-11
-5.8902e-11
4.37658e-11
5.84258e-11
7.46706e-10
5.83607e-11
-4.44271e-11
-5.72062e-11
6.2812e-11
-5.79217e-11
-6.1895e-11
-6.26373e-11
-3.12872e-13
1.43646e-11
1.37618e-10
-4.57283e-11
6.88762e-12
-1.88986e-11
1.23421e-11
1.02194e-10
-2.74717e-13
2.09249e-13
1.12574e-09
-6.07047e-13
8.68797e-14
1.13989e-09
-7.62236e-13
2.66287e-13
1.18688e-09
-1.97418e-12
3.07962e-13
1.16282e-09
8.27093e-13
4.65808e-11
9.01546e-10
5.50219e-11
-4.79242e-11
-5.51777e-11
4.47025e-11
5.79232e-11
7.22016e-10
6.50231e-11
-4.52877e-11
-6.45995e-11
6.16036e-11
-5.74785e-11
-6.08522e-11
-5.53564e-11
6.96482e-12
1.44367e-11
1.2563e-10
-5.46232e-11
-5.54181e-12
4.47323e-12
1.1299e-11
1.02817e-10
-1.70335e-11
-1.14493e-11
-5.81732e-12
3.43001e-11
2.07574e-13
6.19564e-11
8.72078e-10
6.27984e-11
-6.19683e-11
-6.28134e-11
3.39623e-14
6.46942e-11
8.78427e-10
6.60518e-11
-6.45489e-11
-6.5965e-11
8.60171e-13
5.74788e-11
9.74284e-10
4.00881e-11
-5.73971e-11
-4.0764e-11
4.44568e-11
4.26884e-11
7.6185e-10
5.77955e-11
-4.48951e-11
-5.66498e-11
4.83034e-11
-4.23528e-11
-4.82052e-11
-6.42089e-11
7.01308e-12
1.35074e-11
1.34726e-10
-5.71974e-11
-5.83035e-12
8.41795e-12
9.65668e-12
1.02875e-10
-3.17324e-11
-1.62863e-11
-1.14143e-11
4.89493e-12
5.4538e-11
-4.99794e-11
-1.07349e-12
1.43278e-11
9.86861e-11
-4.84585e-11
9.46018e-13
1.50693e-12
1.41771e-11
9.65227e-11
-5.93854e-11
-4.36212e-12
1.02112e-12
8.44813e-12
1.11757e-10
-3.70628e-11
7.68701e-12
-6.93787e-12
7.90025e-11
-1.02862e-11
-6.49491e-12
-3.43604e-12
2.02171e-11
2.30246e-14
2.56345e-14
1.14861e-09
4.43767e-14
2.568e-14
1.1477e-09
6.75503e-14
2.11309e-14
1.1465e-09
8.27754e-14
2.32846e-14
1.14529e-09
1.0751e-13
1.18175e-14
1.14408e-09
1.10495e-13
2.36782e-14
1.14291e-09
1.40429e-13
-8.00273e-15
1.14169e-09
1.14359e-13
4.034e-14
1.14029e-09
1.7389e-13
-5.8402e-14
1.13851e-09
5.09894e-14
1.06243e-13
1.13542e-09
2.01248e-13
-1.49182e-13
1.13048e-09
-6.36521e-14
2.38661e-13
1.12902e-09
2.03459e-13
-2.86717e-13
1.12577e-09
6.19585e-11
2.0648e-13
8.72119e-10
6.27995e-11
-6.19715e-11
-6.28165e-11
-4.99823e-11
1.43287e-11
-1.07184e-12
9.86906e-11
2.35175e-14
4.68782e-14
1.14771e-09
4.44758e-14
4.66023e-14
1.14714e-09
6.68715e-14
3.93607e-14
1.14607e-09
8.20584e-14
4.37726e-14
1.14493e-09
1.05065e-13
2.38867e-14
1.14373e-09
1.07406e-13
4.56564e-14
1.14256e-09
1.33773e-13
-1.25178e-14
1.14142e-09
1.04245e-13
8.23455e-14
1.14028e-09
1.54411e-13
-1.0592e-13
1.13916e-09
7.56539e-15
2.44398e-13
1.13744e-09
1.92461e-13
-3.27592e-13
1.13484e-09
-2.03459e-13
6.1353e-13
1.13736e-09
8.58872e-14
-6.0806e-13
1.13993e-09
6.46939e-11
3.51057e-14
8.78484e-10
6.60506e-11
-6.45497e-11
-6.59654e-11
-4.84616e-11
9.44375e-13
1.41767e-11
1.50797e-12
9.65269e-11
2.14905e-14
6.9779e-14
1.14651e-09
3.98536e-14
6.91465e-14
1.14617e-09
5.94062e-14
5.93978e-14
1.14532e-09
7.57338e-14
6.24908e-14
1.14422e-09
9.60014e-14
3.66264e-14
1.14307e-09
1.07712e-13
5.70144e-14
1.14197e-09
1.28429e-13
-9.90887e-15
1.14096e-09
1.44461e-13
8.10199e-14
1.14018e-09
1.71371e-13
-1.3225e-13
1.13987e-09
1.94154e-13
2.12826e-13
1.13963e-09
2.28652e-13
-3.6696e-13
1.14053e-09
1.16905e-13
6.99155e-13
1.15491e-09
2.58735e-13
-7.73127e-13
1.18692e-09
5.74775e-11
8.62111e-13
9.74325e-10
4.00884e-11
-5.73993e-11
-4.07645e-11
-5.93904e-11
-4.36132e-12
8.44808e-12
1.01822e-12
1.11763e-10
2.17796e-14
8.43809e-14
1.1453e-09
4.25972e-14
8.38542e-14
1.14497e-09
6.12476e-14
7.56084e-14
1.14432e-09
7.61767e-14
7.69827e-14
1.14332e-09
9.01771e-14
5.03745e-14
1.14204e-09
9.61737e-14
6.85528e-14
1.14087e-09
1.10764e-13
-6.56621e-15
1.13988e-09
1.04553e-13
9.5287e-14
1.13922e-09
1.17833e-13
-1.45785e-13
1.13917e-09
1.26286e-14
3.06187e-13
1.13947e-09
2.45742e-13
-6.10266e-13
1.1444e-09
-8.86321e-13
1.80554e-12
1.16991e-09
3.02341e-13
-1.98597e-12
1.16284e-09
4.26895e-11
4.44569e-11
7.61871e-10
4.83044e-11
-4.23543e-11
-4.82067e-11
5.77973e-11
-4.48948e-11
-5.66499e-11
-3.70631e-11
7.68997e-12
-6.93913e-12
7.90026e-11
1.39665e-14
1.09222e-13
1.14408e-09
2.59929e-14
1.06458e-13
1.14374e-09
3.78923e-14
9.62111e-14
1.1431e-09
5.15552e-14
9.05881e-14
1.14212e-09
6.42574e-14
6.35527e-14
1.1408e-09
8.60923e-14
6.41908e-14