/*--------------------------------*- C++ -*----------------------------------*\
| =========                 |                                                 |
| \\      /  F ield         | OpenFOAM: The Open Source CFD Toolbox           |
|  \\    /   O peration     | Version:  2.1.1                                 |
|   \\  /    A nd           | Web:      www.OpenFOAM.org                      |
|    \\/     M anipulation  |                                                 |
\*---------------------------------------------------------------------------*/
FoamFile
{
    version     2.0;
    format      ascii;
    class       volVectorField;
    location    "0.0045";
    object      U;
}
// * * * * * * * * * * * * * * * * * * * * * * * * * * * * * * * * * * * * * //

dimensions      [0 1 -1 0 0 0 0];

internalField   nonuniform List<vector> 
10156
(
(1.27246e-06 1.03916e-06 0.112754)
(1.3632e-05 1.19562e-06 0.112721)
(1.53346e-05 9.62149e-07 0.112672)
(2.94768e-05 1.29715e-06 0.112618)
(2.43624e-05 5.78302e-07 0.112565)
(4.37588e-05 1.13907e-06 0.11251)
(2.32426e-05 -7.19603e-07 0.112454)
(5.85191e-05 7.63898e-07 0.112388)
(-1.18509e-06 -3.09707e-06 0.112308)
(8.97898e-05 5.86482e-07 0.112159)
(-6.79483e-05 -7.25567e-06 0.111954)
(0.000161531 -4.24817e-06 0.112304)
(-0.000185307 -9.01733e-06 0.112816)
(0.000260072 -3.6009e-05 0.088192)
(0.00149773 -1.91912e-05 0.0295298)
(1.27613e-06 1.33864e-05 0.112722)
(1.36278e-05 1.35537e-05 0.112696)
(1.52795e-05 1.26343e-05 0.112653)
(2.89672e-05 1.25798e-05 0.112602)
(2.41777e-05 1.02698e-05 0.11255)
(4.24359e-05 1.159e-05 0.112496)
(2.29522e-05 6.24359e-06 0.112445)
(5.60284e-05 1.2881e-05 0.112391)
(-1.30585e-06 -6.32949e-07 0.11234)
(8.48951e-05 2.46011e-05 0.112243)
(-7.17767e-05 -1.70678e-05 0.112107)
(0.000157828 6.18218e-05 0.112565)
(-0.000221208 -5.50268e-05 0.113289)
(0.000267979 9.39783e-05 0.0888629)
(0.00150751 -0.000120262 0.0298816)
(1.18861e-06 1.51491e-05 0.112673)
(1.28804e-05 1.52377e-05 0.112655)
(1.4361e-05 1.41793e-05 0.11262)
(2.71106e-05 1.43921e-05 0.112573)
(2.33693e-05 1.11524e-05 0.112521)
(3.97158e-05 1.29591e-05 0.112469)
(2.45745e-05 4.74845e-06 0.112424)
(5.15336e-05 1.27305e-05 0.112385)
(1.08252e-05 -6.35467e-06 0.112366)
(7.18802e-05 2.10334e-05 0.112319)
(-2.67346e-05 -3.03009e-05 0.112318)
(0.000118303 3.95921e-05 0.113499)
(-0.000101276 -3.54327e-05 0.116136)
(0.000172677 -0.000116115 0.0937219)
(0.000143957 -0.00207319 0.0281655)
(1.35521e-06 2.92664e-05 0.112619)
(1.26574e-05 2.89052e-05 0.112604)
(1.44361e-05 2.69406e-05 0.112575)
(2.59425e-05 2.59038e-05 0.11253)
(2.27409e-05 2.13553e-05 0.112478)
(3.6022e-05 2.16782e-05 0.112423)
(2.27516e-05 1.23727e-05 0.112377)
(4.47744e-05 2.0116e-05 0.112346)
(7.09005e-06 -1.26774e-06 0.112331)
(6.11754e-05 3.33233e-05 0.112291)
(-4.63645e-05 -3.34498e-05 0.112613)
(0.000145355 0.000128417 0.114771)
(-0.000385022 -0.000150448 0.113411)
(0.000494462 0.000341749 0.0751887)
(-0.00800848 -0.00324621 0.0250441)
(8.2862e-07 2.42275e-05 0.112565)
(1.05547e-05 2.41264e-05 0.112551)
(1.13586e-05 2.32247e-05 0.112523)
(2.1526e-05 2.26788e-05 0.112479)
(1.91317e-05 1.89581e-05 0.112423)
(3.0721e-05 1.96076e-05 0.11236)
(2.29423e-05 9.03645e-06 0.112302)
(3.76327e-05 1.69997e-05 0.112256)
(2.43112e-05 -8.30226e-06 0.112202)
(4.40897e-05 2.29191e-05 0.112194)
(6.62431e-05 -6.58512e-05 0.113139)
(-4.86603e-05 0.000179372 0.114022)
(0.000277636 -0.000188718 0.0885627)
(-0.00134497 -0.00208328 0.0388917)
(0.00209585 0.00342179 0.0120836)
(1.18189e-06 4.36463e-05 0.112509)
(1.16574e-05 4.23997e-05 0.112496)
(1.29903e-05 3.96324e-05 0.11247)
(2.16876e-05 3.60162e-05 0.112424)
(1.96711e-05 3.06593e-05 0.11236)
(2.6102e-05 2.61341e-05 0.112284)
(2.00041e-05 1.78526e-05 0.112206)
(2.72534e-05 1.42591e-05 0.112118)
(1.52351e-05 1.12364e-06 0.112004)
(8.85181e-06 -2.08618e-05 0.112227)
(4.10233e-05 5.47034e-05 0.114264)
(-0.000266802 -9.30422e-05 0.112115)
(0.000335993 0.000391499 0.0720174)
(0.000787688 0.0028373 0.0323451)
(-4.41962e-07 2.31664e-05 0.112454)
(6.55666e-06 2.28995e-05 0.112445)
(4.98333e-06 2.44567e-05 0.112424)
(1.25632e-05 2.26442e-05 0.112379)
(9.24862e-06 2.27595e-05 0.112304)
(1.79154e-05 1.98236e-05 0.112208)
(1.08789e-05 1.0557e-05 0.112093)
(2.13171e-05 1.36146e-05 0.111929)
(-5.24189e-06 7.84845e-07 0.111816)
(9.88995e-05 1.14103e-06 0.112679)
(-8.7854e-05 0.000101001 0.113535)
(0.000369801 -2.9091e-05 0.0875708)
(-0.0015409 -0.00223687 0.0360682)
(0.0031735 0.0027809 0.0188301)
(7.76562e-07 5.85079e-05 0.112388)
(1.29061e-05 5.60128e-05 0.112391)
(1.27065e-05 5.15305e-05 0.112387)
(2.00595e-05 4.48086e-05 0.112347)
(1.69912e-05 3.77042e-05 0.112258)
(1.40944e-05 2.73533e-05 0.112122)
(1.38031e-05 2.14306e-05 0.111934)
(1.94367e-05 1.98983e-05 0.111675)
(6.37842e-06 -4.82917e-05 0.111787)
(4.46497e-05 4.75243e-06 0.113778)
(-0.000306767 -0.000130615 0.11234)
(0.000397081 0.000401832 0.0736979)
(0.000662525 0.00192601 0.0320449)
(-2.75791e-06 -1.29496e-06 0.112308)
(-3.13619e-07 -1.37512e-06 0.11234)
(-6.07074e-06 1.07359e-05 0.112368)
(-1.00231e-06 6.97507e-06 0.112333)
(-8.01737e-06 2.40148e-05 0.112206)
(1.243e-06 1.48247e-05 0.112009)
(1.45202e-06 -6.17002e-06 0.111825)
(-4.8525e-05 4.14438e-06 0.111797)
(-1.84337e-05 -2.42561e-05 0.11265)
(-5.34264e-05 0.000292764 0.113556)
(0.000347066 -0.000230068 0.0886932)
(-0.0010913 -0.00347392 0.0386765)
(0.00114804 0.000866557 0.0145384)
(6.29349e-07 8.98517e-05 0.112158)
(2.46452e-05 8.49886e-05 0.112243)
(2.09628e-05 7.18784e-05 0.11232)
(3.30612e-05 6.12287e-05 0.112293)
(2.26267e-05 4.44052e-05 0.112198)
(-2.1679e-05 8.40376e-06 0.112232)
(-6.87719e-07 0.000100504 0.112687)
(-1.27928e-06 4.14073e-05 0.113791)
(0.000294826 -3.93722e-05 0.113566)
(-0.000560194 -0.000564187 0.112491)
(0.000469349 0.000592388 0.0704971)
(-0.000707285 -0.0056596 0.0266232)
(-6.99205e-06 -6.7962e-05 0.111954)
(-1.68103e-05 -7.17385e-05 0.112108)
(-3.00562e-05 -2.66859e-05 0.112319)
(-3.28576e-05 -4.62455e-05 0.112615)
(-6.60641e-05 6.66726e-05 0.113143)
(5.60081e-05 4.16503e-05 0.114268)
(9.84536e-05 -8.56073e-05 0.113541)
(-0.000119003 -0.000302685 0.112347)
(-0.000224565 0.000362546 0.088698)
(0.000582764 0.000474298 0.0705389)
(-0.0112333 -0.0112165 0.033009)
(-4.14266e-06 0.000161622 0.112304)
(6.19286e-05 0.000157925 0.112565)
(3.96051e-05 0.000118355 0.113499)
(0.000128543 0.000145374 0.114772)
(0.000179534 -4.89147e-05 0.114024)
(-9.23127e-05 -0.000266305 0.112116)
(-2.7974e-05 0.000368978 0.0875739)
(0.000406317 0.000400667 0.0737024)
(-0.0034742 -0.00109317 0.0386839)
(-0.00563889 -0.00070615 0.0266512)
(-8.78544e-06 -0.000185249 0.112816)
(-5.48174e-05 -0.000221124 0.113289)
(-3.526e-05 -0.000101214 0.116135)
(-0.000150164 -0.00038498 0.11341)
(-0.000188595 0.000277607 0.0885632)
(0.000391616 0.000336089 0.0720172)
(-0.00223634 -0.00154111 0.0360684)
(0.00192577 0.000662622 0.0320449)
(0.000867329 0.00114775 0.0145406)
(-3.58458e-05 0.00026014 0.0881914)
(9.40814e-05 0.000268022 0.0888615)
(-0.000116167 0.000172753 0.0937212)
(0.000341797 0.000494518 0.0751886)
(-0.00208328 -0.00134501 0.0388918)
(0.00283723 0.000787715 0.0323452)
(0.00278095 0.00317367 0.0188301)
(-1.96539e-05 0.00149766 0.0295292)
(-0.000120419 0.00150748 0.0298813)
(-0.00207295 0.000143798 0.0281647)
(-0.00324604 -0.00800857 0.0250442)
(0.00342183 0.00209585 0.0120836)
(3.15496e-07 7.06693e-08 0.112743)
(1.13051e-05 3.1017e-07 0.112711)
(1.11466e-05 1.23132e-07 0.112662)
(2.3994e-05 4.81578e-07 0.11261)
(1.74976e-05 -1.81345e-07 0.112557)
(3.63818e-05 5.04972e-07 0.112504)
(1.4944e-05 -1.27119e-06 0.11245)
(5.07302e-05 4.16155e-07 0.112385)
(-1.13555e-05 -3.4419e-06 0.112308)
(8.60811e-05 5.52988e-07 0.112161)
(-7.28785e-05 -7.70373e-06 0.111956)
(0.000156785 -3.82108e-06 0.112309)
(-0.000186804 -1.00961e-05 0.11282)
(0.000259151 -3.57298e-05 0.0881971)
(0.00149813 -1.90501e-05 0.029531)
(3.97335e-07 1.1018e-05 0.112711)
(1.12003e-05 1.10926e-05 0.112686)
(1.11559e-05 1.02113e-05 0.112644)
(2.3568e-05 1.02914e-05 0.112594)
(1.74361e-05 8.0956e-06 0.112543)
(3.52241e-05 9.65884e-06 0.112491)
(1.48997e-05 4.41449e-06 0.112441)
(4.84468e-05 1.15605e-05 0.112388)
(-1.11945e-05 -2.25338e-06 0.112339)
(8.10904e-05 2.43462e-05 0.112245)
(-7.62273e-05 -1.87945e-05 0.112109)
(0.000152353 6.13686e-05 0.112569)
(-0.000222867 -5.58038e-05 0.113294)
(0.000267497 9.39515e-05 0.0888676)
(0.00150804 -0.00012045 0.0298827)
(3.73567e-07 1.09683e-05 0.112663)
(1.04986e-05 1.1117e-05 0.112646)
(1.03452e-05 1.01437e-05 0.112611)
(2.18766e-05 1.06224e-05 0.112565)
(1.68624e-05 7.59666e-06 0.112515)
(3.26836e-05 9.83949e-06 0.112464)
(1.68863e-05 1.86843e-06 0.11242)
(4.39496e-05 1.06139e-05 0.112384)
(1.7379e-06 -8.42318e-06 0.112366)
(6.8023e-05 2.04013e-05 0.112321)
(-3.18553e-05 -3.26785e-05 0.11232)
(0.000114448 3.9493e-05 0.113504)
(-0.000102351 -3.63064e-05 0.11614)
(0.00017122 -0.000115946 0.0937271)
(0.000144067 -0.00207331 0.0281666)
(5.31024e-07 2.37621e-05 0.11261)
(1.03752e-05 2.34982e-05 0.112596)
(1.06629e-05 2.16873e-05 0.112567)
(2.10231e-05 2.09885e-05 0.112524)
(1.66506e-05 1.67523e-05 0.112472)
(2.94865e-05 1.75913e-05 0.112419)
(1.57039e-05 8.69665e-06 0.112374)
(3.80067e-05 1.70253e-05 0.112345)
(-1.29838e-06 -4.00418e-06 0.112331)
(5.70244e-05 3.29328e-05 0.112294)
(-5.0254e-05 -3.72233e-05 0.112616)
(0.000141345 0.000129093 0.114776)
(-0.000386325 -0.000151986 0.113416)
(0.000493735 0.000342823 0.0751928)
(-0.0080086 -0.00324645 0.0250449)
(1.01272e-07 1.73536e-05 0.112557)
(8.42419e-06 1.73761e-05 0.112544)
(7.83434e-06 1.66963e-05 0.112516)
(1.69419e-05 1.65746e-05 0.112473)
(1.34533e-05 1.32494e-05 0.112418)
(2.4618e-05 1.45224e-05 0.112356)
(1.62581e-05 4.50332e-06 0.1123)
(3.10036e-05 1.30569e-05 0.112256)
(1.79345e-05 -1.0906e-05 0.112203)
(3.92031e-05 2.19064e-05 0.112196)
(6.2173e-05 -6.82038e-05 0.113143)
(-5.02928e-05 0.000179424 0.114027)
(0.000277255 -0.000189255 0.0885664)
(-0.00134547 -0.00208293 0.0388931)
(0.00209596 0.00342166 0.012084)
(5.30226e-07 3.62696e-05 0.112504)
(9.72025e-06 3.5189e-05 0.112491)
(9.86248e-06 3.26067e-05 0.112465)
(1.75874e-05 2.94912e-05 0.11242)
(1.45994e-05 2.45733e-05 0.112357)
(2.0745e-05 2.07999e-05 0.112282)
(1.41098e-05 1.33072e-05 0.112205)
(2.24288e-05 1.01771e-05 0.112119)
(9.78582e-06 -1.43769e-06 0.112005)
(4.95535e-06 -2.32437e-05 0.11223)
(3.81269e-05 5.43504e-05 0.114268)
(-0.000268902 -9.28879e-05 0.11212)
(0.000336254 0.00039154 0.0720207)
(0.000787422 0.00283742 0.0323463)
(-9.50923e-07 1.48282e-05 0.112449)
(4.7775e-06 1.48177e-05 0.112441)
(2.14428e-06 1.67397e-05 0.11242)
(8.91665e-06 1.55514e-05 0.112375)
(4.75678e-06 1.60356e-05 0.112302)
(1.33507e-05 1.38932e-05 0.112207)
(5.44815e-06 5.11963e-06 0.112093)
(1.66864e-05 9.50016e-06 0.111931)
(-9.91241e-06 -2.59369e-06 0.111818)
(9.61884e-05 -7.16337e-07 0.112682)
(-8.94468e-05 9.9252e-05 0.113539)
(0.000369058 -2.93792e-05 0.0875745)
(-0.00154085 -0.00223689 0.0360694)
(0.00317348 0.00278079 0.018831)
(4.17333e-07 5.07486e-05 0.112385)
(1.15907e-05 4.84677e-05 0.112389)
(1.05658e-05 4.3975e-05 0.112385)
(1.69436e-05 3.80775e-05 0.112346)
(1.30671e-05 3.11701e-05 0.112258)
(1.00174e-05 2.25593e-05 0.112123)
(9.73119e-06 1.70566e-05 0.111936)
(1.67024e-05 1.72247e-05 0.111679)
(3.1886e-06 -5.06081e-05 0.111791)
(4.22623e-05 3.90408e-06 0.113782)
(-0.000308359 -0.000131891 0.112345)
(0.000396559 0.000402181 0.0737014)
(0.000662756 0.00192584 0.0320459)
(-3.08009e-06 -1.14594e-05 0.112308)
(-1.88486e-06 -1.12513e-05 0.11234)
(-8.09898e-06 1.6567e-06 0.112367)
(-3.64521e-06 -1.40218e-06 0.112334)
(-1.05905e-05 1.77089e-05 0.112207)
(-1.16507e-06 9.48774e-06 0.112011)
(-1.80848e-06 -1.01314e-05 0.111828)
(-5.09858e-05 2.09513e-06 0.111801)
(-2.12695e-05 -2.31655e-05 0.112653)
(-5.54806e-05 0.000290608 0.113558)
(0.000346333 -0.000232021 0.0886956)
(-0.0010916 -0.00347416 0.0386778)
(0.00114823 0.000866406 0.0145389)
(5.84351e-07 8.61326e-05 0.11216)
(2.43977e-05 8.11788e-05 0.112245)
(2.03033e-05 6.802e-05 0.112322)
(3.2704e-05 5.70307e-05 0.112296)
(2.17386e-05 3.95773e-05 0.112201)
(-2.3351e-05 4.45971e-06 0.112236)
(-1.25802e-06 9.77171e-05 0.112692)
(1.36658e-06 4.03223e-05 0.113799)
(0.000291446 -4.44046e-05 0.113576)
(-0.000566605 -0.0005659 0.112493)
(0.000469817 0.000587001 0.0705008)
(-0.000706272 -0.00566001 0.0266236)
(-7.42225e-06 -7.28921e-05 0.111956)
(-1.84799e-05 -7.6176e-05 0.112109)
(-3.24379e-05 -3.17946e-05 0.112321)
(-3.64753e-05 -5.00941e-05 0.112617)
(-6.835e-05 6.26438e-05 0.113146)
(5.58411e-05 3.86635e-05 0.114272)
(9.8528e-05 -8.79115e-05 0.113544)
(-0.000123228 -0.000306333 0.112357)
(-0.000227936 0.000354874 0.088684)
(0.000586808 0.000471815 0.0705365)
(-0.0112489 -0.011206 0.0330078)
(-3.70879e-06 0.000156892 0.112309)
(6.14941e-05 0.000152452 0.11257)
(3.95072e-05 0.000114484 0.113504)
(0.000129298 0.000141377 0.114777)
(0.000179661 -5.06611e-05 0.114028)
(-9.20014e-05 -0.000268465 0.112121)
(-2.86125e-05 0.000368157 0.087576)
(0.000404932 0.000398129 0.0737051)
(-0.00348402 -0.00109464 0.0386808)
(-0.00563182 -0.000710934 0.0266382)
(-9.85338e-06 -0.00018675 0.11282)
(-5.55683e-05 -0.000222792 0.113293)
(-3.61173e-05 -0.000102304 0.11614)
(-0.000151618 -0.000386296 0.113416)
(-0.000189102 0.000277193 0.0885667)
(0.000391736 0.000336365 0.0720206)
(-0.00223649 -0.00154101 0.0360698)
(0.00192521 0.000662674 0.0320464)
(0.000866224 0.00114883 0.0145399)
(-3.55612e-05 0.000259216 0.0881965)
(9.40699e-05 0.000267529 0.0888662)
(-0.000115989 0.000171268 0.0937264)
(0.000342899 0.000493773 0.0751928)
(-0.00208292 -0.00134553 0.0388931)
(0.00283734 0.000787465 0.0323463)
(0.00278085 0.00317364 0.018831)
(-1.95139e-05 0.00149806 0.0295304)
(-0.000120611 0.001508 0.0298824)
(-0.00207308 0.000143899 0.0281658)
(-0.00324629 -0.00800869 0.025045)
(0.0034217 0.00209596 0.012084)
(-3.39729e-07 -5.7452e-07 0.112735)
(9.51389e-06 -2.80574e-07 0.112703)
(7.93383e-06 -4.43909e-07 0.112655)
(1.96695e-05 -7.58102e-08 0.112604)
(1.20967e-05 -7.20841e-07 0.112552)
(3.05585e-05 6.71337e-08 0.1125)
(7.85446e-06 -1.68408e-06 0.112446)
(4.54681e-05 2.31163e-07 0.112383)
(-1.90323e-05 -3.77627e-06 0.112308)
(8.30049e-05 6.86093e-07 0.112162)
(-7.67335e-05 -8.71352e-06 0.111958)
(0.000152709 -3.72525e-06 0.112313)
(-0.000187973 -1.07596e-05 0.112823)
(0.000258197 -3.5429e-05 0.0882007)
(0.00149862 -1.91354e-05 0.0295315)
(-1.88061e-07 9.17311e-06 0.112703)
(9.27824e-06 9.10868e-06 0.112679)
(7.95918e-06 8.27914e-06 0.112637)
(1.92805e-05 8.4233e-06 0.112588)
(1.21541e-05 6.35625e-06 0.112537)
(2.95389e-05 8.08759e-06 0.112487)
(8.03353e-06 2.9266e-06 0.112437)
(4.31854e-05 1.07116e-05 0.112386)
(-1.85928e-05 -4.06315e-06 0.11234)
(7.73577e-05 2.40805e-05 0.112247)
(-8.00419e-05 -2.05637e-05 0.11211)
(0.000148591 6.09668e-05 0.112573)
(-0.000223916 -5.63835e-05 0.113297)
(0.000266574 9.3984e-05 0.0888711)
(0.00150823 -0.000120692 0.0298832)
(-1.75451e-07 7.7847e-06 0.112656)
(8.62001e-06 7.92418e-06 0.112639)
(7.24797e-06 7.0257e-06 0.112604)
(1.7745e-05 7.67964e-06 0.112559)
(1.17589e-05 4.81661e-06 0.112509)
(2.71123e-05 7.37776e-06 0.112461)
(1.05195e-05 -4.11508e-07 0.112417)
(3.83584e-05 9.14321e-06 0.112382)
(-5.34401e-06 -1.04089e-05 0.112366)
(6.49513e-05 1.97763e-05 0.112322)
(-3.58196e-05 -3.41135e-05 0.112322)
(0.000111529 3.96731e-05 0.113508)
(-0.000103062 -3.72755e-05 0.116144)
(0.000169981 -0.000115865 0.0937311)
(0.000144415 -0.00207338 0.0281673)
(-4.40122e-08 1.9419e-05 0.112604)
(8.51888e-06 1.92007e-05 0.11259)
(7.71598e-06 1.75363e-05 0.112561)
(1.70735e-05 1.70439e-05 0.112519)
(1.18504e-05 1.30521e-05 0.112468)
(2.4303e-05 1.42798e-05 0.112416)
(9.82956e-06 5.69962e-06 0.112372)
(3.3037e-05 1.48046e-05 0.112343)
(-7.83822e-06 -6.62342e-06 0.112332)
(5.38174e-05 3.26197e-05 0.112296)
(-5.32309e-05 -4.01772e-05 0.112618)
(0.000138013 0.000129674 0.11478)
(-0.000387344 -0.000153432 0.113419)
(0.000493162 0.000343573 0.075196)
(-0.00800865 -0.00324662 0.0250455)
(-4.02808e-07 1.19423e-05 0.112551)
(6.73776e-06 1.20822e-05 0.112538)
(5.08981e-06 1.15727e-05 0.112511)
(1.32607e-05 1.17648e-05 0.112469)
(8.98364e-06 8.75746e-06 0.112414)
(1.97525e-05 1.04579e-05 0.112354)
(1.0985e-05 8.75377e-07 0.112298)
(2.57994e-05 1.02459e-05 0.112255)
(1.27708e-05 -1.32296e-05 0.112203)
(3.5806e-05 2.13031e-05 0.112198)
(5.90877e-05 -7.02508e-05 0.113146)
(-5.17085e-05 0.000179441 0.114031)
(0.000276927 -0.000189763 0.088569)
(-0.00134592 -0.0020826 0.038894)
(0.00209607 0.00342143 0.0120843)
(7.04418e-08 3.04653e-05 0.1125)
(8.15128e-06 2.95046e-05 0.112487)
(7.39889e-06 2.7049e-05 0.112461)
(1.42686e-05 2.43102e-05 0.112418)
(1.05446e-05 1.97127e-05 0.112355)
(1.64272e-05 1.64733e-05 0.112281)
(9.49418e-06 9.76778e-06 0.112204)
(1.8772e-05 6.71272e-06 0.11212)
(5.46485e-06 -3.28086e-06 0.112006)
(2.03856e-06 -2.51918e-05 0.112233)
(3.5724e-05 5.39067e-05 0.114271)
(-0.000270584 -9.29152e-05 0.112123)
(0.000336372 0.000391428 0.0720231)
(0.000787374 0.00283735 0.0323471)
(-1.3121e-06 7.69639e-06 0.112446)
(3.33689e-06 7.92992e-06 0.112437)
(-9.82231e-08 1.03593e-05 0.112417)
(5.93088e-06 9.66847e-06 0.112373)
(1.14046e-06 1.0741e-05 0.1123)
(9.80531e-06 9.24389e-06 0.112206)
(1.03372e-06 8.12952e-07 0.112092)
(1.31882e-05 6.57429e-06 0.111932)
(-1.35413e-05 -5.21728e-06 0.11182)
(9.42017e-05 -2.16529e-06 0.112685)
(-9.05824e-05 9.78635e-05 0.113541)
(0.000368647 -2.97186e-05 0.0875771)
(-0.00154097 -0.0022368 0.0360704)
(0.00317356 0.00278114 0.0188315)
(2.32961e-07 4.55179e-05 0.112383)
(1.07728e-05 4.32551e-05 0.112387)
(9.10651e-06 3.83904e-05 0.112383)
(1.47084e-05 3.31109e-05 0.112345)
(1.02392e-05 2.59952e-05 0.112258)
(6.68034e-06 1.88831e-05 0.112124)
(6.82571e-06 1.34728e-05 0.111937)
(1.47385e-05 1.5126e-05 0.111682)
(3.76568e-07 -5.36358e-05 0.111794)
(4.05723e-05 2.85577e-06 0.113786)
(-0.000309821 -0.000133265 0.112348)
(0.000396142 0.000401952 0.073704)
(0.000662726 0.00192554 0.0320471)
(-3.41056e-06 -1.91228e-05 0.112308)
(-3.6718e-06 -1.86316e-05 0.11234)
(-1.00922e-05 -5.42179e-06 0.112368)
(-6.23105e-06 -7.90556e-06 0.112334)
(-1.29338e-05 1.26822e-05 0.112207)
(-3.1521e-06 5.34335e-06 0.112012)
(-4.67059e-06 -1.34778e-05 0.11183)
(-5.38798e-05 -1.82522e-07 0.111804)
(-2.37451e-05 -2.4067e-05 0.112655)
(-5.60443e-05 0.000288228 0.113561)
(0.000345546 -0.000231652 0.0886973)
(-0.00109226 -0.00347448 0.0386786)
(0.00114844 0.000866288 0.0145392)
(7.1927e-07 8.30539e-05 0.112162)
(2.41536e-05 7.74398e-05 0.112247)
(1.97083e-05 6.49539e-05 0.112324)
(3.2505e-05 5.37972e-05 0.112298)
(2.12397e-05 3.60093e-05 0.112202)
(-2.50438e-05 1.68467e-06 0.112239)
(-2.259e-06 9.50545e-05 0.112695)
(2.11321e-06 3.96546e-05 0.113803)
(0.00028875 -5.21872e-05 0.113577)
(-0.000568558 -0.000568967 0.112496)
(0.000468692 0.000589384 0.0705024)
(-0.000708237 -0.00566023 0.0266245)
(-8.43739e-06 -7.67452e-05 0.111958)
(-2.02184e-05 -7.99746e-05 0.11211)
(-3.39037e-05 -3.57666e-05 0.112323)
(-3.95846e-05 -5.30902e-05 0.112619)
(-7.02668e-05 5.94615e-05 0.113148)
(5.47709e-05 3.60383e-05 0.114275)
(9.80098e-05 -8.99632e-05 0.113546)
(-0.000130534 -0.000309591 0.112359)
(-0.000231351 0.000347859 0.0886873)
(0.000584295 0.000468836 0.0705368)
(-0.0112342 -0.0112217 0.0330084)
(-3.59844e-06 0.00015282 0.112313)
(6.11029e-05 0.000148689 0.112573)
(3.96776e-05 0.000111551 0.113508)
(0.000129897 0.000138078 0.11478)
(0.000179596 -5.19371e-05 0.114032)
(-9.24597e-05 -0.000270314 0.112124)
(-2.96436e-05 0.000368222 0.0875779)
(0.00040255 0.000396371 0.0737068)
(-0.00348438 -0.00109257 0.0386821)
(-0.00563123 -0.000711817 0.0266398)
(-1.05163e-05 -0.000187924 0.112823)
(-5.61364e-05 -0.00022386 0.113296)
(-3.70832e-05 -0.000103027 0.116143)
(-0.000153054 -0.000387335 0.113419)
(-0.000189608 0.000276839 0.0885692)
(0.000391586 0.000336475 0.072023)
(-0.00223661 -0.00154108 0.0360706)
(0.00192515 0.000662744 0.0320473)
(0.000865611 0.00114947 0.0145402)
(-3.52576e-05 0.000258259 0.0882001)
(9.41129e-05 0.000266584 0.0888697)
(-0.000115907 0.000169998 0.0937304)
(0.000343647 0.000493169 0.0751959)
(-0.00208259 -0.00134598 0.038894)
(0.00283729 0.000787416 0.0323471)
(0.0027812 0.00317372 0.0188315)
(-1.96067e-05 0.00149855 0.0295309)
(-0.000120862 0.00150817 0.0298829)
(-0.00207315 0.000144236 0.0281664)
(-0.00324646 -0.00800875 0.0250457)
(0.00342148 0.00209608 0.0120843)
(-8.07501e-07 -1.00451e-06 0.112729)
(7.80742e-06 -7.11108e-07 0.112697)
(5.42627e-06 -8.65133e-07 0.112649)
(1.6184e-05 -4.93e-07 0.112599)
(7.87727e-06 -1.16522e-06 0.112547)
(2.59248e-05 -2.92456e-07 0.112497)
(1.62619e-06 -2.07135e-06 0.112443)
(4.20703e-05 8.70979e-08 0.112381)
(-2.48396e-05 -4.16837e-06 0.112309)
(8.01633e-05 9.66156e-07 0.112164)
(-7.98151e-05 -9.34187e-06 0.111958)
(0.000149192 -3.41883e-06 0.112316)
(-0.000189027 -1.15718e-05 0.112825)
(0.000257052 -3.51974e-05 0.0882034)
(0.001499 -1.91679e-05 0.0295319)
(-6.11532e-07 7.39612e-06 0.112698)
(7.66103e-06 7.39007e-06 0.112673)
(5.492e-06 6.65895e-06 0.112632)
(1.57839e-05 6.79796e-06 0.112584)
(7.99126e-06 4.85157e-06 0.112533)
(2.49664e-05 6.61885e-06 0.112484)
(2.04111e-06 1.54983e-06 0.112435)
(3.97263e-05 9.85184e-06 0.112385)
(-2.40045e-05 -5.83354e-06 0.11234)
(7.4283e-05 2.38187e-05 0.112248)
(-8.3043e-05 -2.2003e-05 0.11211)
(0.000144889 6.07272e-05 0.112576)
(-0.000225042 -5.67146e-05 0.113299)
(0.000265928 9.406e-05 0.0888738)
(0.00150837 -0.000120765 0.0298837)
(-5.86375e-07 5.33448e-06 0.11265)
(7.07039e-06 5.45976e-06 0.112633)
(4.83337e-06 4.58575e-06 0.112599)
(1.4375e-05 5.3312e-06 0.112555)
(7.6961e-06 2.59735e-06 0.112505)
(2.26073e-05 5.36051e-06 0.112458)
(4.90131e-06 -2.18755e-06 0.112414)
(3.45592e-05 8.08713e-06 0.11238)
(-1.05438e-05 -1.2146e-05 0.112366)
(6.24077e-05 1.933e-05 0.112323)
(-3.88624e-05 -3.55903e-05 0.112323)
(0.0001091 3.96753e-05 0.113511)
(-0.000103702 -3.76731e-05 0.116146)
(0.000168711 -0.000115791 0.0937341)
(0.000144447 -0.00207341 0.0281678)
(-4.91063e-07 1.5925e-05 0.112599)
(6.91229e-06 1.56999e-05 0.112586)
(5.36443e-06 1.41506e-05 0.112557)
(1.37975e-05 1.37765e-05 0.112515)
(8.01914e-06 1.002e-05 0.112464)
(2.01756e-05 1.15548e-05 0.112414)
(4.79915e-06 3.26495e-06 0.11237)
(2.96129e-05 1.34851e-05 0.112342)
(-1.26309e-05 -9.27123e-06 0.112332)
(5.09806e-05 3.23919e-05 0.112298)
(-5.57585e-05 -4.27191e-05 0.112619)
(0.000135356 0.000130099 0.114783)
(-0.000388333 -0.000154765 0.113422)
(0.000492327 0.000343986 0.0751984)
(-0.00800868 -0.00324686 0.025046)
(-8.10639e-07 7.72218e-06 0.112547)
(5.29658e-06 7.90952e-06 0.112534)
(2.90859e-06 7.49307e-06 0.112507)
(1.02439e-05 7.92643e-06 0.112465)
(5.46387e-06 5.22473e-06 0.112411)
(1.58482e-05 7.2424e-06 0.112352)
(6.7744e-06 -1.9646e-06 0.112296)
(2.17938e-05 8.49226e-06 0.112254)
(8.67048e-06 -1.5731e-05 0.112204)
(3.33747e-05 2.07882e-05 0.1122)
(5.66817e-05 -7.19598e-05 0.113148)
(-5.29676e-05 0.000179348 0.114034)
(0.000276239 -0.000190347 0.0885709)
(-0.00134636 -0.00208265 0.0388947)
(0.00209614 0.00342138 0.0120845)
(-3.26454e-07 2.58713e-05 0.112497)
(6.68505e-06 2.49367e-05 0.112484)
(5.38148e-06 2.25598e-05 0.112459)
(1.15385e-05 2.0168e-05 0.112415)
(7.33626e-06 1.58026e-05 0.112353)
(1.29944e-05 1.30152e-05 0.11228)
(5.92951e-06 7.04492e-06 0.112203)
(1.56918e-05 4.13488e-06 0.11212)
(1.91436e-06 -4.71353e-06 0.112006)
(5.83133e-10 -2.67436e-05 0.112235)
(3.35685e-05 5.34279e-05 0.114273)
(-0.000272086 -9.30661e-05 0.112126)
(0.000336208 0.000391088 0.0720248)
(0.000787193 0.00283774 0.0323476)
(-1.62631e-06 1.42247e-06 0.112443)
(1.99945e-06 1.92478e-06 0.112435)
(-1.85571e-06 4.73494e-06 0.112415)
(3.48996e-06 4.65313e-06 0.112371)
(-1.69567e-06 6.57214e-06 0.112298)
(7.08966e-06 5.62943e-06 0.112205)
(-2.29704e-06 -2.46902e-06 0.112092)
(1.04763e-05 4.2679e-06 0.111933)
(-1.66098e-05 -7.20296e-06 0.111821)
(9.27369e-05 -3.39199e-06 0.112687)
(-9.15713e-05 9.66434e-05 0.113544)
(0.000367997 -3.00094e-05 0.0875793)
(-0.0015409 -0.00223691 0.0360707)
(0.00317355 0.00278121 0.0188315)
(1.01372e-07 4.21441e-05 0.112381)
(9.95495e-06 3.98496e-05 0.112385)
(8.07823e-06 3.45863e-05 0.112381)
(1.34332e-05 2.9699e-05 0.112344)
(8.43089e-06 2.19451e-05 0.112257)
(4.13581e-06 1.58389e-05 0.112125)
(4.56015e-06 1.06378e-05 0.111938)
(1.29462e-05 1.3191e-05 0.111684)
(-2.07806e-06 -5.61499e-05 0.111796)
(3.93522e-05 2.09584e-06 0.113788)
(-0.000311148 -0.000134716 0.11235)
(0.000395641 0.000401751 0.0737058)
(0.00066282 0.00192558 0.0320474)
(-3.80241e-06 -2.49141e-05 0.112309)
(-5.43191e-06 -2.40156e-05 0.11234)
(-1.1851e-05 -1.06179e-05 0.112368)
(-8.92172e-06 -1.26593e-05 0.112335)
(-1.54059e-05 8.62533e-06 0.112208)
(-4.66915e-06 1.98264e-06 0.112012)
(-6.93326e-06 -1.65e-05 0.111831)
(-5.63002e-05 -2.40099e-06 0.111806)
(-2.55599e-05 -2.55249e-05 0.112658)
(-5.63327e-05 0.000286863 0.113564)
(0.000344868 -0.000232878 0.0886989)
(-0.00109234 -0.00347475 0.0386792)
(0.00114853 0.00086617 0.0145396)
(1.02965e-06 8.02293e-05 0.112164)
(2.39221e-05 7.43115e-05 0.112249)
(1.93031e-05 6.24143e-05 0.112325)
(3.23634e-05 5.09798e-05 0.1123)
(2.0813e-05 3.35029e-05 0.112204)
(-2.65987e-05 -2.1177e-07 0.112241)
(-3.46906e-06 9.31494e-05 0.112698)
(1.84962e-06 3.91352e-05 0.113806)
(0.000287318 -5.49e-05 0.113578)
(-0.000569793 -0.000568209 0.112499)
(0.000469217 0.000586076 0.070503)
(-0.000707248 -0.00566015 0.0266248)
(-9.13059e-06 -7.98209e-05 0.111958)
(-2.16592e-05 -8.29486e-05 0.112111)
(-3.53284e-05 -3.88267e-05 0.112324)
(-4.22539e-05 -5.56629e-05 0.112621)
(-7.1851e-05 5.68927e-05 0.11315)
(5.37701e-05 3.37369e-05 0.114277)
(9.69838e-05 -9.12659e-05 0.113549)
(-0.000133826 -0.000311136 0.11236)
(-0.000231387 0.00034591 0.0886934)
(0.000587396 0.000467753 0.0705383)
(-0.0112483 -0.0112093 0.0330088)
(-3.25026e-06 0.000149283 0.112316)
(6.08698e-05 0.000145052 0.112576)
(3.96464e-05 0.000109105 0.113511)
(0.000130251 0.000135416 0.114783)
(0.00017946 -5.31097e-05 0.114035)
(-9.27973e-05 -0.000271982 0.112127)
(-3.01365e-05 0.00036788 0.08758)
(0.000401834 0.000395593 0.0737084)
(-0.00348441 -0.00109228 0.0386825)
(-0.00563115 -0.000713106 0.0266411)
(-1.13127e-05 -0.000188997 0.112825)
(-5.64671e-05 -0.000225037 0.113298)
(-3.75016e-05 -0.000103675 0.116146)
(-0.000154413 -0.000388334 0.113422)
(-0.000190193 0.0002762 0.088571)
(0.00039122 0.0003363 0.0720245)
(-0.00223688 -0.00154102 0.0360708)
(0.00192534 0.000662883 0.0320472)
(0.000865398 0.00114969 0.0145406)
(-3.50285e-05 0.000257111 0.0882029)
(9.42025e-05 0.000265888 0.0888724)
(-0.000115824 0.000168731 0.0937334)
(0.000344066 0.000492341 0.0751983)
(-0.00208263 -0.00134641 0.0388948)
(0.00283769 0.000787231 0.0323476)
(0.00278125 0.00317371 0.0188315)
(-1.96487e-05 0.00149893 0.0295313)
(-0.000120942 0.00150832 0.0298833)
(-0.00207318 0.000144301 0.028167)
(-0.00324669 -0.00800878 0.0250461)
(0.00342142 0.00209613 0.0120845)
(-1.1002e-06 -1.24356e-06 0.112725)
(6.02747e-06 -1.03728e-06 0.112693)
(3.36651e-06 -1.18715e-06 0.112645)
(1.31736e-05 -8.23755e-07 0.112595)
(4.44354e-06 -1.52551e-06 0.112544)
(2.21461e-05 -5.50888e-07 0.112494)
(-3.81092e-06 -2.36902e-06 0.112442)
(3.98432e-05 9.83406e-08 0.11238)
(-2.91913e-05 -4.43444e-06 0.112309)
(7.73943e-05 1.0739e-06 0.112165)
(-8.22447e-05 -9.99844e-06 0.111958)
(0.000146809 -3.16192e-06 0.112318)
(-0.000189569 -1.17377e-05 0.112827)
(0.00025593 -3.49968e-05 0.0882059)
(0.00149895 -1.9105e-05 0.0295323)
(-9.53464e-07 5.4883e-06 0.112693)
(6.16268e-06 5.68678e-06 0.112669)
(3.52722e-06 5.07259e-06 0.112627)
(1.28242e-05 5.2421e-06 0.11258)
(4.64491e-06 3.44468e-06 0.11253)
(2.12304e-05 5.25932e-06 0.112481)
(-3.11884e-06 1.47756e-07 0.112433)
(3.75228e-05 8.9787e-06 0.112383)
(-2.8141e-05 -7.32036e-06 0.11234)
(7.12192e-05 2.35358e-05 0.112249)
(-8.5292e-05 -2.28649e-05 0.112111)
(0.000143065 6.05614e-05 0.112578)
(-0.000225613 -5.69356e-05 0.113301)
(0.000264819 9.40326e-05 0.0888763)
(0.0015083 -0.000120846 0.0298842)
(-9.50959e-07 3.38356e-06 0.112646)
(5.61171e-06 3.48221e-06 0.112629)
(2.92078e-06 2.60492e-06 0.112596)
(1.1544e-05 3.41011e-06 0.112551)
(4.45848e-06 8.20971e-07 0.112502)
(1.88342e-05 3.81789e-06 0.112455)
(-4.81341e-08 -3.59336e-06 0.112412)
(3.22404e-05 7.41432e-06 0.112379)
(-1.42989e-05 -1.35087e-05 0.112367)
(6.02385e-05 1.91909e-05 0.112325)
(-4.11485e-05 -3.63615e-05 0.112324)
(0.000107337 3.9706e-05 0.113513)
(-0.000104074 -3.86324e-05 0.116148)
(0.000167405 -0.000115895 0.0937367)
(0.000144223 -0.00207347 0.0281683)
(-9.06565e-07 1.29083e-05 0.112595)
(5.38428e-06 1.27624e-05 0.112582)
(3.45596e-06 1.1315e-05 0.112553)
(1.10419e-05 1.10522e-05 0.112512)
(5.0517e-06 7.56721e-06 0.112461)
(1.68121e-05 9.35494e-06 0.112412)
(5.09608e-07 1.30275e-06 0.112369)
(2.74482e-05 1.24578e-05 0.112341)
(-1.6225e-05 -1.16034e-05 0.112333)
(4.84934e-05 3.22281e-05 0.112299)
(-5.78117e-05 -4.49659e-05 0.11262)
(0.0001333 0.000130455 0.114785)
(-0.00038908 -0.000156049 0.113424)
(0.000491468 0.000344175 0.0752004)
(-0.00800872 -0.00324716 0.0250465)
(-1.11762e-06 4.16361e-06 0.112544)
(4.01905e-06 4.49987e-06 0.11253)
(1.20918e-06 4.21027e-06 0.112504)
(7.79544e-06 4.94811e-06 0.112463)
(2.75101e-06 2.50962e-06 0.112408)
(1.25692e-05 4.708e-06 0.11235)
(2.99937e-06 -4.21736e-06 0.112295)
(1.91099e-05 7.06341e-06 0.112254)
(5.78648e-06 -1.82372e-05 0.112205)
(3.12993e-05 2.03487e-05 0.112201)
(5.49111e-05 -7.34686e-05 0.113149)
(-5.38007e-05 0.000179231 0.114036)
(0.000275627 -0.000190944 0.0885724)
(-0.00134699 -0.00208284 0.0388957)
(0.00209629 0.00342142 0.0120848)
(-5.52264e-07 2.22364e-05 0.112494)
(5.43318e-06 2.12968e-05 0.112481)
(3.90417e-06 1.8808e-05 0.112456)
(9.35015e-06 1.68073e-05 0.112413)
(4.81251e-06 1.256e-05 0.112351)
(1.00954e-05 1.01035e-05 0.112279)
(2.74832e-06 5.21702e-06 0.112203)
(1.32789e-05 2.55862e-06 0.11212)
(-6.8673e-07 -5.94719e-06 0.112007)
(-1.48589e-06 -2.79457e-05 0.112236)
(3.17851e-05 5.30366e-05 0.114274)
(-0.000273291 -9.32827e-05 0.112128)
(0.000335873 0.000390484 0.0720261)
(0.000786739 0.00283786 0.0323483)
(-1.97521e-06 -3.94953e-06 0.112442)
(6.04382e-07 -3.15918e-06 0.112433)