/*--------------------------------*- C++ -*----------------------------------*\
| =========                 |                                                 |
| \\      /  F ield         | OpenFOAM: The Open Source CFD Toolbox           |
|  \\    /   O peration     | Version:  2.1.1                                 |
|   \\  /    A nd           | Web:      www.OpenFOAM.org                      |
|    \\/     M anipulation  |                                                 |
\*---------------------------------------------------------------------------*/
FoamFile
{
    version     2.0;
    format      ascii;
    class       surfaceScalarField;
    location    "0.001";
    object      phi;
}
// * * * * * * * * * * * * * * * * * * * * * * * * * * * * * * * * * * * * * //

dimensions      [0 3 -1 0 0 0 0];

internalField   nonuniform List<scalar> 
28985
(
4.44958e-14
4.59747e-14
1.14446e-09
-1.14456e-09
9.09318e-14
4.68106e-14
1.14362e-09
-1.14372e-09
1.38443e-13
4.45924e-14
1.14253e-09
-1.14262e-09
1.76977e-13
4.48027e-14
1.1414e-09
-1.14149e-09
2.17581e-13
3.53044e-14
1.1403e-09
-1.14037e-09
2.36467e-13
3.86333e-14
1.13919e-09
-1.13925e-09
2.68029e-13
1.625e-14
1.13807e-09
-1.13811e-09
2.47721e-13
4.25371e-14
1.13676e-09
-1.13678e-09
2.85555e-13
-2.58563e-14
1.13508e-09
-1.13509e-09
1.79211e-13
8.87476e-14
1.13233e-09
-1.13231e-09
2.8007e-13
-1.26468e-13
1.1279e-09
-1.12787e-09
1.05856e-14
2.16443e-13
1.1241e-09
-1.12404e-09
2.27871e-13
-2.62238e-13
1.12197e-09
-1.12192e-09
6.19316e-11
2.08018e-13
9.00615e-10
6.27758e-11
-6.19481e-11
-6.27948e-11
-9.00556e-10
1.43958e-11
-1.06618e-12
9.79208e-11
-4.93105e-11
4.55002e-14
9.24901e-14
1.14363e-09
-1.14373e-09
9.11688e-14
9.27415e-14
1.14311e-09
-1.1432e-09
1.36709e-13
8.87889e-14
1.14213e-09
-1.14222e-09
1.74388e-13
8.79276e-14
1.14107e-09
-1.14115e-09
2.11952e-13
7.33539e-14
1.13997e-09
-1.14005e-09
2.2865e-13
8.19259e-14
1.13887e-09
-1.13893e-09
2.55858e-13
3.94237e-14
1.13781e-09
-1.13786e-09
2.31698e-13
9.23201e-14
1.13673e-09
-1.13676e-09
2.63076e-13
-3.88258e-14
1.13564e-09
-1.13566e-09
1.13767e-13
2.25383e-13
1.13419e-09
-1.13417e-09
2.36069e-13
-2.58235e-13
1.13213e-09
-1.13212e-09
-1.70613e-13
5.74519e-13
1.13188e-09
-1.13183e-09
1.36536e-13
-6.06518e-13
1.13371e-09
-1.13368e-09
6.46723e-11
4.26844e-14
9.04451e-10
6.59953e-11
-6.45142e-11
-6.59043e-11
-9.04398e-10
9.26727e-13
1.42396e-11
1.53984e-12
9.57823e-11
-4.78158e-11
4.46263e-14
1.39992e-13
1.14253e-09
-1.14263e-09
8.86304e-14
1.3812e-13
1.14222e-09
-1.14231e-09
1.31603e-13
1.31965e-13
1.14144e-09
-1.14153e-09
1.70213e-13
1.27153e-13
1.14042e-09
-1.14049e-09
2.06542e-13
1.07856e-13
1.13937e-09
-1.13944e-09
2.3118e-13
1.11519e-13
1.13833e-09
-1.13838e-09
2.56428e-13
5.92641e-14
1.1374e-09
-1.13744e-09
2.57844e-13
1.09992e-13
1.13664e-09
-1.13665e-09
2.774e-13
-4.26307e-14
1.13629e-09
-1.13631e-09
2.91986e-13
1.9576e-13
1.13636e-09
-1.13634e-09
2.89617e-13
-2.74352e-13
1.13726e-09
-1.13724e-09
2.18595e-13
5.95641e-13
1.14545e-09
-1.1454e-09
3.03089e-13
-7.40636e-13
1.17448e-09
-1.17443e-09
5.74128e-11
8.96506e-13
1.00272e-09
3.99923e-11
-5.73504e-11
-4.06672e-11
-1.00266e-09
-4.35861e-12
8.46123e-12
9.52513e-13
1.11371e-10
-5.90136e-11
4.4446e-14
1.78331e-13
1.14141e-09
-1.14149e-09
8.7566e-14
1.75517e-13
1.14111e-09
-1.14119e-09
1.26729e-13
1.70474e-13
1.14051e-09
-1.14059e-09
1.6133e-13
1.61628e-13
1.13958e-09
-1.13965e-09
1.87971e-13
1.42392e-13
1.13841e-09
-1.13847e-09
2.03824e-13
1.41236e-13
1.1373e-09
-1.13735e-09
2.17379e-13
8.2187e-14
1.13638e-09
-1.13642e-09
1.99454e-13
1.3875e-13
1.13573e-09
-1.13574e-09
2.08746e-13
-4.34319e-14
1.13573e-09
-1.13573e-09
7.50911e-14
3.08324e-13
1.13634e-09
-1.13631e-09
2.71318e-13
-4.95398e-13
1.13935e-09
-1.13933e-09
-8.09976e-13
1.62744e-12
1.1575e-09
-1.15745e-09
3.44928e-13
-1.95058e-12
1.16358e-09
-1.16352e-09
4.25881e-11
4.4365e-11
7.92544e-10
4.82225e-11
-4.22491e-11
-4.81256e-11
5.77543e-11
-4.47842e-11
-5.65779e-11
-7.92495e-10
7.6823e-12
-6.89889e-12
7.82305e-11
-3.64261e-11
3.65319e-14
2.18972e-13
1.14029e-09
-1.14037e-09
7.43393e-14
2.12935e-13
1.13998e-09
-1.14005e-09
1.08513e-13
2.06881e-13
1.13939e-09
-1.13946e-09
1.42962e-13
1.88174e-13
1.13848e-09
-1.13854e-09
1.69476e-13
1.69091e-13
1.13727e-09
-1.13732e-09
2.00184e-13
1.49026e-13
1.13594e-09
-1.13598e-09
2.13734e-13
9.70047e-14
1.13468e-09
-1.13471e-09
2.52886e-13
1.06382e-13
1.13377e-09
-1.13377e-09
2.40134e-13
-2.82454e-14
1.13347e-09
-1.13347e-09
4.89614e-13
2.89294e-14
1.1337e-09
-1.13367e-09
6.31873e-14
-9.75792e-14
1.13953e-09
-1.1395e-09
1.29936e-12
3.40774e-13
1.15038e-09
-1.15033e-09
4.65157e-11
8.47062e-13
9.27833e-10
5.4979e-11
-4.78834e-11
-5.51497e-11
-9.27791e-10
1.34865e-11
6.95384e-12
1.34176e-10
-6.3735e-11
-3.4347e-12
-6.46711e-12
1.99466e-11
-1.00448e-11
3.88546e-14
2.37612e-13
1.13919e-09
-1.13924e-09
8.20109e-14
2.29367e-13
1.13887e-09
-1.13893e-09
1.11453e-13
2.31339e-13
1.13834e-09
-1.13839e-09
1.41294e-13
2.03659e-13
1.13733e-09
-1.13737e-09
1.49092e-13
1.99564e-13
1.13595e-09
-1.13599e-09
1.6152e-13
1.60778e-13
1.13435e-09
-1.13437e-09
1.51516e-13
1.19524e-13
1.13255e-09
-1.13256e-09
1.52908e-13
1.01116e-13
1.13094e-09
-1.13093e-09
5.64928e-14
5.16509e-14
1.12981e-09
-1.12979e-09
1.56383e-13
-1.02105e-13
1.13032e-09
-1.13029e-09
-8.90372e-13
9.11767e-13
1.14418e-09
-1.14414e-09
2.45028e-13
-8.47824e-13
1.13626e-09
-1.1362e-09
5.78714e-11
4.46015e-11
7.5658e-10
6.15488e-11
-5.7433e-11
-6.08088e-11
6.49604e-11
-4.51746e-11
-6.45121e-11
-7.5654e-10
-5.88931e-12
9.68067e-12
8.45108e-12
1.024e-10
-5.67708e-11
1.81439e-14
2.69212e-13
1.13806e-09
-1.13811e-09
4.10995e-14
2.56301e-13
1.13782e-09
-1.13787e-09
6.05467e-14
2.56594e-13
1.13741e-09
-1.13746e-09
8.33854e-14
2.16971e-13
1.13642e-09
-1.13645e-09
9.78467e-14
2.13179e-13
1.13471e-09
-1.13474e-09
1.21206e-13
1.50002e-13
1.1326e-09
-1.13262e-09
1.22535e-13
1.21002e-13
1.13018e-09
-1.13019e-09
9.24204e-14
1.18177e-13
1.1275e-09
-1.12748e-09
3.35863e-13
-2.15744e-13
1.12545e-09
-1.12542e-09
1.27934e-13
7.13163e-14
1.13004e-09
-1.13001e-09
1.25752e-12
-2.59055e-13
1.1407e-09
-1.14066e-09
4.691e-11
1.57408e-12
9.07618e-10
5.88729e-11
-4.81105e-11
-5.88765e-11
-9.07577e-10
1.44599e-11
6.92575e-12
1.2483e-10
-5.47039e-11
-1.13758e-11
-1.63274e-11
4.91886e-12
5.40241e-11
-3.12398e-11
4.27075e-14
2.49431e-13
1.13675e-09
-1.13677e-09
9.21074e-14
2.32547e-13
1.13674e-09
-1.13677e-09
1.09523e-13
2.57821e-13
1.13666e-09
-1.13668e-09
1.38063e-13
1.98746e-13
1.13577e-09
-1.13578e-09
1.05035e-13
2.51788e-13
1.13382e-09
-1.13383e-09
1.00199e-13
1.48735e-13
1.13102e-09
-1.13101e-09
1.18267e-13
8.20352e-14
1.12767e-09
-1.12765e-09
1.0435e-13
8.95135e-14
1.12337e-09
-1.12333e-09
1.89957e-13
-3.53622e-13
1.12039e-09
-1.12034e-09
-9.99532e-13
1.21685e-12
1.13396e-09
-1.13392e-09
3.8437e-13
-1.69209e-12
1.14018e-09
-1.14012e-09
5.83839e-11
4.3658e-11
7.81349e-10
6.27405e-11
-5.78795e-11
-6.18237e-11
5.82874e-11
-4.43125e-11
-5.71345e-11
-7.81308e-10
-5.61737e-12
1.13442e-11
4.51894e-12
1.02246e-10
-5.41081e-11
-2.22049e-14
2.85932e-13
1.13508e-09
-1.13508e-09
-3.57813e-14
2.63382e-13
1.13566e-09
-1.13568e-09
-3.96111e-14
2.77079e-13
1.13632e-09
-1.13634e-09
-4.12156e-14
2.07921e-13
1.13578e-09
-1.13579e-09
-2.64601e-14
2.38903e-13
1.13356e-09
-1.13356e-09
5.22926e-14
4.94195e-14
1.12993e-09
-1.12991e-09
-2.21605e-13
3.26301e-13
1.12564e-09
-1.1256e-09
-3.37499e-13
1.39305e-13
1.12075e-09
-1.12068e-09
-3.77132e-13
-3.77912e-13
1.12014e-09
-1.12007e-09
1.74409e-12
-9.26151e-13
1.12618e-09
-1.12615e-09
4.51776e-11
1.25247e-12
9.0535e-10
5.27771e-11
-4.62295e-11
-5.29484e-11
-9.05325e-10
1.43535e-11
-4.05878e-13
1.37033e-10
-6.21455e-11
-5.78968e-12
-1.14229e-11
3.38672e-11
-1.66546e-11
8.92921e-14
1.79582e-13
1.13233e-09
-1.13231e-09
2.2491e-13
1.14466e-13
1.13421e-09
-1.13419e-09
1.9459e-13
2.91786e-13
1.13638e-09
-1.13637e-09
3.03711e-13
7.53947e-14
1.13638e-09
-1.13636e-09
2.27091e-14
4.87818e-13
1.1338e-09
-1.13377e-09
-1.24268e-13
1.51385e-13
1.13043e-09
-1.13038e-09
2.97243e-15
1.22122e-13
1.13025e-09
-1.13017e-09
1.11416e-12
-1.15199e-12
1.13431e-09
-1.13413e-09
-9.76458e-13
1.40693e-12
1.12678e-09
-1.12647e-09
-9.22233e-13
-9.87088e-13
1.12851e-09
-1.1285e-09
5.67211e-11
3.37318e-11
7.47422e-10
5.04472e-11
-5.62418e-11
-5.06729e-11
4.31319e-11
-3.46646e-11
-4.21501e-11
-7.47394e-10
6.96277e-12
1.2391e-11
-1.88421e-11
1.01102e-10
-4.48921e-11
-1.24007e-13
2.80294e-13
1.12788e-09
-1.12785e-09
-2.56013e-13
2.36288e-13
1.13216e-09
-1.13215e-09
-2.7367e-13
2.89648e-13
1.13727e-09
-1.13725e-09
-4.94244e-13
2.71311e-13
1.13937e-09
-1.13934e-09
-9.4497e-14
6.01734e-14
1.13961e-09
-1.13959e-09
8.99206e-13
-8.90263e-13
1.14426e-09
-1.14421e-09
-2.48044e-13
1.23593e-12
1.14083e-09
-1.1408e-09
-1.97707e-12
3.75282e-13
1.14044e-09
-1.14024e-09
9.93271e-13
4.51723e-11
9.0572e-10
5.27776e-11
-4.62721e-11
-5.31191e-11
-9.05839e-10
3.35814e-11
5.67212e-11
7.48264e-10
4.30532e-11
-3.45627e-11
-4.21306e-11
5.04958e-11
-5.62782e-11
-5.06738e-11
-7.48463e-10
-1.05525e-11
-1.05888e-11
1.43922e-10
-5.54676e-11
2.1761e-13
1.08163e-14
1.12409e-09
-1.12403e-09
5.75393e-13
-1.7039e-13
1.1319e-09
-1.13185e-09
5.96404e-13
2.18674e-13
1.14545e-09
-1.1454e-09
1.62855e-12
-8.10251e-13
1.15751e-09
-1.15746e-09
3.43068e-13
1.29665e-12
1.15041e-09
-1.15036e-09
-8.4218e-13
2.46405e-13
1.13629e-09
-1.13624e-09
1.5892e-12
4.6905e-11
9.07664e-10
5.88693e-11
-4.81087e-11
-5.88783e-11
-9.07645e-10
4.36541e-11
5.83855e-11
7.81409e-10
5.83037e-11
-4.43065e-11
-5.71202e-11
6.27433e-11
-5.7873e-11
-6.182e-11
-7.81409e-10
-4.08035e-13
1.43426e-11
1.37058e-10
-6.21663e-11
6.97015e-12
-1.88549e-11
1.23783e-11
1.01208e-10
-4.49806e-11
-2.60131e-13
2.27902e-13
1.12196e-09
-1.12191e-09
-6.0445e-13
1.36406e-13
1.13371e-09
-1.13367e-09
-7.38746e-13
3.03234e-13
1.17447e-09
-1.17442e-09
-1.94879e-12
3.4491e-13
1.16358e-09
-1.16352e-09
8.47664e-13
4.65145e-11
9.27841e-10
5.49788e-11
-4.78827e-11
-5.51495e-11
-9.278e-10
4.46056e-11
5.78709e-11
7.56581e-10
6.49617e-11
-4.51773e-11
-6.45134e-11
6.1549e-11
-5.74325e-11
-6.08085e-11
-7.5654e-10
6.92613e-12
1.44586e-11
1.2483e-10
-5.47039e-11
-5.61727e-12
4.51951e-12
1.13448e-11
1.02246e-10
-5.41075e-11
-1.14184e-11
-5.79297e-12
3.38699e-11
-1.66586e-11
2.09249e-13
6.19306e-11
9.006e-10
6.27754e-11
-6.19473e-11
-6.27941e-11
-9.0054e-10
4.32217e-14
6.46733e-11
9.0442e-10
6.59974e-11
-6.45156e-11
-6.59059e-11
-9.04366e-10
8.96685e-13
5.74138e-11
1.00271e-09
3.9993e-11
-5.7351e-11
-4.06676e-11
-1.00265e-09
4.4366e-11
4.25876e-11
7.92546e-10
5.77548e-11
-4.47851e-11
-5.65783e-11
4.82224e-11
-4.22489e-11
-4.81254e-11
-7.92498e-10
6.95389e-12
1.34862e-11
1.34176e-10
-6.37352e-11
-5.88946e-12
8.45096e-12
9.68059e-12
1.024e-10
-5.67708e-11
-1.63272e-11
-1.13759e-11
4.91897e-12
5.4024e-11
-3.124e-11
-1.0681e-12
1.43956e-11
9.79182e-11
-4.93081e-11
9.28579e-13
1.53869e-12
1.424e-11
9.57799e-11
-4.78135e-11
-4.35961e-12
9.54723e-13
8.46096e-12
1.11368e-10
-5.901e-11
7.68027e-12
-6.89829e-12
7.82319e-11
-3.64265e-11
-6.46702e-12
-3.43484e-12
1.99467e-11
-1.00449e-11
3.48087e-14
3.65322e-14
1.14438e-09
7.08375e-14
3.68461e-14
1.14355e-09
1.07719e-13
3.41624e-14
1.14245e-09
1.37044e-13
3.46367e-14
1.14134e-09
1.70465e-13
2.66089e-14
1.14024e-09
1.8361e-13
3.24522e-14
1.13915e-09
2.1193e-13
1.05686e-14
1.13803e-09
2.05917e-13
3.95205e-14
1.13673e-09
2.35037e-13
-3.10013e-14
1.13508e-09
1.30857e-13
9.23626e-14
1.13235e-09
2.44489e-13
-1.25106e-13
1.12791e-09
-1.69811e-14
2.21766e-13
1.12414e-09
2.18886e-13
-2.69337e-13
1.122e-09
6.19337e-11
2.10114e-13
9.00658e-10
6.27782e-11
-6.19499e-11
-6.2797e-11
-4.93129e-11
1.43959e-11
-1.06653e-12
9.79242e-11
3.5356e-14
7.25271e-14
1.14356e-09
7.07462e-14
7.23275e-14
1.14304e-09
1.06386e-13
6.83687e-14
1.14206e-09
1.34763e-13
6.84657e-14
1.14101e-09
1.65388e-13
5.47481e-14
1.13991e-09
1.7676e-13
6.56077e-14
1.13883e-09
2.0117e-13
2.37477e-14
1.13778e-09
1.89256e-13
8.17669e-14
1.1367e-09
2.13037e-13
-5.60114e-14
1.13565e-09
5.80442e-14
2.28636e-13
1.13421e-09
2.11435e-13
-2.78014e-13
1.13214e-09
-1.75808e-13
5.73963e-13
1.13191e-09
1.28891e-13
-6.12878e-13
1.13375e-09
6.46754e-11
4.50393e-14
9.04493e-10
6.5998e-11
-6.45162e-11
-6.59061e-11
-4.78174e-11
9.2731e-13
1.42401e-11
1.53962e-12
9.57856e-11
3.43711e-14
1.09372e-13
1.14246e-09
6.83503e-14
1.07796e-13
1.14215e-09
1.01832e-13
1.0209e-13
1.14138e-09
1.31623e-13
9.87448e-14
1.14036e-09
1.6115e-13
8.08133e-14
1.13932e-09
1.8068e-13
8.71163e-14
1.13829e-09
2.02975e-13
3.69928e-14
1.13736e-09
2.12246e-13
9.2208e-14
1.13662e-09
2.29904e-13
-6.74205e-14
1.13629e-09
2.4995e-13
1.95074e-13
1.13637e-09
2.5482e-13
-2.94803e-13
1.13727e-09
1.88526e-13
6.01032e-13
1.14549e-09
2.91322e-13
-7.52761e-13
1.17452e-09
5.74131e-11
9.03128e-13
1.00277e-09
3.99941e-11
-5.73535e-11
-4.06686e-11
-5.90159e-11
-4.35854e-12
8.46102e-12
9.51412e-13
1.11375e-10
3.42974e-14
1.38484e-13
1.14135e-09
6.81177e-14
1.35859e-13
1.14105e-09
9.83571e-14
1.31785e-13
1.14046e-09
1.24623e-13
1.248e-13
1.13953e-09
1.45014e-13
1.07453e-13
1.13836e-09
1.56615e-13
1.09527e-13
1.13727e-09
1.68472e-13
5.33026e-14
1.13636e-09
1.62827e-13
1.14017e-13
1.13571e-09
1.62714e-13
-7.03579e-14
1.13573e-09
2.49229e-14
3.09848e-13
1.13636e-09
2.41848e-13
-5.25946e-13
1.13937e-09
-8.30083e-13
1.63362e-12
1.15754e-09
3.37385e-13
-1.96124e-12
1.16362e-09
4.25896e-11
4.43679e-11
7.92583e-10
4.82246e-11
-4.22509e-11
-4.81271e-11
5.77593e-11
-4.47842e-11
-5.65768e-11
-3.64274e-11
7.68364e-12
-6.89948e-12
7.82332e-11
2.80882e-14
1.71928e-13
1.14023e-09
5.59546e-14
1.66318e-13
1.13992e-09
8.16412e-14
1.61414e-13
1.13934e-09
1.08227e-13
1.45069e-13
1.13844e-09
1.29024e-13
1.28472e-13
1.13723e-09
1.55373e-13
1.12211e-13
1.13591e-09
1.66272e-13
6.46118e-14
1.13466e-09
2.07418e-13
7.76817e-14
1.13376e-09
1.9883e-13
-6.15245e-14
1.13347e-09
4.77359e-13
1.54829e-14
1.13372e-09
4.08071e-14
-1.14548e-13
1.13956e-09
1.29174e-12
3.43317e-13
1.15042e-09
4.65164e-11
8.44337e-13
9.27863e-10
5.49801e-11
-4.78865e-11
-5.51534e-11
-6.37375e-11
1.34862e-11
6.95554e-12
1.3418e-10
-1.00453e-11
-3.43443e-12
-6.46751e-12
1.99472e-11
3.25766e-14
1.84722e-13
1.13915e-09
6.56301e-14
1.77331e-13
1.13883e-09
8.69958e-14
1.80681e-13
1.1383e-09
1.09633e-13
1.56053e-13
1.13729e-09
1.12388e-13
1.54335e-13
1.13592e-09
1.20955e-13
1.19816e-13
1.13433e-09
1.12183e-13
8.25518e-14
1.13254e-09
1.13851e-13
7.08265e-14
1.13094e-09
2.12025e-14
2.55756e-14
1.12981e-09
1.32094e-13
-1.23729e-13
1.13035e-09
-9.10935e-13
9.00696e-13
1.14421e-09
2.38441e-13
-8.47474e-13
1.1363e-09
5.78733e-11
4.4603e-11
7.56609e-10
6.1551e-11
-5.74354e-11
-6.08112e-11
6.49629e-11
-4.51759e-11
-6.45141e-11
-5.67731e-11
-5.88986e-12
9.68055e-12
8.45137e-12
1.02404e-10
1.27497e-14
2.13104e-13
1.13803e-09
2.56785e-14
2.01486e-13
1.13779e-09
3.84469e-14
2.03036e-13
1.13738e-09
5.46851e-14
1.67659e-13
1.13639e-09
6.55044e-14
1.65358e-13
1.13469e-09
8.46569e-14
1.09996e-13
1.13259e-09
8.5271e-14
8.39381e-14
1.13018e-09
6.00544e-14
9.04178e-14
1.1275e-09
3.07487e-13
-2.43673e-13
1.12547e-09
1.01336e-13
5.72231e-14
1.13007e-09
1.24647e-12
-2.74847e-13
1.14073e-09
4.69116e-11
1.57447e-12
9.07648e-10
5.88746e-11
-4.81125e-11
-5.88792e-11
-5.47057e-11
1.44601e-11
6.92585e-12
1.24834e-10
-3.12413e-11
-1.13761e-11
-1.63273e-11
4.91828e-12
5.40264e-11
3.96096e-14
2.06801e-13
1.13672e-09
8.13323e-14
1.8941e-13
1.13672e-09
9.138e-14
2.11812e-13
1.13665e-09
1.13063e-13
1.6021e-13
1.13576e-09
7.61289e-14
2.04954e-13
1.13382e-09
6.98564e-14
1.08547e-13
1.13103e-09
9.06358e-14
5.10533e-14
1.12768e-09
7.94156e-14
7.02361e-14
1.1234e-09
1.66673e-13
-3.58755e-13
1.12042e-09
-1.01515e-12
1.20331e-12
1.134e-09
3.76033e-13
-1.70253e-12
1.14021e-09
5.8386e-11
4.36597e-11
7.8138e-10
6.27431e-11
-5.78831e-11
-6.18269e-11
5.82909e-11
-4.4314e-11
-5.71358e-11
-5.411e-11
-5.61715e-12
1.13447e-11
4.51858e-12
1.02249e-10
-2.73116e-14
2.35362e-13
1.13508e-09
-5.29362e-14
2.13261e-13
1.13566e-09
-6.44798e-14
2.29315e-13
1.13632e-09
-6.85371e-14
1.61279e-13
1.13578e-09
-6.0564e-14
1.9672e-13
1.13356e-09
2.62275e-14
1.44104e-14
1.12994e-09
-2.49579e-13
3.00443e-13
1.12566e-09
-3.56325e-13
1.37509e-13
1.12079e-09
-3.85897e-13
-3.63241e-13
1.12017e-09
1.73496e-12
-9.43483e-13
1.12621e-09
4.51785e-11
1.23956e-12
9.05369e-10
5.27792e-11
-4.62327e-11
-5.29515e-11
-6.21473e-11
1.43533e-11
-4.06231e-13
1.37038e-10
-1.66552e-11
-5.78926e-12
-1.14237e-11
3.38682e-11
9.27953e-14
1.3113e-13
1.13235e-09
2.27809e-13
5.8812e-14
1.13423e-09
1.93069e-13
2.495e-13
1.1364e-09
3.04532e-13
2.44322e-14
1.13641e-09
1.21813e-14
4.66024e-13
1.13383e-09
-1.35751e-13
1.25997e-13
1.13047e-09
2.42318e-14
1.01086e-13
1.13029e-09
1.16621e-12
-1.06609e-12
1.13438e-09
-9.51348e-13
1.75872e-12
1.12677e-09
-9.53303e-13
-9.62191e-13
1.12853e-09
5.67255e-11
3.37209e-11
7.47448e-10
5.04535e-11
-5.62438e-11
-5.06729e-11
4.31135e-11
-3.46718e-11
-4.21652e-11
-4.48915e-11
6.96354e-12
1.23914e-11
-1.88429e-11
1.01104e-10
-1.22888e-13
2.44698e-13
1.12789e-09
-2.7569e-13
2.11471e-13
1.13217e-09
-2.92719e-13
2.5462e-13
1.13729e-09
-5.24592e-13
2.41734e-13
1.13939e-09
-1.12232e-13
3.50807e-14
1.13964e-09
8.95298e-13
-9.12421e-13
1.14429e-09
-2.57222e-13
1.22842e-12
1.14086e-09
-1.69809e-12
3.7135e-13
1.14045e-09
1.20349e-12
4.51974e-11
9.05819e-10
5.29224e-11
-4.62621e-11
-5.30997e-11
3.36023e-11
5.6744e-11
7.48234e-10
4.30828e-11
-3.45604e-11
-4.21174e-11
5.04713e-11
-5.6265e-11
-5.0687e-11
-5.54621e-11
-1.05775e-11
-1.05645e-11
1.43927e-10
2.23053e-13
-1.67976e-14
1.12413e-09
5.74974e-13
-1.75925e-13
1.13194e-09
6.02139e-13
1.88196e-13
1.14549e-09
1.63509e-12
-8.30634e-13
1.15755e-09
3.45566e-13
1.28746e-12
1.15045e-09
-8.43703e-13
2.39441e-13
1.13633e-09
1.58202e-12
4.69071e-11
9.07679e-10
5.88721e-11
-4.81109e-11
-5.88815e-11
4.36377e-11
5.83862e-11
7.81428e-10
5.82929e-11
-4.42984e-11
-5.71224e-11
6.27443e-11
-5.78798e-11
-6.18261e-11
-6.21462e-11
-4.20801e-13
1.4345e-11
1.37056e-10
-4.49123e-11
6.90272e-12
-1.88418e-11
1.24017e-11
1.01193e-10
-2.66934e-13
2.18824e-13
1.12199e-09
-6.10501e-13
1.28596e-13
1.13375e-09
-7.50457e-13
2.9121e-13
1.17451e-09
-1.95898e-12
3.37157e-13
1.16362e-09
8.45136e-13
4.65152e-11
9.27869e-10
5.49799e-11
-4.7886e-11
-5.51534e-11
4.46069e-11
5.78729e-11
7.56609e-10
6.49646e-11
-4.51784e-11
-6.45151e-11
6.15512e-11
-5.74349e-11
-6.08109e-11
-5.47057e-11
6.926e-12
1.4459e-11
1.24834e-10
-5.41102e-11
-5.61675e-12
4.51771e-12
1.1345e-11
1.0225e-10
-1.66561e-11
-1.14257e-11
-5.78894e-12
3.38708e-11
2.11544e-13
6.19326e-11
9.00643e-10
6.27776e-11
-6.19491e-11
-6.27962e-11
4.58769e-14
6.46763e-11
9.04462e-10
6.60001e-11
-6.45175e-11
-6.59077e-11
9.03611e-13
5.7414e-11
1.00276e-09
3.99947e-11
-5.73543e-11
-4.0669e-11
4.4369e-11
4.25891e-11
7.92585e-10
5.77598e-11
-4.4785e-11
-5.65771e-11
4.82245e-11
-4.22507e-11
-4.81268e-11
-6.37376e-11
6.95559e-12
1.34859e-11
1.3418e-10
-5.6773e-11
-5.88998e-12
8.45126e-12
9.68051e-12
1.02403e-10
-3.12414e-11
-1.63272e-11
-1.13763e-11
4.91843e-12
5.40263e-11
-4.93105e-11
-1.0684e-12
1.43956e-11
9.79216e-11
-4.78151e-11
9.29129e-13
1.53845e-12
1.42405e-11
9.57832e-11
-5.90123e-11
-4.35955e-12
9.53625e-13
8.4607e-12
1.11372e-10
-3.64278e-11
7.6816e-12
-6.89888e-12
7.82346e-11
-1.00453e-11
-6.46742e-12
-3.43458e-12
1.99473e-11
2.87741e-14
3.07492e-14
1.14432e-09
5.71707e-14
3.02372e-14
1.14349e-09
8.58695e-14
2.73992e-14
1.1424e-09
1.07962e-13
2.78181e-14
1.14129e-09
1.35694e-13
2.01591e-14
1.14019e-09
1.43149e-13
2.71358e-14
1.13912e-09
1.70828e-13
5.14868e-15
1.138e-09
1.56207e-13
3.83791e-14
1.13671e-09
1.97312e-13
-3.9946e-14
1.13509e-09
8.87252e-14
9.48001e-14
1.13237e-09
2.17026e-13
-1.34536e-13
1.12792e-09
-3.85685e-14
2.21962e-13
1.12417e-09
2.09311e-13
-2.71614e-13
1.12202e-09
6.19359e-11
2.12722e-13
9.00687e-10
6.278e-11
-6.19521e-11
-6.27993e-11
-4.93137e-11
1.43966e-11
-1.06704e-12
9.79261e-11
2.87441e-14
5.90359e-14
1.1435e-09
5.63752e-14
5.79251e-14
1.14298e-09
8.45108e-14
5.39584e-14
1.142e-09
1.06008e-13
5.44131e-14
1.14097e-09
1.31229e-13
4.12126e-14
1.13987e-09
1.37225e-13
5.3737e-14
1.1388e-09
1.60867e-13
1.18918e-14
1.13775e-09
1.40116e-13
7.81145e-14
1.13669e-09
1.74656e-13
-7.37362e-14
1.13565e-09
2.22974e-14
2.30984e-13
1.13423e-09
1.64905e-13
-2.90415e-13
1.13215e-09
-2.21129e-13
5.75602e-13
1.13194e-09
1.13815e-13
-6.22858e-13
1.13377e-09
6.46772e-11
4.56066e-14
9.04522e-10
6.6e-11
-6.45182e-11
-6.59083e-11
-4.78183e-11
9.28077e-13
1.42405e-11
1.5393e-12
9.57877e-11
2.78098e-14
8.77372e-14
1.1424e-09
5.40884e-14
8.58989e-14
1.1421e-09
8.03619e-14
8.05416e-14
1.14133e-09
1.03591e-13
7.78435e-14
1.14031e-09
1.27715e-13
6.07723e-14
1.13927e-09
1.43348e-13
6.88952e-14
1.13826e-09
1.62957e-13
2.0195e-14
1.13734e-09
1.83764e-13
8.04753e-14
1.1366e-09
1.93932e-13
-8.76612e-14
1.13629e-09
2.17655e-13
1.96316e-13
1.13638e-09
2.29125e-13
-3.12511e-13
1.13728e-09
1.66651e-13
6.06258e-13
1.14553e-09
2.81577e-13
-7.63233e-13
1.17455e-09
5.74141e-11
9.07685e-13
1.0028e-09
3.99956e-11
-5.73562e-11
-4.06697e-11
-5.90175e-11
-4.35867e-12
8.46166e-12
9.50568e-13
1.11378e-10
2.74803e-14
1.09584e-13
1.1413e-09
5.40854e-14
1.0707e-13
1.14101e-09
7.74921e-14
1.03711e-13
1.14041e-09
9.7516e-14
9.76145e-14
1.13949e-09
1.13085e-13
8.15707e-14
1.13833e-09
1.20863e-13
8.56434e-14
1.13725e-09
1.31918e-13
3.13237e-14
1.13634e-09
1.26747e-13
9.81338e-14
1.1357e-09
1.28416e-13
-9.24701e-14
1.13573e-09
-2.42594e-15
3.1141e-13
1.13638e-09
2.19166e-13
-5.47777e-13
1.13938e-09
-8.45251e-13
1.6392e-12
1.15758e-09
3.31282e-13
-1.97065e-12
1.16365e-09
4.25909e-11
4.43703e-11
7.92611e-10
4.82264e-11
-4.22523e-11
-4.81284e-11
5.77632e-11
-4.47842e-11
-5.6576e-11
-3.64286e-11
7.68476e-12
-6.89998e-12
7.82351e-11
2.19054e-14
1.37267e-13
1.14019e-09
4.26435e-14
1.32109e-13
1.13988e-09
6.17583e-14
1.2796e-13
1.1393e-09
8.24783e-14
1.13052e-13
1.1384e-09
9.89028e-14
9.82634e-14
1.13719e-09
1.22237e-13
8.42532e-14
1.13589e-09
1.30672e-13
4.09038e-14
1.13464e-09
1.76989e-13
5.59976e-14
1.13376e-09
1.6872e-13
-8.25164e-14
1.13347e-09
4.64696e-13
5.92105e-15
1.13373e-09
2.42389e-14
-1.2665e-13
1.13958e-09
1.28644e-12
3.4507e-13
1.15045e-09
4.6517e-11
8.4155e-13
9.27884e-10
5.4981e-11
-4.78891e-11
-5.51567e-11
-6.37391e-11
1.34859e-11
6.957e-12
1.34184e-10
-1.00456e-11
-3.43408e-12
-6.46801e-12
1.99477e-11
2.7198e-14
1.44373e-13
1.13912e-09
5.37442e-14
1.37771e-13
1.1388e-09
6.87869e-14
1.43348e-13
1.13827e-09
8.5806e-14
1.20231e-13
1.13727e-09
8.45791e-14
1.21087e-13
1.1359e-09
9.06454e-14
8.93564e-14
1.13432e-09
8.32513e-14
5.59664e-14
1.13253e-09
8.61976e-14
4.85928e-14
1.13095e-09
-7.06924e-15
1.30618e-14
1.12981e-09
1.13559e-13
-1.40376e-13
1.13038e-09
-9.27462e-13
8.93418e-13
1.14423e-09
2.33096e-13
-8.48373e-13
1.13633e-09
5.78752e-11
4.46044e-11
7.56629e-10
6.1553e-11
-5.74371e-11
-6.08129e-11
6.49647e-11
-4.5177e-11
-6.4516e-11
-5.67746e-11
-5.89006e-12
9.68098e-12
8.45142e-12
1.02406e-10
7.59552e-15
1.72024e-13
1.138e-09
1.40568e-14
1.61174e-13
1.13776e-09
2.1784e-14
1.63037e-13
1.13735e-09
3.27642e-14
1.30966e-13
1.13637e-09
4.17838e-14
1.29725e-13
1.13467e-09
5.76251e-14
8.07363e-14
1.13259e-09
5.84014e-14
5.73752e-14
1.13018e-09
2.84126e-14
7.35065e-14
1.12751e-09
2.87179e-13
-2.64838e-13
1.12549e-09
8.05247e-14
4.60716e-14
1.13009e-09
1.239e-12
-2.88526e-13
1.14075e-09
4.69128e-11
1.57252e-12
9.0767e-10
5.88762e-11
-4.8114e-11
-5.88809e-11
-5.47069e-11
1.44599e-11
6.92628e-12
1.24837e-10
-3.12421e-11
-1.13772e-11
-1.63276e-11
4.91877e-12
5.40281e-11
3.85613e-14
1.57133e-13
1.13671e-09
7.77234e-14
1.40364e-13
1.1367e-09
7.97183e-14
1.83386e-13
1.13662e-09
9.71096e-14
1.25168e-13
1.13575e-09
5.51792e-14
1.74093e-13
1.13382e-09
4.84521e-14
8.16064e-14
1.13103e-09
7.42875e-14
2.5801e-14
1.12769e-09
6.5514e-14
5.91241e-14
1.12342e-09
1.51038e-13
-3.65393e-13
1.12043e-09
-1.02564e-12
1.19448e-12
1.13403e-09
3.69005e-13
-1.71049e-12
1.14024e-09
5.83871e-11
4.36602e-11
7.81402e-10
6.27449e-11
-5.78848e-11
-6.18282e-11
5.8292e-11
-4.43154e-11
-5.71377e-11
-5.41118e-11
-5.6168e-12
1.13446e-11
4.5179e-12
1.02252e-10
-3.64046e-14
1.97739e-13
1.13508e-09
-7.09588e-14
1.74983e-13
1.13567e-09
-8.51502e-14
1.93383e-13
1.13632e-09
-9.13217e-14
1.27089e-13
1.13579e-09
-8.26144e-14
1.66727e-13
1.13356e-09
1.07788e-14
-1.50357e-14
1.12994e-09
-2.68017e-13
2.8333e-13
1.12569e-09
-3.66962e-13
1.37975e-13
1.12081e-09
-3.85047e-13
-3.76751e-13
1.1202e-09
1.73411e-12
-9.51538e-13
1.12623e-09
4.51787e-11
1.23439e-12
9.05388e-10
5.27799e-11
-4.62351e-11
-5.29541e-11
-6.21485e-11
1.43529e-11
-4.06965e-13
1.37041e-10
-1.66556e-11
-5.78869e-12
-1.14247e-11
3.38691e-11
9.53236e-14
8.91688e-14
1.13236e-09
2.30468e-13
2.25197e-14
1.13425e-09
1.94947e-13
2.17192e-13
1.13641e-09
3.08464e-13
-3.2212e-15
1.13643e-09
4.39445e-15
4.61032e-13
1.13384e-09
-1.46123e-13
1.09526e-13
1.1305e-09
3.48707e-14
8.15892e-14
1.13031e-09
1.1849e-12
-1.0442e-12
1.13441e-09
-9.53272e-13
1.74701e-12
1.12679e-09
-9.64452e-13
-9.73708e-13
1.12856e-09
5.67252e-11
3.37233e-11
7.47457e-10
5.04522e-11
-5.62469e-11
-5.06761e-11
4.31213e-11
-3.4675e-11
-4.2164e-11
-4.4893e-11
6.96386e-12
1.23909e-11
-1.88443e-11
1.01107e-10
-1.319e-13
2.17126e-13
1.1279e-09
-2.8826e-13
1.64306e-13
1.13218e-09
-3.10776e-13
2.28719e-13
1.1373e-09
-5.47392e-13
2.1893e-13
1.1394e-09
-1.25615e-13
1.79282e-14
1.13966e-09
8.92553e-13
-9.29163e-13
1.14431e-09
-2.82523e-13
1.22999e-12
1.14089e-09
-1.70519e-12
3.64928e-13
1.14046e-09
1.22458e-12
4.52053e-11
9.05866e-10
5.29304e-11
-4.62642e-11
-5.3103e-11
3.35997e-11
5.67445e-11
7.48235e-10
4.30759e-11
-3.45608e-11
-4.21213e-11
5.04687e-11
-5.62676e-11
-5.06902e-11
-5.54633e-11
-1.0568e-11
-1.0576e-11
1.43931e-10
2.23377e-13
-3.86546e-14
1.12416e-09
5.76656e-13
-2.21597e-13
1.13197e-09
6.0735e-13
1.66006e-13
1.14552e-09
1.64066e-12
-8.45928e-13
1.15758e-09
3.45827e-13
1.28279e-12
1.15048e-09
-8.48187e-13
2.33635e-13
1.13636e-09
1.57143e-12
4.69091e-11
9.07698e-10
5.88753e-11
-4.81119e-11
-5.88823e-11
4.36388e-11
5.8386e-11
7.81444e-10
5.82867e-11
-4.42981e-11
-5.71285e-11
6.27453e-11
-5.7883e-11
-6.18284e-11
-6.21488e-11
-4.20664e-13
1.43522e-11
1.37061e-10
-4.49175e-11
6.8993e-12
-1.88378e-11
1.24013e-11
1.01199e-10
-2.69085e-13
2.09086e-13
1.12201e-09
-6.20254e-13
1.13359e-13
1.13377e-09
-7.60775e-13
2.81256e-13
1.17453e-09
-1.96827e-12
3.30735e-13
1.16365e-09
8.42303e-13
4.65157e-11
9.27889e-10
5.49808e-11
-4.78886e-11
-5.51568e-11
4.46078e-11
5.78749e-11
7.56628e-10
6.49662e-11
-4.51796e-11
-6.45169e-11
6.15532e-11
-5.74366e-11
-6.08126e-11
-5.47067e-11
6.92668e-12
1.4459e-11
1.24837e-10
-5.41114e-11
-5.61727e-12
4.51655e-12
1.13449e-11
1.02252e-10
-1.66567e-11
-1.14291e-11
-5.78634e-12
3.38721e-11
2.14219e-13
6.19348e-11
9.00673e-10
6.27794e-11
-6.19512e-11
-6.27985e-11
4.67461e-14
6.4678e-11
9.04491e-10
6.60019e-11
-6.45195e-11
-6.591e-11
9.08369e-13
5.74149e-11
1.00279e-09
3.99962e-11
-5.7357e-11
-4.06701e-11
4.43713e-11
4.25903e-11
7.92613e-10
5.77637e-11
-4.4785e-11
-5.65762e-11
4.82263e-11
-4.22522e-11
-4.81282e-11
-6.37391e-11
6.95706e-12
1.34856e-11
1.34184e-10
-5.67745e-11
-5.89022e-12
8.45135e-12
9.68095e-12
1.02406e-10
-3.12421e-11
-1.63274e-11
-1.13773e-11
4.91885e-12
5.4028e-11
-4.93113e-11
-1.06886e-12
1.43964e-11
9.79234e-11
-4.78159e-11
9.29848e-13
1.53814e-12
1.42408e-11
9.57852e-11
-5.90138e-11
-4.35969e-12
9.52809e-13
8.46126e-12
1.11374e-10
-3.6429e-11
7.68265e-12
-6.89938e-12
7.82365e-11
-1.00456e-11
-6.46791e-12
-3.43424e-12
1.99478e-11
2.42086e-14
2.68885e-14
1.14429e-09
4.74189e-14
2.60254e-14
1.14345e-09
7.05759e-14
2.30201e-14
1.14236e-09
8.79725e-14
2.30374e-14
1.14126e-09
1.1098e-13
1.51607e-14
1.14016e-09
1.15789e-13
2.251e-14
1.13909e-09
1.40822e-13
-9.30731e-17
1.13798e-09
1.18803e-13
3.70554e-14
1.1367e-09
1.68529e-13
-4.86556e-14
1.13508e-09
5.30683e-14
9.82968e-14
1.13238e-09
1.93196e-13
-1.39515e-13
1.12791e-09
-5.80923e-14
2.24191e-13
1.1242e-09
2.03237e-13
-2.81231e-13
1.12204e-09
6.19369e-11
2.13378e-13
9.00715e-10
6.27805e-11
-6.19544e-11
-6.28017e-11
-4.93142e-11
1.43973e-11
-1.06719e-12
9.79278e-11
2.4388e-14
4.97183e-14
1.14346e-09
4.67877e-14
4.84006e-14
1.14294e-09
6.91279e-14
4.42763e-14
1.14196e-09
8.59212e-14
4.44211e-14
1.14093e-09
1.06554e-13
3.1259e-14
1.13984e-09
1.09896e-13
4.45437e-14
1.13877e-09
1.315e-13
2.16838e-15
1.13773e-09
1.03427e-13
7.83739e-14
1.13667e-09
1.46076e-13
-8.88523e-14
1.13565e-09
3.75429e-15
2.31659e-13
1.13423e-09
1.75669e-13
-3.06173e-13
1.13214e-09
-1.97753e-13
5.7553e-13
1.13197e-09
1.11218e-13
-6.22466e-13
1.1338e-09
6.46777e-11
4.76781e-14
9.04551e-10
6.60008e-11
-6.45203e-11
-6.59105e-11
-4.78189e-11
9.28242e-13
1.42403e-11
1.53918e-12
9.57893e-11
2.36089e-14
7.28925e-14
1.14236e-09
4.45087e-14
7.05176e-14
1.14206e-09
6.49864e-14
6.51429e-14
1.14129e-09
8.36626e-14
6.24126e-14
1.14028e-09
1.03158e-13
4.58952e-14
1.13924e-09
1.15944e-13
5.5065e-14
1.13823e-09
1.33131e-13
7.48864e-15
1.13731e-09
1.51977e-13
7.50278e-14
1.13658e-09
1.67773e-13
-1.05634e-13
1.13629e-09
1.92861e-13
1.9812e-13
1.13639e-09
2.08529e-13
-3.27873e-13
1.13729e-09
1.47093e-13
6.10723e-13
1.14555e-09
2.73376e-13
-7.71973e-13
1.17457e-09
5.74136e-11
9.10368e-13
1.00283e-09
3.99965e-11
-5.73593e-11
-4.06706e-11
-5.90187e-11
-4.35888e-12
8.4612e-12
9.49881e-13
1.1138e-10
2.26418e-14
9.01112e-14
1.14126e-09
4.40775e-14
8.70625e-14
1.14097e-09
6.21058e-14
8.3881e-14
1.14038e-09
7.77982e-14
7.78917e-14
1.13946e-09
8.93343e-14
6.28961e-14
1.1383e-09
9.45401e-14
6.80778e-14
1.13723e-09
1.05423e-13
1.50142e-14
1.13632e-09
9.56596e-14
9.31166e-14
1.13569e-09
1.03177e-13
-1.14361e-13
1.13574e-09
-2.43079e-14
3.13978e-13
1.13639e-09
2.01014e-13
-5.65026e-13
1.13939e-09
-8.57972e-13
1.64365e-12
1.1576e-09
3.24897e-13
-1.98001e-12
1.16368e-09
4.25915e-11
4.43714e-11
7.92634e-10
4.82273e-11
-4.22536e-11
-4.81297e-11
5.77656e-11
-4.47845e-11
-5.65761e-11
-3.64293e-11
7.68568e-12
-6.90068e-12
7.82365e-11
1.71796e-14
1.1276e-13
1.14016e-09
3.28824e-14
1.07397e-13
1.13984e-09
4.70233e-14
1.03455e-13
1.13926e-09
6.38399e-14
8.9249e-14
1.13837e-09
7.67734e-14
7.61128e-14
1.13717e-09
9.90271e-14
6.32417e-14
1.13587e-09
1.0449e-13