/*--------------------------------*- C++ -*----------------------------------*\
| =========                 |                                                 |
| \\      /  F ield         | OpenFOAM: The Open Source CFD Toolbox           |
|  \\    /   O peration     | Version:  2.1.1                                 |
|   \\  /    A nd           | Web:      www.OpenFOAM.org                      |
|    \\/     M anipulation  |                                                 |
\*---------------------------------------------------------------------------*/
FoamFile
{
    version     2.0;
    format      ascii;
    class       volScalarField;
    location    "0.001";
    object      Th;
}
// * * * * * * * * * * * * * * * * * * * * * * * * * * * * * * * * * * * * * //

dimensions      [0 0 0 0 0 0 0];

internalField   nonuniform List<scalar> 
10314
(
1.00001e-14
1e-14
1e-14
1e-14
1e-14
1e-14
1e-14
1e-14
1e-14
1e-14
1e-14
1e-14
1.00001e-14
1.00033e-14
1.01982e-14
1e-14
1e-14
1e-14
1e-14
1e-14
1e-14
1e-14
1e-14
1e-14
1e-14
1e-14
1e-14
1.00001e-14
1.00106e-14
1.03446e-14
1e-14
1e-14
1e-14
1e-14
1e-14
1e-14
1e-14
1e-14
1e-14
1e-14
1e-14
1e-14
1e-14
1.00003e-14
1e-14
1e-14
1e-14
1e-14
1e-14
1e-14
1e-14
1e-14
1e-14
1e-14
1e-14
1e-14
1e-14
1.00001e-14
1e-14
1.00057e-14
1e-14
1e-14
1e-14
1e-14
1e-14
1e-14
1e-14
1e-14
1e-14
1e-14
1e-14
1e-14
1.00001e-14
1e-14
1e-14
1e-14
1e-14
1e-14
1e-14
1e-14
1e-14
1e-14
1e-14
1e-14
1e-14
1e-14
1e-14
1.00201e-14
1.0213e-14
1e-14
1e-14
1e-14
1e-14
1e-14
1e-14
1e-14
1e-14
1e-14
1e-14
1e-14
1.00001e-14
1e-14
1e-14
1e-14
1e-14
1e-14
1e-14
1e-14
1e-14
1e-14
1e-14
1e-14
1e-14
1.00001e-14
1.00142e-14
1.01194e-14
2.8457e-13
1e-14
1e-14
1e-14
1e-14
1e-14
1e-14
1e-14
1e-14
1e-14
1e-14
1e-14
1e-14
1.21451e-14
1e-14
1e-14
1e-14
1e-14
1e-14
1e-14
1e-14
1e-14
1e-14
1e-14
1e-14
1e-14
1e-14
1e-14
1e-14
1e-14
1e-14
1e-14
1e-14
1.00001e-14
1e-14
1e-14
1e-14
1e-14
1e-14
1e-14
1e-14
1e-14
1e-14
1.00001e-14
1.00142e-14
1e-14
1e-14
1.00001e-14
1.00001e-14
1e-14
1.00001e-14
1.00001e-14
1.00201e-14
1e-14
1.01194e-14
1.21454e-14
1.00033e-14
1.00106e-14
1.00003e-14
1e-14
1e-14
1.0213e-14
1e-14
2.84572e-13
1.01981e-14
1.03444e-14
1e-14
1.00057e-14
1e-14
1e-14
1e-14
1e-14
1e-14
1e-14
1e-14
1e-14
1e-14
1e-14
1e-14
1e-14
1e-14
1e-14
1.00029e-14
1.02015e-14
1e-14
1e-14
1e-14
1e-14
1e-14
1e-14
1e-14
1e-14
1e-14
1e-14
1e-14
1e-14
1e-14
1.00093e-14
1.03447e-14
1e-14
1e-14
1e-14
1e-14
1e-14
1e-14
1e-14
1e-14
1e-14
1e-14
1e-14
1e-14
1e-14
1.00002e-14
1.00042e-14
1e-14
1e-14
1e-14
1e-14
1e-14
1e-14
1e-14
1e-14
1e-14
1e-14
1e-14
1e-14
1.00001e-14
1e-14
1.00054e-14
1e-14
1e-14
1e-14
1e-14
1e-14
1e-14
1e-14
1e-14
1e-14
1e-14
1e-14
1e-14
1.00001e-14
1e-14
1e-14
1e-14
1e-14
1e-14
1e-14
1e-14
1e-14
1e-14
1e-14
1e-14
1e-14
1e-14
1e-14
1.00186e-14
1.02134e-14
1e-14
1e-14
1e-14
1e-14
1e-14
1e-14
1e-14
1e-14
1e-14
1e-14
1e-14
1.00001e-14
1e-14
1e-14
1e-14
1e-14
1e-14
1e-14
1e-14
1e-14
1e-14
1e-14
1e-14
1e-14
1e-14
1.00132e-14
1.01172e-14
2.84957e-13
1e-14
1e-14
1e-14
1e-14
1e-14
1e-14
1e-14
1e-14
1e-14
1e-14
1e-14
1e-14
1.25176e-14
1e-14
1e-14
1e-14
1e-14
1e-14
1e-14
1e-14
1e-14
1e-14
1e-14
1e-14
1e-14
1e-14
1e-14
1e-14
1e-14
1e-14
1e-14
1e-14
1e-14
1e-14
1e-14
1e-14
1e-14
1e-14
1e-14
1e-14
1e-14
1e-14
1.00001e-14
1.00132e-14
1e-14
1e-14
1e-14
1e-14
1e-14
1.00001e-14
1.00001e-14
1.00186e-14
1e-14
1.01172e-14
1.25168e-14
1.00029e-14
1.00093e-14
1.00002e-14
1e-14
1e-14
1.02134e-14
1e-14
2.84959e-13
1.02014e-14
1.03445e-14
1.00042e-14
1.00054e-14
1e-14
1e-14
1e-14
1e-14
1e-14
1e-14
1e-14
1e-14
1e-14
1e-14
1e-14
1e-14
1e-14
1e-14
1.00028e-14
1.02036e-14
1e-14
1e-14
1e-14
1e-14
1e-14
1e-14
1e-14
1e-14
1e-14
1e-14
1e-14
1e-14
1e-14
1.00091e-14
1.0347e-14
1e-14
1e-14
1e-14
1e-14
1e-14
1e-14
1e-14
1e-14
1e-14
1e-14
1e-14
1e-14
1e-14
1.00002e-14
1.0014e-14
1e-14
1e-14
1e-14
1e-14
1e-14
1e-14
1e-14
1e-14
1e-14
1e-14
1e-14
1e-14
1.00001e-14
1e-14
1.00054e-14
1e-14
1e-14
1e-14
1e-14
1e-14
1e-14
1e-14
1e-14
1e-14
1e-14
1e-14
1e-14
1.00001e-14
1e-14
1e-14
1e-14
1e-14
1e-14
1e-14
1e-14
1e-14
1e-14
1e-14
1e-14
1e-14
1e-14
1e-14
1.00183e-14
1.02149e-14
1e-14
1e-14
1e-14
1e-14
1e-14
1e-14
1e-14
1e-14
1e-14
1e-14
1e-14
1.00001e-14
1e-14
1e-14
1e-14
1e-14
1e-14
1e-14
1e-14
1e-14
1e-14
1e-14
1e-14
1e-14
1e-14
1.00131e-14
1.01172e-14
2.85023e-13
1e-14
1e-14
1e-14
1e-14
1e-14
1e-14
1e-14
1e-14
1e-14
1e-14
1e-14
1e-14
1.26124e-14
1e-14
1e-14
1e-14
1e-14
1e-14
1e-14
1e-14
1e-14
1e-14
1e-14
1e-14
1e-14
1e-14
1e-14
1e-14
1e-14
1e-14
1e-14
1e-14
1e-14
1e-14
1e-14
1e-14
1e-14
1e-14
1e-14
1e-14
1e-14
1e-14
1.00001e-14
1.00131e-14
1e-14
1e-14
1e-14
1e-14
1e-14
1.00001e-14
1.00001e-14
1.00183e-14
1e-14
1.01172e-14
1.26116e-14
1.00028e-14
1.00091e-14
1.00002e-14
1e-14
1e-14
1.02148e-14
1e-14
2.85024e-13
1.02035e-14
1.0347e-14
1.0014e-14
1.00054e-14
1e-14
1e-14
1e-14
1e-14
1e-14
1e-14
1e-14
1e-14
1e-14
1e-14
1e-14
1e-14
1e-14
1e-14
1.00029e-14
1.02039e-14
1e-14
1e-14
1e-14
1e-14
1e-14
1e-14
1e-14
1e-14
1e-14
1e-14
1e-14
1e-14
1e-14
1.00092e-14
1.03479e-14
1e-14
1e-14
1e-14
1e-14
1e-14
1e-14
1e-14
1e-14
1e-14
1e-14
1e-14
1e-14
1e-14
1.00002e-14
1.00165e-14
1e-14
1e-14
1e-14
1e-14
1e-14
1e-14
1e-14
1e-14
1e-14
1e-14
1e-14
1e-14
1.00001e-14
1e-14
1.00054e-14
1e-14
1e-14
1e-14
1e-14
1e-14
1e-14
1e-14
1e-14
1e-14
1e-14
1e-14
1e-14
1.00001e-14
1e-14
1e-14
1e-14
1e-14
1e-14
1e-14
1e-14
1e-14
1e-14
1e-14
1e-14
1e-14
1e-14
1e-14
1.00183e-14
1.02148e-14
1e-14
1e-14
1e-14
1e-14
1e-14
1e-14
1e-14
1e-14
1e-14
1e-14
1e-14
1e-14
1e-14
1e-14
1e-14
1e-14
1e-14
1e-14
1e-14
1e-14
1e-14
1e-14
1e-14
1e-14
1e-14
1.00131e-14
1.01164e-14
2.85054e-13
1e-14
1e-14
1e-14
1e-14
1e-14
1e-14
1e-14
1e-14
1e-14
1e-14
1e-14
1e-14
1.26241e-14
1e-14
1e-14
1e-14
1e-14
1e-14
1e-14
1e-14
1e-14
1e-14
1e-14
1e-14
1e-14
1e-14
1e-14
1e-14
1e-14
1e-14
1e-14
1e-14
1e-14
1e-14
1e-14
1e-14
1e-14
1e-14
1e-14
1e-14
1e-14
1e-14
1e-14
1.00131e-14
1e-14
1e-14
1e-14
1e-14
1e-14
1.00001e-14
1.00001e-14
1.00182e-14
1e-14
1.01164e-14
1.26232e-14
1.00029e-14
1.00092e-14
1.00002e-14
1e-14
1e-14
1.02148e-14
1e-14
2.85055e-13
1.02039e-14
1.0348e-14
1.00164e-14
1.00054e-14
1e-14
1e-14
1e-14
1e-14
1e-14
1e-14
1e-14
1e-14
1e-14
1e-14
1e-14
1e-14
1e-14
1e-14
1.0003e-14
1.02043e-14
1e-14
1e-14
1e-14
1e-14
1e-14
1e-14
1e-14
1e-14
1e-14
1e-14
1e-14
1e-14
1e-14
1.00096e-14
1.03504e-14
1e-14
1e-14
1e-14
1e-14
1e-14
1e-14
1e-14
1e-14
1e-14
1e-14
1e-14
1e-14
1e-14
1.00002e-14
1.00189e-14
1e-14
1e-14
1e-14
1e-14
1e-14
1e-14
1e-14
1e-14
1e-14
1e-14
1e-14
1e-14
1.00001e-14
1e-14
1.00054e-14
1e-14
1e-14
1e-14
1e-14
1e-14
1e-14
1e-14
1e-14
1e-14
1e-14
1e-14
1e-14
1.00001e-14
1e-14
1e-14
1e-14
1e-14
1e-14
1e-14
1e-14
1e-14
1e-14
1e-14
1e-14
1e-14
1e-14
1e-14
1.00183e-14
1.02145e-14
1e-14
1e-14
1e-14
1e-14
1e-14
1e-14
1e-14
1e-14
1e-14
1e-14
1e-14
1e-14
1e-14
1e-14
1e-14
1e-14
1e-14
1e-14
1e-14
1e-14
1e-14
1e-14
1e-14
1e-14
1e-14
1.0013e-14
1.01152e-14
2.85079e-13
1e-14
1e-14
1e-14
1e-14
1e-14
1e-14
1e-14
1e-14
1e-14
1e-14
1e-14
1e-14
1.26314e-14
1e-14
1e-14
1e-14
1e-14
1e-14
1e-14
1e-14
1e-14
1e-14
1e-14
1e-14
1e-14
1e-14
1e-14
1e-14
1e-14
1e-14
1e-14
1e-14
1e-14
1e-14
1e-14
1e-14
1e-14
1e-14
1e-14
1e-14
1e-14
1e-14
1e-14
1.0013e-14
1e-14
1e-14
1e-14
1e-14
1e-14
1.00001e-14
1.00001e-14
1.00183e-14
1e-14
1.01152e-14
1.26304e-14
1.0003e-14
1.00097e-14
1.00002e-14
1e-14
1e-14
1.02145e-14
1e-14
2.85081e-13
1.02042e-14
1.03505e-14
1.00189e-14
1.00054e-14
1e-14
1e-14
1e-14
1e-14
1e-14
1e-14
1.00001e-14
1e-14
1e-14
1e-14
1e-14
1e-14
1e-14
1e-14
1.00028e-14
1.02033e-14
1e-14
1e-14
1e-14
1e-14
1e-14
1e-14
1e-14
1e-14
1e-14
1e-14
1e-14
1e-14
1e-14
1.00111e-14
1.0357e-14
1e-14
1e-14
1e-14
1e-14
1e-14
1e-14
1e-14
1e-14
1e-14
1e-14
1e-14
1e-14
1e-14
1.00003e-14
1.0038e-14
1e-14
1e-14
1e-14
1e-14
1e-14
1e-14
1e-14
1e-14
1e-14
1e-14
1e-14
1e-14
1.00001e-14
1e-14
1.00056e-14
1e-14
1e-14
1e-14
1e-14
1e-14
1e-14
1e-14
1e-14
1e-14
1e-14
1e-14
1e-14
1.00001e-14
1e-14
1e-14
1.00001e-14
1e-14
1e-14
1e-14
1e-14
1e-14
1e-14
1e-14
1e-14
1e-14
1e-14
1e-14
1.00186e-14
1.02129e-14
1e-14
1e-14
1e-14
1e-14
1e-14
1e-14
1e-14
1e-14
1e-14
1e-14
1e-14
1e-14
1e-14
1e-14
1e-14
1e-14
1e-14
1e-14
1e-14
1e-14
1e-14
1e-14
1e-14
1e-14
1e-14
1.00144e-14
1.01122e-14
2.85086e-13
1e-14
1e-14
1e-14
1e-14
1e-14
1e-14
1e-14
1e-14
1e-14
1e-14
1e-14
1e-14
1.26313e-14
1e-14
1e-14
1e-14
1e-14
1e-14
1e-14
1e-14
1e-14
1e-14
1e-14
1e-14
1e-14
1e-14
1e-14
1e-14
1e-14
1e-14
1e-14
1e-14
1e-14
1e-14
1e-14
1e-14
1e-14
1e-14
1e-14
1e-14
1e-14
1e-14
1e-14
1.00144e-14
1e-14
1e-14
1e-14
1e-14
1e-14
1.00001e-14
1.00001e-14
1.00186e-14
1e-14
1.01122e-14
1.26304e-14
1.00028e-14
1.00111e-14
1.00003e-14
1e-14
1e-14
1.02129e-14
1e-14
2.85087e-13
1.02033e-14
1.03571e-14
1.0038e-14
1.00056e-14
1e-14
1e-14
1e-14
1e-14
1.00001e-14
1.00001e-14
1.00001e-14
1e-14
1e-14
1e-14
1e-14
1e-14
1e-14
1e-14
1.00072e-14
1.01465e-14
1e-14
1e-14
1e-14
1e-14
1e-14
1e-14
1e-14
1e-14
1e-14
1e-14
1e-14
1e-14
1e-14
1.00177e-14
1.0352e-14
1e-14
1e-14
1e-14
1e-14
1e-14
1e-14
1e-14
1e-14
1e-14
1e-14
1e-14
1e-14
1e-14
1.00005e-14
1.00538e-14
1.00001e-14
1e-14
1e-14
1e-14
1e-14
1e-14
1e-14
1e-14
1e-14
1e-14
1e-14
1e-14
1.00001e-14
1e-14
1.00046e-14
1.00001e-14
1e-14
1e-14
1e-14
1e-14
1e-14
1e-14
1e-14
1e-14
1e-14
1e-14
1e-14
1.00002e-14
1e-14
1e-14
1.00001e-14
1e-14
1e-14
1e-14
1e-14
1e-14
1e-14
1e-14
1e-14
1e-14
1e-14
1e-14
1.00181e-14
1.01887e-14
1e-14
1e-14
1e-14
1e-14
1e-14
1e-14
1e-14
1e-14
1e-14
1e-14
1e-14
1e-14
1e-14
1e-14
1e-14
1e-14
1e-14
1e-14
1e-14
1e-14
1e-14
1e-14
1e-14
1e-14
1e-14
1.0012e-14
1.01123e-14
2.84315e-13
1e-14
1e-14
1e-14
1e-14
1e-14
1e-14
1e-14
1e-14
1e-14
1e-14
1e-14
1e-14
1.19978e-14
1e-14
1e-14
1e-14
1e-14
1e-14
1e-14
1e-14
1e-14
1e-14
1e-14
1e-14
1e-14
1e-14
1e-14
1e-14
1e-14
1e-14
1e-14
1e-14
1e-14
1e-14
1e-14
1e-14
1e-14
1e-14
1e-14
1e-14
1e-14
1e-14
1e-14
1.0012e-14
1e-14
1e-14
1e-14
1e-14
1e-14
1.00001e-14
1.00002e-14
1.00181e-14
1e-14
1.01123e-14
1.19976e-14
1.00072e-14
1.00177e-14
1.00005e-14
1e-14
1e-14
1.01886e-14
1e-14
2.84316e-13
1.01465e-14
1.03521e-14
1.00537e-14
1.00046e-14
1e-14
1e-14
1e-14
1e-14
1e-14
1e-14
1e-14
1e-14
1e-14
1e-14
1e-14
1e-14
1e-14
1e-14
1.00008e-14
1e-14
1e-14
1e-14
1e-14
1e-14
1e-14
1e-14
1e-14
1e-14
1e-14
1e-14
1e-14
1e-14
1e-14
1.00011e-14
1e-14
1e-14
1e-14
1e-14
1e-14
1e-14
1e-14
1e-14
1e-14
1e-14
1e-14
1e-14
1e-14
1e-14
1e-14
1.02256e-14
1e-14
1e-14
1e-14
1e-14
1e-14
1e-14
1e-14
1e-14
1e-14
1e-14
1e-14
1e-14
1e-14
1.00001e-14
1e-14
1e-14
1e-14
1e-14
1e-14
1e-14
1e-14
1e-14
1e-14
1e-14
1e-14
1e-14
1e-14
1e-14
1.00003e-14
1e-14
1e-14
1e-14
1e-14
1e-14
1e-14
1e-14
1e-14
1e-14
1e-14
1e-14
1e-14
1e-14
1.00007e-14
1e-14
1e-14
1e-14
1e-14
1e-14
1e-14
1e-14
1e-14
1e-14
1e-14
1e-14
1e-14
1e-14
1e-14
1e-14
1e-14
1e-14
1e-14
1e-14
1e-14
1e-14
1e-14
1e-14
1e-14
1e-14
1e-14
1.00008e-14
1e-14
1e-14
1e-14
1e-14
1e-14
1e-14
1e-14
1e-14
1e-14
1e-14
1e-14
1e-14
1e-14
1e-14
1e-14
1e-14
1e-14
1e-14
1e-14
1e-14
1e-14
1e-14
1e-14
1e-14
1e-14
1e-14
1.00304e-14
1e-14
1e-14
1e-14
1e-14
1e-14
1e-14
1e-14
1e-14
1e-14
1e-14
1.00187e-14
1e-14
1e-14
1e-14
1e-14
1e-14
1e-14
1e-14
1.00008e-14
1e-14
1.00304e-14
1e-14
1e-14
1e-14
1e-14
1e-14
1.00007e-14
1e-14
1e-14
1e-14
1.00008e-14
1.00011e-14
1e-14
1.00001e-14
1.00003e-14
1e-14
1e-14
1e-14
1e-14
1e-14
1.02256e-14
1e-14
1e-14
1e-14
1e-14
1e-14
1e-14
1e-14
1e-14
1e-14
1e-14
1e-14
1e-14
1e-14
1e-14
1e-14
1.00001e-14
1e-14
1e-14
1e-14
1e-14
1e-14
1e-14
1e-14
1e-14
1e-14
1e-14
1e-14
1e-14
1e-14
1e-14
1.00001e-14
1e-14
1e-14
1e-14
1e-14
1e-14
1e-14
1e-14
1e-14
1e-14
1e-14
1e-14
1e-14
1e-14
1e-14
1e-14
1.0001e-14
1e-14
1e-14
1e-14
1e-14
1e-14
1e-14
1e-14
1e-14
1e-14
1e-14
1e-14
1e-14
1e-14
1e-14
1.00001e-14
1e-14
1e-14
1e-14
1e-14
1e-14
1e-14
1e-14
1e-14
1e-14
1e-14
1e-14
1e-14
1e-14
1e-14
1e-14
1e-14
1e-14
1e-14
1e-14
1e-14
1e-14
1e-14
1e-14
1e-14
1e-14
1e-14
1e-14
1e-14
1.00001e-14
1e-14
1e-14
1e-14
1e-14
1e-14
1e-14
1e-14
1e-14
1e-14
1e-14
1e-14
1e-14
1e-14
1e-14
1e-14
1e-14
1e-14
1e-14
1e-14
1e-14
1e-14
1e-14
1e-14
1e-14
1e-14
1.00001e-14
1e-14
1e-14
1e-14
1e-14
1e-14
1e-14
1e-14
1e-14
1e-14
1e-14
1e-14
1e-14
1e-14
1e-14
1e-14
1e-14
1e-14
1e-14
1e-14
1e-14
1e-14
1e-14
1e-14
1e-14
1e-14
1.00001e-14
1e-14
1e-14
1e-14
1e-14
1e-14
1e-14
1e-14
1e-14
1e-14
1e-14
1e-14
1e-14
1e-14
1e-14
1e-14
1e-14
1e-14
1e-14
1.00001e-14
1e-14
1.00001e-14
1e-14
1e-14
1e-14
1e-14
1e-14
1e-14
1e-14
1e-14
1e-14
1.00001e-14
1.00001e-14
1e-14
1e-14
1e-14
1.00001e-14
1e-14
1e-14
1e-14
1.0001e-14
1.00001e-14
1e-14
1e-14
1e-14
1e-14
1e-14
1e-14
1e-14
1e-14
1e-14
1e-14
1e-14
1e-14
1e-14
1e-14
1e-14
1e-14
1e-14
1e-14
1e-14
1e-14
1e-14
1e-14
1e-14
1e-14
1e-14
1e-14
1e-14
1e-14
1e-14
1e-14
1e-14
1e-14
1e-14
1e-14
1e-14
1e-14
1e-14
1e-14
1e-14
1e-14
1e-14
1e-14
1e-14
1e-14
1e-14
1e-14
1e-14
1e-14
1e-14
1e-14
1e-14
1e-14
1e-14
1e-14
1e-14
1e-14
1e-14
1e-14
1e-14
1e-14
1e-14
1e-14
1e-14
1e-14
1e-14
1e-14
1e-14
1e-14
1e-14
1e-14
1e-14
1e-14
1e-14
1e-14
1e-14
1e-14
1e-14
1e-14
1e-14
1e-14
1e-14
1e-14
1e-14
1e-14
1e-14
1e-14
1e-14
1e-14
1e-14
1.00001e-14
1e-14
1e-14
1e-14
1e-14
1e-14
1e-14
1e-14
1e-14
1e-14
1e-14
1e-14
1e-14
1e-14
1e-14
1e-14
1e-14
1e-14
1e-14
1e-14
1e-14
1e-14
1e-14
1e-14
1e-14
1e-14
1e-14
1.00001e-14
1e-14
1e-14
1e-14
1e-14
1e-14
1e-14
1e-14
1e-14
1e-14
1e-14
1e-14
1.00001e-14
1e-14
1e-14
1e-14
1e-14
1e-14
1e-14
1e-14
1e-14
1e-14
1e-14
1e-14
1e-14
1e-14
1e-14
1e-14
1e-14
1e-14
1e-14
1e-14
1e-14
1e-14
1e-14
1e-14
1e-14
1e-14
1e-14
1e-14
1e-14
1e-14
1e-14
1e-14
1e-14
1.00001e-14
1e-14
1e-14
1e-14
1e-14
1e-14
1e-14
1e-14
1e-14
1.00001e-14
1e-14
1e-14
1e-14
1e-14
1e-14
1e-14
1.00001e-14
1e-14
1e-14
1e-14
1e-14
1e-14
1e-14
1e-14
1e-14
1e-14
1e-14
1e-14
1e-14
1e-14
1e-14
1e-14
1e-14
1e-14
1e-14
1e-14
1e-14
1e-14
1e-14
1e-14
1e-14
1e-14
1e-14
1e-14
1e-14
1e-14
1e-14
1e-14
1e-14
1e-14
1e-14
1e-14
1e-14
1e-14
1e-14
1e-14
1e-14
1e-14
1e-14
1e-14
1e-14
1e-14
1e-14
1e-14
1e-14
1e-14
1e-14
1e-14
1e-14
1e-14
1e-14
1e-14
1e-14
1e-14
1e-14
1e-14
1e-14
1e-14
1e-14
1e-14
1e-14
1e-14
1e-14
1e-14
1e-14
1e-14
1e-14
1e-14
1e-14
1e-14
1e-14
1e-14
1e-14
1e-14
1e-14
1e-14
1e-14
1e-14
1e-14
1e-14
1e-14
1e-14
1e-14
1e-14
1e-14
1e-14
1e-14
1e-14
1e-14
1e-14
1e-14
1.00001e-14
1e-14
1e-14
1e-14
1e-14
1e-14
1e-14
1e-14
1e-14
1e-14
1e-14
1e-14
1e-14
1e-14
1e-14
1e-14
1e-14
1e-14
1e-14
1e-14
1e-14
1e-14
1e-14
1e-14
1e-14
1e-14
1e-14
1e-14
1e-14
1e-14
1e-14
1e-14
1e-14
1e-14
1e-14
1e-14
1e-14
1e-14
1e-14
1e-14
1e-14
1e-14
1e-14
1e-14
1e-14
1e-14
1e-14
1e-14
1e-14
1e-14
1e-14
1e-14
1e-14
1e-14
1e-14
1e-14
1e-14
1e-14
1e-14
1e-14
1e-14
1e-14
1e-14
1e-14
1e-14
1e-14
1e-14
1e-14
1e-14
1e-14
1e-14
1e-14
1e-14
1e-14
1e-14
1e-14
1e-14
1e-14
1e-14
1e-14
1e-14
1e-14
1e-14
1e-14
1e-14
1e-14
1e-14
1e-14
1.00001e-14
1e-14
1e-14
1e-14
1e-14
1e-14
1e-14
1e-14
1.00001e-14
1e-14
1e-14
1e-14
1e-14
1e-14
1e-14
1e-14
1e-14
1e-14
1e-14
1e-14
1e-14
1e-14
1.00001e-14
1e-14
1e-14
1e-14
1e-14
1e-14
1e-14
1e-14
1e-14
1e-14
1e-14
1e-14
1e-14
1e-14
1e-14
1e-14
1e-14
1e-14
1e-14
1e-14
1e-14
1e-14
1e-14
1e-14
1e-14
1e-14
1e-14
1e-14
1e-14
1e-14
1e-14
1e-14
1e-14
1e-14
1e-14
1e-14
1e-14
1e-14
1e-14
1e-14
1e-14
1e-14
1e-14
1e-14
1e-14
1e-14
1e-14
1e-14
1e-14
1e-14
1e-14
1e-14
1e-14
1e-14
1e-14
1e-14
1e-14
1e-14
1e-14
1e-14
1e-14
1e-14
1e-14
1e-14
1e-14
1e-14
1e-14
1e-14
1e-14
1e-14
1e-14
1e-14
1e-14
1e-14
1e-14
1e-14
1e-14
1e-14
1e-14
1e-14
1e-14
1e-14
1e-14
1e-14
1e-14
1e-14
1e-14
1e-14
1e-14
1e-14
1e-14
1e-14
1e-14
1e-14
1e-14
1e-14
1e-14
1e-14
1e-14
1e-14
1.00001e-14
1e-14
1e-14
1e-14
1e-14
1e-14
1e-14
1e-14
1e-14
1e-14
1e-14
1e-14
1e-14
1e-14
1e-14
1e-14
1e-14
1e-14
1e-14
1e-14
1e-14
1e-14
1e-14
1e-14
1e-14
1.00001e-14
1e-14
1e-14
1e-14
1e-14
1e-14
1e-14
1e-14
1e-14
1e-14
1e-14
1e-14
1e-14
1e-14
1e-14
1e-14
1e-14
1e-14
1e-14
1e-14
1e-14
1.00001e-14
1e-14
1e-14
1e-14
1e-14
1e-14
1e-14
1e-14
1.00001e-14
1e-14
1e-14
1e-14
1e-14
1e-14
1e-14
1e-14
1e-14
1e-14
1e-14
1e-14
1e-14
1e-14
1.00001e-14
1.00001e-14
1e-14
1e-14
1e-14
1e-14
1e-14
1e-14
1e-14
1e-14
1.00001e-14
1e-14
1e-14
1e-14
1e-14
1.00001e-14
1e-14
1e-14
1e-14
1e-14
1e-14
1e-14
1e-14
1e-14
1e-14
1e-14
1e-14
1e-14
1e-14
1e-14
1e-14
1e-14
1e-14
1e-14
1e-14
1e-14
1e-14
1e-14
1e-14
1e-14
1e-14
1e-14
1e-14
1e-14
1e-14
1e-14
1e-14
1e-14
1e-14
1e-14
1e-14
1e-14
1e-14
1e-14
1e-14
1e-14
1e-14
1e-14
1e-14
1e-14
1e-14
1e-14
1e-14
1e-14
1e-14
1e-14
1e-14
1e-14
1e-14
1e-14
1e-14
1e-14
1e-14
1e-14
1e-14
1e-14
1e-14
1e-14
1e-14
1e-14
1e-14
1e-14
1e-14
1e-14
1e-14
1e-14
1e-14
1e-14
1.00001e-14
1e-14
1e-14
1e-14
1e-14
1e-14
1e-14
1e-14
1e-14
1e-14
1e-14
1e-14
1e-14
1e-14
1e-14
1e-14
1e-14
1e-14
1e-14
1e-14
1e-14
1e-14
1e-14
1e-14
1e-14
1e-14
1e-14
1e-14
1e-14
1e-14
1e-14
1e-14
1e-14
1e-14
1e-14
1e-14
1e-14
1e-14
1e-14
1.00001e-14
1e-14
1e-14
1e-14
1e-14
1e-14
1e-14
1e-14
1e-14
1e-14
1e-14
1e-14
1e-14
1e-14
1.00001e-14
1e-14
1e-14
1e-14
1e-14
1e-14
1e-14
1e-14
1e-14
1e-14
1e-14
1e-14
1e-14
1e-14
1e-14
1e-14
1e-14
1e-14
1e-14
1.00001e-14
1e-14
1e-14
1e-14
1e-14
1e-14
1e-14
1e-14
1e-14
1e-14
1e-14
1e-14
1e-14
1e-14
1e-14
1e-14
1.00001e-14
1e-14
1e-14
1e-14
1e-14
1e-14
1e-14
1e-14
1e-14
1e-14
1e-14
1e-14
1e-14
1e-14
1e-14
1e-14
1e-14
1e-14
1e-14
1e-14
1e-14
1.00001e-14
1e-14
1e-14
1e-14
1e-14
1e-14
1e-14
1e-14
1e-14
1e-14
1e-14
1e-14
1e-14
1e-14
1e-14
1e-14
1e-14
1e-14
1e-14
1e-14
1e-14
1e-14
1e-14
1e-14
1e-14
1e-14
1e-14
1e-14
1e-14
1e-14
1e-14
1e-14
1e-14
1e-14
1e-14
1e-14
1e-14
1e-14
1e-14
1e-14
1e-14
1e-14
1e-14
1e-14
1e-14
1e-14
1e-14
1e-14
1e-14
1e-14
1e-14
1e-14
1e-14
1e-14
1e-14
1e-14
1e-14
1e-14
1e-14
1e-14
1e-14
1e-14
1e-14
1e-14
1e-14
1e-14
1e-14
1e-14
1e-14
1e-14
1e-14
1e-14
1e-14
1e-14
1.00001e-14
1e-14
1e-14
1e-14
1e-14
1e-14
1e-14
1e-14
1e-14
1e-14
1e-14
1e-14
1e-14
1.00001e-14
1e-14
1e-14
1e-14
1e-14
1e-14
1e-14
1e-14
1e-14
1e-14
1e-14
1e-14
1e-14
1e-14
1.00001e-14
1e-14
1e-14
1e-14
1e-14
1e-14
1e-14
1e-14
1e-14
1e-14
1e-14
1e-14
1e-14
1e-14
1e-14
1e-14
1e-14
1e-14
1e-14
1e-14
1e-14
1e-14
1e-14
1e-14
1e-14
1.00001e-14
1e-14
1e-14
1e-14
1e-14
1e-14
1e-14
1e-14
1e-14
1e-14
1e-14
1.00001e-14
1e-14
1e-14
1e-14
1e-14
1e-14
1e-14
1e-14
1e-14
1e-14
1.00001e-14
1e-14
1e-14
1e-14
1e-14
1e-14
1e-14
1.00001e-14
1.00001e-14
1e-14
1e-14
1e-14
1e-14
1e-14
1e-14
1.00001e-14
1e-14
1.00001e-14
1e-14
1e-14
1e-14
1e-14
1e-14
1e-14
1e-14
1e-14
1e-14
1e-14
1e-14
1e-14
1e-14
1e-14
1e-14
1e-14
1e-14
1e-14
1e-14
1e-14
1e-14
1e-14
1e-14
1e-14
1e-14
1e-14
1e-14
1e-14
1e-14
1e-14
1e-14
1e-14
1e-14
1e-14
1e-14
1e-14
1e-14
1e-14
1e-14
1e-14
1e-14
1e-14
1e-14
1e-14
1e-14
1e-14
1e-14
1e-14
1e-14
1e-14
1e-14
1e-14
1e-14
1e-14
1e-14
1e-14
1e-14
1e-14
1e-14
1e-14
1e-14
1e-14
1e-14
1e-14
1e-14
1e-14
1e-14
1e-14
1e-14
1e-14
1e-14
1e-14
1e-14
1e-14
1e-14
1e-14
1e-14
1e-14
1e-14
1e-14
1e-14
1e-14
1e-14
1e-14
1e-14
1e-14
1e-14
1e-14
1e-14
1e-14
1e-14
1e-14
1.00001e-14
1e-14
1e-14
1e-14
1e-14
1e-14
1e-14
1e-14
1e-14
1e-14
1e-14
1e-14
1e-14
1e-14
1e-14
1e-14
1e-14
1e-14
1e-14
1e-14
1e-14
1e-14
1e-14
1e-14
1e-14
1e-14
1e-14
1.00001e-14
1e-14
1e-14
1e-14
1e-14
1e-14
1e-14
1e-14
1e-14
1e-14
1e-14
1e-14
1.00001e-14
1e-14
1e-14
1e-14
1e-14
1e-14
1e-14
1e-14
1e-14
1e-14
1e-14
1e-14
1e-14
1e-14
1e-14
1e-14
1e-14
1e-14
1e-14
1e-14
1e-14
1e-14
1e-14
1e-14
1e-14
1e-14
1e-14
1e-14
1e-14
1e-14
1e-14
1e-14
1e-14
1.00001e-14
1e-14
1e-14
1e-14
1e-14
1e-14
1e-14
1e-14
1e-14
1.00001e-14
1e-14
1e-14
1e-14
1e-14
1e-14
1e-14
1.00001e-14
1e-14
1e-14
1e-14
1e-14
1e-14
1e-14
1.03938e-14
1.5284e-13
1.04514e-14
1.62504e-13
1.05544e-14
1.72894e-13
1.09826e-14
1.37732e-14
1.01282e-14
1.00063e-14
1.86216e-14
1.00163e-14
1.09672e-14
1.00064e-14
1.49329e-14
2.01305e-14
3.69245e-13
1.03289e-14
1.0647e-13
1.21521e-14
1.00017e-14
1.01688e-14
1.00138e-14
1.1128e-14
1.03168e-14
1.39636e-13
1.01255e-14
2.42769e-14
1.11382e-14
3.09302e-13
1.00078e-14
1.08796e-14
1.00966e-14
1.35824e-13
1e-14
1.00711e-14
3.16487e-13
3.4665e-13
1e-14
3.44563e-13
3.43279e-13
1.00078e-14
1.00965e-14
1.08795e-14
1.35828e-13
1.00705e-14
3.46002e-13
3.16476e-13
1.00018e-14
1.00138e-14
1.01687e-14
1.11278e-14
1.01255e-14
1.1135e-14
2.42766e-14
1e-14
1.00163e-14
1.00064e-14
1.09671e-14
1.49321e-14
1.03288e-14
1.21519e-14
1.06469e-13
1.03168e-14
1.39635e-13
3.09302e-13
1.03937e-14
1.04507e-14
1.52906e-13
1.62497e-13
1.05541e-14
1.09831e-14
1.72889e-13
1.3774e-14
1.01282e-14
1.00063e-14
1.86218e-14
2.01301e-14
3.69245e-13
1.39678e-13
1.02322e-14
1.47449e-13
1.03328e-14
1.52093e-13
1.03845e-14
1.61709e-13
1.57312e-13
1e-14
1.047e-14
1.72086e-13
1.07782e-14
1e-14
1.30545e-14
1.01015e-14
1e-14
1.00071e-14
1.7955e-14
1.01522e-14
1.00042e-14
1e-14
1.00091e-14
1.07144e-14
1.00056e-14
1.46386e-14
3.56878e-13
1.94298e-14
3.68491e-13
9.79395e-14
1e-14
1.02792e-14
1.06163e-13
1.17259e-14
1.00594e-14
1e-14
1.0056e-14
1.00015e-14
1.01404e-14
1.00096e-14
1.08801e-14
1.04919e-13
1.0298e-14
1.3886e-13
1e-14
1e-14
1.01053e-14
2.34899e-14
1.06189e-14
3.08569e-13
1.02498e-14
1.01164e-14
1.23901e-13
1.0005e-14
1.07916e-14
1.0087e-14
1.35097e-13
1e-14
2.94055e-13
2.723e-13
1e-14
3.15416e-13
3.45611e-13
2.75444e-13
2.74488e-13
1e-14
3.43479e-13
3.42167e-13
1.01164e-14
1.02497e-14
1.23902e-13
1.0005e-14
1.0087e-14
1.07914e-14
1.351e-13
2.71922e-13
2.9406e-13
1e-14
3.44997e-13
3.15408e-13
1e-14
1.00594e-14
1.0056e-14
1.00015e-14
1.00096e-14
1.01404e-14
1.08799e-14
1e-14
1e-14
1.01053e-14
1.06178e-14
2.34903e-14
1e-14
1.00042e-14
1.01523e-14
1e-14
1.00091e-14
1.00056e-14
1.07143e-14
1.46376e-14
1e-14
9.79393e-14
1.02792e-14
1.17258e-14
1.06162e-13
1.0492e-13
1.02979e-14
1.3886e-13
3.0857e-13
1.0232e-14
1.39743e-13
1.47456e-13
1.03327e-14
1.0384e-14
1.52158e-13
1.61704e-13
1e-14
1.57319e-13
1.04697e-14
1.07786e-14
1.72083e-13
1e-14
1.3055e-14
1.01015e-14
1e-14
1.00071e-14
1.79552e-14
3.56877e-13
1.94298e-14
3.68492e-13
1.39757e-13
1.02358e-14
1.47556e-13
1.03277e-14
1.52067e-13
1.03797e-14
1.61679e-13
1.57494e-13
1e-14
1.04664e-14
1.72101e-13
1.07171e-14
1e-14
1.2869e-14
1.00995e-14
1e-14
1.00062e-14
1.79246e-14
1.01799e-14
1.00045e-14
1e-14
1.0008e-14
1.0676e-14
1.00055e-14
1.45669e-14
3.56451e-13
1.94376e-14
3.68426e-13
9.80675e-14
1e-14
1.02762e-14
1.06179e-13
1.16503e-14
1.00575e-14
1e-14
1.00977e-14
1.00013e-14
1.01404e-14
1.00084e-14
1.08338e-14
1.05468e-13
1.03098e-14
1.38758e-13
1e-14
1e-14
1.01064e-14
2.36895e-14
1.05153e-14
3.08705e-13
1.02493e-14
1.01141e-14
1.23995e-13
1.0005e-14
1.07955e-14
1.00883e-14
1.35192e-13
1e-14
2.94216e-13
2.7357e-13
1e-14
3.15571e-13
3.45499e-13
2.76754e-13
2.75787e-13
1e-14
3.43379e-13
3.42072e-13
1.0114e-14
1.02492e-14
1.23996e-13
1.0005e-14
1.00883e-14
1.07954e-14
1.35194e-13
2.73198e-13
2.94217e-13
1e-14
3.44889e-13
3.15564e-13
1e-14
1.00575e-14
1.00977e-14
1.00013e-14
1.00084e-14
1.01404e-14
1.08336e-14
1e-14
1e-14
1.01064e-14
1.05148e-14
2.36898e-14
1e-14
1.00045e-14
1.01799e-14
1e-14
1.0008e-14
1.00055e-14
1.0676e-14
1.45662e-14
1e-14
9.80674e-14
1.02762e-14
1.16501e-14
1.06178e-13
1.05469e-13
1.03098e-14
1.38757e-13
3.08708e-13
1.02355e-14
1.39821e-13
1.47564e-13
1.03277e-14
1.03792e-14
1.52131e-13
1.61676e-13
1e-14
1.57501e-13
1.04662e-14
1.07175e-14
1.721e-13
1e-14
1.28694e-14
1.00995e-14
1e-14
1.00062e-14
1.79248e-14
3.5645e-13
1.94377e-14
3.68425e-13
1.39799e-13
1.02381e-14
1.47593e-13
1.03275e-14
1.52066e-13
1.03798e-14
1.61684e-13
1.57546e-13
1e-14
1.0467e-14
1.72117e-13
1.07082e-14
1e-14
1.28513e-14
1.00993e-14
1e-14
1.00062e-14
1.79136e-14
1.01873e-14
1.00045e-14
1e-14
1.00078e-14
1.06698e-14
1.00054e-14
1.45497e-14
3.56265e-13
1.9447e-14
3.68425e-13
9.80883e-14
1e-14
1.02762e-14
1.06202e-13
1.16369e-14
1.00577e-14
1e-14
1.01044e-14
1.00012e-14
1.01403e-14
1.00081e-14
1.08236e-14
1.05456e-13
1.03128e-14
1.38718e-13
1e-14
1e-14
1.01058e-14
2.38019e-14
1.04998e-14
3.08743e-13
1.02498e-14
1.01143e-14
1.24021e-13
1.00049e-14
1.07967e-14
1.00883e-14
1.3522e-13
1e-14
2.94175e-13
2.73586e-13
1e-14
3.15599e-13
3.45514e-13
2.76785e-13
2.75825e-13
1e-14
3.43374e-13
3.42064e-13
1.01142e-14
1.02498e-14
1.2402e-13
1.00049e-14
1.00883e-14
1.07966e-14
1.35221e-13
2.73219e-13
2.94177e-13
1e-14
3.44899e-13
3.15592e-13
1e-14
1.00577e-14
1.01044e-14
1.00012e-14
1.00081e-14
1.01403e-14
1.08235e-14
1e-14
1e-14
1.01058e-14
1.04994e-14
2.38024e-14
1e-14
1.00045e-14
1.01873e-14
1e-14
1.00078e-14
1.00054e-14
1.06697e-14
1.45489e-14
1e-14
9.80883e-14
1.02762e-14
1.16368e-14
1.06201e-13
1.05457e-13
1.03129e-14
1.38718e-13
3.08743e-13
1.0238e-14
1.39862e-13
1.47603e-13
1.03276e-14
1.03798e-14
1.52131e-13
1.61686e-13
1e-14
1.57554e-13
1.04671e-14
1.07088e-14
1.7212e-13
1e-14
1.28516e-14
1.00993e-14
1e-14
1.00062e-14
1.79136e-14
3.56266e-13
1.9447e-14
3.68425e-13
1.39786e-13
1.02387e-14
1.47584e-13
1.0329e-14
1.52075e-13
1.03818e-14
1.61702e-13
1.5754e-13
1e-14
1.04706e-14
1.72134e-13
1.07156e-14
1e-14
1.28653e-14
1.00992e-14
1e-14
1.00068e-14
1.78985e-14
1.01866e-14
1.00045e-14
1e-14
1.00077e-14
1.06673e-14
1.00054e-14
1.4524e-14
3.5622e-13
1.94484e-14
3.68424e-13
9.81046e-14
1e-14
1.02763e-14
1.0624e-13
1.16315e-14
1.00575e-14
1e-14
1.01015e-14
1.00011e-14
1.01401e-14
1.00078e-14
1.08148e-14
1.05404e-13
1.03162e-14
1.38678e-13
1e-14
1e-14
1.01045e-14
2.39047e-14
1.04917e-14
3.0879e-13
1.02499e-14
1.0114e-14
1.24034e-13
1.00048e-14
1.07965e-14
1.00879e-14
1.35223e-13
1e-14
2.94172e-13
2.73589e-13
1e-14
3.15592e-13
3.45521e-13
2.7677e-13
2.75805e-13
1e-14
3.43371e-13
3.42061e-13
1.0114e-14
1.02499e-14
1.24032e-13
1.00048e-14
1.00879e-14
1.07964e-14
1.35224e-13
2.73216e-13
2.94173e-13
1e-14
3.44909e-13
3.15585e-13
1e-14
1.00575e-14
1.01015e-14
1.00011e-14
1.00078e-14
1.01401e-14
1.08147e-14
1e-14
1e-14
1.01045e-14
1.04911e-14
2.3905e-14
1e-14
1.00045e-14
1.01866e-14
1e-14
1.00077e-14
1.00054e-14
1.06672e-14
1.4523e-14
1e-14
9.81045e-14
1.02763e-14
1.16313e-14
1.06239e-13
1.05404e-13
1.03162e-14
1.38677e-13
3.08791e-13
1.02388e-14
1.39838e-13
1.47596e-13
1.03288e-14
1.03821e-14
1.52087e-13
1.61709e-13
1e-14
1.57549e-13
1.04709e-14
1.07162e-14
1.72141e-13
1e-14
1.28654e-14
1.00992e-14
1e-14
1.00068e-14
1.78987e-14
3.56219e-13
1.94486e-14
3.68425e-13
1.39733e-13
1.02398e-14
1.47534e-13
1.03327e-14
1.52096e-13
1.03871e-14
1.61752e-13
1.57464e-13
1e-14
1.04825e-14
1.72165e-13
1.07536e-14
1e-14
1.28945e-14
1.01012e-14
1e-14
1.00087e-14
1.79104e-14
1.01853e-14
1.00045e-14
1e-14
1.00076e-14
1.06693e-14
1.00055e-14
1.44773e-14
3.56157e-13
1.95218e-14
3.68372e-13
9.81284e-14
1e-14
1.02766e-14
1.06339e-13
1.16338e-14
1.00576e-14
1e-14
1.00961e-14
1.00011e-14
1.01403e-14
1.00076e-14
1.08108e-14
1.05312e-13
1.03214e-14
1.38661e-13
1e-14
1e-14
1.01027e-14
2.40627e-14
1.04931e-14
3.08793e-13
1.02497e-14
1.01138e-14
1.24051e-13
1.00047e-14
1.07979e-14
1.00877e-14
1.35225e-13
1e-14
2.94166e-13
2.73569e-13
1e-14
3.15577e-13
3.45547e-13
2.76749e-13
2.75786e-13
1e-14
3.43381e-13
3.42075e-13
1.01138e-14
1.02497e-14
1.24049e-13
1.00047e-14
1.00876e-14
1.07978e-14
1.35226e-13
2.73202e-13
2.94167e-13
1e-14
3.44938e-13
3.1557e-13
1e-14
1.00576e-14
1.00961e-14
1.00011e-14
1.00076e-14
1.01403e-14
1.08107e-14
1e-14
1e-14
1.01027e-14
1.04927e-14
2.4063e-14
1e-14
1.00045e-14
1.01853e-14
1e-14
1.00076e-14
1.00055e-14
1.06693e-14
1.44767e-14
1e-14
9.81286e-14
1.02765e-14
1.16337e-14
1.06338e-13
1.05312e-13
1.03213e-14
1.3866e-13
3.08794e-13
1.02399e-14
1.39741e-13
1.47544e-13
1.03326e-14
1.03873e-14
1.52091e-13
1.61758e-13
1e-14
1.57473e-13
1.04826e-14
1.07539e-14
1.72172e-13
1e-14
1.28944e-14
1.01012e-14
1e-14
1.00087e-14
1.79106e-14
3.56158e-13
1.95221e-14
3.6837e-13
1.39545e-13
1.02406e-14
1.47373e-13
1.03442e-14
1.52226e-13
1.04055e-14
1.61985e-13
1.57205e-13
1e-14
1.0518e-14
1.72356e-13
1.08861e-14
1e-14
1.28729e-14
1.0118e-14
1e-14
1.00166e-14
1.81927e-14
1.01865e-14
1.00044e-14
1e-14
1.00073e-14
1.06883e-14
1.00061e-14
1.46032e-14
3.55865e-13
1.98119e-14
3.68615e-13
9.81443e-14
1e-14
1.02808e-14
1.06692e-13
1.16523e-14
1.00579e-14
1e-14
1.0091e-14
1.0001e-14
1.01426e-14
1.00077e-14
1.08338e-14
1.05025e-13
1.03324e-14
1.38715e-13
1e-14
1e-14
1.01052e-14
2.4698e-14
1.0642e-14
3.0912e-13
1.02487e-14
1.01134e-14
1.24078e-13
1.00045e-14
1.08243e-14
1.00897e-14
1.35547e-13
1e-14
2.94095e-13
2.73495e-13
1e-14
3.15701e-13
3.45655e-13
2.76677e-13
2.75717e-13
1e-14
3.43489e-13
3.422e-13
1.01134e-14
1.02487e-14
1.24076e-13
1.00045e-14
1.00897e-14
1.08242e-14
1.35548e-13
2.73129e-13
2.94097e-13
1e-14
3.45052e-13
3.15693e-13
1e-14
1.00579e-14
1.0091e-14
1.0001e-14
1.00077e-14
1.01426e-14
1.08337e-14
1e-14
1e-14
1.01052e-14
1.06419e-14
2.46983e-14
1e-14
1.00044e-14
1.01865e-14
1e-14
1.00073e-14
1.00061e-14
1.06883e-14
1.46022e-14
1e-14
9.81439e-14
1.02808e-14
1.16521e-14
1.06691e-13
1.05025e-13
1.03324e-14
1.38715e-13
3.09121e-13
1.02406e-14
1.39542e-13
1.47378e-13
1.03441e-14
1.04056e-14
1.52223e-13
1.61989e-13
1e-14
1.57211e-13
1.05181e-14
1.08862e-14
1.72363e-13
1e-14
1.28727e-14
1.0118e-14
1e-14
1.00166e-14
1.81931e-14
3.55865e-13
1.98127e-14
3.68615e-13
1.38286e-13
1.01833e-14
1.46173e-13
1.04904e-14
1.83532e-13
1.05809e-14
1.92708e-13
1.55958e-13
1e-14
1.0594e-14
2.02727e-13
1.11164e-14
1e-14
1.44081e-14
1.05855e-14
1e-14
1.01686e-14
1.6544e-14
1.01629e-14
1.00035e-14
1e-14
1.00197e-14
1.14507e-14
1.00061e-14
2.55795e-14
3.55937e-13
3.22419e-14
3.56396e-13
9.80141e-14
1e-14
1.0209e-14
1.21226e-13
1.15868e-14
1.0063e-14
1e-14
1.01157e-14
1.00011e-14
1.01512e-14
1.00098e-14
1.10137e-14
1.03484e-13
1.03504e-14
1.3586e-13
1e-14
1e-14
1.0059e-14
2.80372e-14
1.00063e-14
3.056e-13
1.03304e-14
1.01142e-14
1.23947e-13
1e-14
1.09373e-14
1.00268e-14
1.50798e-13
1e-14
2.93647e-13
2.73263e-13
1e-14
3.13349e-13
3.23348e-13
2.76577e-13
2.75641e-13
1e-14
3.25145e-13
3.24148e-13
1.01142e-14
1.03304e-14
1.23945e-13
1e-14
1.00268e-14
1.09373e-14
1.50799e-13
2.72904e-13
2.93649e-13
1e-14
3.22872e-13
3.13342e-13
1e-14
1.0063e-14
1.01157e-14
1.00011e-14
1.00098e-14
1.01512e-14
1.10137e-14
1e-14
1e-14
1.0059e-14
1.00063e-14
2.80373e-14
1e-14
1.00035e-14
1.01629e-14
1e-14
1.00197e-14
1.00061e-14
1.14506e-14
2.55793e-14
1e-14
9.80141e-14
1.0209e-14
1.15867e-14
1.21225e-13
1.03485e-13
1.03504e-14
1.3586e-13
3.05601e-13
1.01833e-14
1.38283e-13
1.46176e-13
1.04903e-14
1.05809e-14
1.83527e-13
1.92711e-13
1e-14
1.55964e-13
1.05941e-14
1.11166e-14
2.02733e-13
1e-14
1.4408e-14
1.05855e-14
1e-14
1.01686e-14
1.65441e-14
3.55937e-13
3.22414e-14
3.56396e-13