/*--------------------------------*- C++ -*----------------------------------*\
| =========                 |                                                 |
| \\      /  F ield         | OpenFOAM: The Open Source CFD Toolbox           |
|  \\    /   O peration     | Version:  2.1.1                                 |
|   \\  /    A nd           | Web:      www.OpenFOAM.org                      |
|    \\/     M anipulation  |                                                 |
\*---------------------------------------------------------------------------*/
FoamFile
{
    version     2.0;
    format      ascii;
    class       volVectorField;
    location    "0.001";
    object      U;
}
// * * * * * * * * * * * * * * * * * * * * * * * * * * * * * * * * * * * * * //

dimensions      [0 1 -1 0 0 0 0];

internalField   nonuniform List<vector> 
10314
(
(-2.12633e-05 -2.12428e-05 0.115661)
(-6.6669e-05 -2.10186e-05 0.115673)
(-0.000116701 -2.15342e-05 0.115706)
(-0.000168962 -2.06823e-05 0.115774)
(-0.000241149 -1.97992e-05 0.115876)
(-0.000310427 -1.775e-05 0.116035)
(-0.000422347 -1.53821e-05 0.116224)
(-0.000503379 -9.66817e-06 0.116527)
(-0.000672326 -1.80841e-06 0.116818)
(-0.000726416 5.75557e-06 0.117349)
(-0.00095129 2.26145e-05 0.117627)
(-0.000906007 -5.55175e-06 0.118922)
(-0.00110835 4.83633e-05 0.12132)
(-0.000307181 -0.000120185 0.101483)
(0.00368723 0.000651291 0.0249209)
(-2.10441e-05 -6.66783e-05 0.115673)
(-6.54402e-05 -6.54276e-05 0.115689)
(-0.000115233 -6.72853e-05 0.115727)
(-0.00016767 -6.53431e-05 0.115796)
(-0.00023844 -7.09192e-05 0.115899)
(-0.000305744 -6.42517e-05 0.116055)
(-0.00041453 -8.11793e-05 0.116244)
(-0.000490396 -5.80908e-05 0.116538)
(-0.000656635 -0.000116959 0.116827)
(-0.000701182 -3.37923e-05 0.117336)
(-0.00096502 -0.000223573 0.117728)
(-0.000927146 8.10237e-05 0.120023)
(-0.00111348 -0.000319266 0.119974)
(-0.000143653 0.000736758 0.0821247)
(0.00348548 0.0021342 0.0254738)
(-2.1594e-05 -0.000116753 0.115707)
(-6.72767e-05 -0.000115256 0.115728)
(-0.000116634 -0.000116649 0.115774)
(-0.000172609 -0.000113401 0.115846)
(-0.000240088 -0.000115759 0.115957)
(-0.000320758 -0.000107494 0.116115)
(-0.000416262 -0.000116043 0.116325)
(-0.00053942 -8.83868e-05 0.116616)
(-0.00064831 -0.000122792 0.116975)
(-0.000835863 -2.49427e-05 0.117467)
(-0.000855571 -0.000153053 0.118367)
(-0.00111032 0.000200061 0.119493)
(0.000162143 -5.13441e-05 0.0974441)
(-0.00166175 -0.00175829 0.0335691)
(0.00654054 0.0062999 0.018042)
(-2.07802e-05 -0.000169072 0.115775)
(-6.53259e-05 -0.000167763 0.115797)
(-0.000113385 -0.000172774 0.115847)
(-0.000166794 -0.000166979 0.115918)
(-0.000232559 -0.000171173 0.11603)
(-0.000306076 -0.000157558 0.11618)
(-0.000395471 -0.000161941 0.116385)
(-0.000497435 -0.000127378 0.116649)
(-0.000594276 -0.00012954 0.116979)
(-0.000730981 -5.65026e-05 0.117391)
(-0.000748515 -1.32196e-05 0.118218)
(-0.000986024 3.02762e-05 0.120105)
(0.000216301 0.000245625 0.0987534)
(0.00208685 0.00134208 0.0269677)
(5.3707e-05 -0.000162076 0.00414967)
(-2.00028e-05 -0.000241252 0.115876)
(-7.09576e-05 -0.000238604 0.115899)
(-0.000115839 -0.000240288 0.115957)
(-0.000171021 -0.00023285 0.11603)
(-0.000230681 -0.000230964 0.116153)
(-0.000311556 -0.000223612 0.116303)
(-0.000386082 -0.000214062 0.116522)
(-0.000507036 -0.000202792 0.116775)
(-0.000578003 -0.000176328 0.117124)
(-0.000716605 -0.000141408 0.117447)
(-0.000748093 -0.000111588 0.118445)
(-0.000926375 -6.98333e-05 0.120978)
(2.08152e-06 6.94956e-05 0.100212)
(0.00295992 -0.00184559 0.0302076)
(0.000254019 -0.000655794 0.00586132)
(-1.80796e-05 -0.00031066 0.116035)
(-6.43344e-05 -0.000305949 0.116055)
(-0.000107598 -0.000321189 0.116115)
(-0.000157463 -0.000306541 0.11618)
(-0.000223323 -0.000312176 0.116302)
(-0.00028921 -0.000290028 0.116444)
(-0.00037472 -0.0002878 0.11666)
(-0.000459935 -0.000243102 0.116894)
(-0.000533063 -0.000230854 0.117185)
(-0.000659985 -0.000150795 0.11751)
(-0.000671182 -1.23847e-05 0.119291)
(-0.000906675 -0.000223232 0.119597)
(-8.9981e-05 0.000677319 0.0836167)
(0.00330988 0.00107341 0.0274889)
(-1.59034e-05 -0.000422458 0.116224)
(-8.14145e-05 -0.000414977 0.116244)
(-0.000116385 -0.000416715 0.116325)
(-0.000161982 -0.00039613 0.116386)
(-0.000214133 -0.000386759 0.116522)
(-0.000287179 -0.000375715 0.11666)
(-0.000339251 -0.000340256 0.116889)
(-0.000450731 -0.000356442 0.117098)
(-0.000485167 -0.00023335 0.117379)
(-0.00050334 -0.000324899 0.118194)
(-0.000857852 -7.8467e-05 0.119567)
(0.000360272 -7.01236e-05 0.0965383)
(-0.0024367 -0.00214559 0.0350202)
(0.000745047 0.000592636 -0.0031137)
(-1.05081e-05 -0.00050371 0.116528)
(-5.85132e-05 -0.000490832 0.116538)
(-8.87045e-05 -0.00054029 0.116616)
(-0.000127511 -0.000498322 0.11665)
(-0.000202848 -0.000508152 0.116775)
(-0.000242611 -0.000461409 0.116894)
(-0.00035545 -0.000452646 0.117098)
(-0.000353259 -0.000355475 0.117275)
(-0.000500245 -0.000478783 0.117948)
(-0.00053402 -7.19516e-05 0.120388)
(-0.000541955 -0.000622922 0.11933)
(-6.13969e-06 0.000509631 0.0843586)
(0.00275959 0.000556839 0.0252269)
(0.000490166 0.000191114 0.00364165)
(-2.83744e-06 -0.000671881 0.116819)
(-0.000117731 -0.000657864 0.116827)
(-0.000123587 -0.000649352 0.116975)
(-0.000129835 -0.000595722 0.11698)
(-0.000177017 -0.000579299 0.117126)
(-0.000231052 -0.000534504 0.117186)
(-0.00023308 -0.000487075 0.117381)
(-0.00047684 -0.00050284 0.117952)
(-0.000204758 -0.000208608 0.120542)
(-0.000607808 -0.000499359 0.117789)
(0.000379012 0.000488058 0.0788433)
(-0.00426608 -0.00269513 0.0394976)
(-0.0014312 -0.000501655 -0.000803864)
(4.65883e-06 -0.000726469 0.117349)
(-3.56898e-05 -0.00070202 0.117336)
(-2.54638e-05 -0.00083718 0.117466)
(-5.68755e-05 -0.000732391 0.117392)
(-0.000141461 -0.000718323 0.117448)
(-0.000150907 -0.000662203 0.117511)
(-0.000325009 -0.000505572 0.118197)
(-7.18211e-05 -0.000537756 0.120393)
(-0.000497192 -0.000612644 0.117797)
(0.000285397 0.000283815 0.0782756)
(-0.000794775 -0.000581685 0.0348456)
(0.00493109 0.00593938 0.0164214)
(2.10495e-05 -0.000950252 0.117627)
(-0.000225595 -0.000967209 0.117727)
(-0.000154411 -0.000857152 0.118366)
(-1.39042e-05 -0.000749939 0.118219)
(-0.000113061 -0.000749883 0.118446)
(-1.31168e-05 -0.00067287 0.119294)
(-7.97955e-05 -0.000859396 0.119573)
(-0.000623892 -0.0005448 0.119344)
(0.000489591 0.000376617 0.078867)
(-0.000582257 -0.000793697 0.0348579)
(0.00450456 0.00450458 0.0163176)
(-6.85073e-06 -0.000905529 0.11892)
(7.64894e-05 -0.000928477 0.120021)
(0.00020029 -0.00111186 0.11949)
(2.96265e-05 -0.000986574 0.120105)
(-7.02539e-05 -0.000927094 0.120978)
(-0.000223281 -0.000906873 0.119599)
(-7.13367e-05 0.000359778 0.0965435)
(0.000509546 -7.84058e-06 0.0843651)
(-0.0026933 -0.00426462 0.0394993)
(0.00594016 0.00493058 0.0164274)
(4.61746e-05 -0.00110757 0.121315)
(-0.00032332 -0.0011166 0.11997)
(-5.22366e-05 0.00016112 0.0974423)
(0.000245567 0.000215774 0.0987543)
(6.82853e-05 1.82974e-06 0.100213)
(0.000678442 -9.00347e-05 0.083618)
(-0.00214651 -0.00243671 0.0350177)
(0.000554892 0.00276014 0.0252222)
(-0.000499757 -0.00143093 -0.000804221)
(-0.000122632 -0.000307194 0.101474)
(0.000733004 -0.000144342 0.0821148)
(-0.00175669 -0.00166292 0.0335672)
(0.00134395 0.00208606 0.0269666)
(-0.00184512 0.00295965 0.0302068)
(0.00107343 0.00330977 0.0274884)
(0.000592629 0.000745133 -0.00311348)
(0.000190857 0.000490416 0.0036414)
(0.000650028 0.00368722 0.0249159)
(0.00213533 0.00348428 0.0254653)
(0.00629992 0.0065408 0.0180418)
(-0.000162018 5.36114e-05 0.00414967)
(-0.000655887 0.000253915 0.00586127)
(-4.76731e-06 -4.6964e-06 0.1157)
(-1.4897e-05 -4.65598e-06 0.115715)
(-2.7533e-05 -5.05175e-06 0.115752)
(-3.95244e-05 -5.17535e-06 0.115824)
(-5.89945e-05 -4.70687e-06 0.115931)
(-7.5658e-05 -4.97387e-06 0.116097)
(-0.000106379 -3.54737e-06 0.116295)
(-0.000123374 -3.74729e-06 0.116604)
(-0.000168109 7.61559e-07 0.11691)
(-0.000172262 2.37351e-07 0.117422)
(-0.000234846 9.99941e-06 0.117743)
(-0.000160493 -6.21112e-06 0.119009)
(-0.000395824 8.81157e-06 0.121424)
(0.000133135 -0.000313075 0.101513)
(0.00277116 0.000585136 0.02753)
(-4.68486e-06 -1.48771e-05 0.115715)
(-1.47234e-05 -1.47269e-05 0.115732)
(-2.71784e-05 -1.5644e-05 0.115773)
(-3.936e-05 -1.48867e-05 0.115846)
(-5.88119e-05 -1.76913e-05 0.115954)
(-7.42686e-05 -1.43504e-05 0.116117)
(-0.000105129 -2.31878e-05 0.116315)
(-0.000119433 -1.04184e-05 0.116615)
(-0.000164239 -4.20697e-05 0.116919)
(-0.000161984 7.6544e-06 0.117416)
(-0.000240248 -0.000110351 0.117894)
(-0.000188309 0.000137075 0.120072)
(-0.000607482 -0.000308884 0.120162)
(0.000275266 0.000677598 0.0822407)
(0.00252423 0.00196311 0.0280798)
(-5.13644e-06 -2.75156e-05 0.115753)
(-1.56654e-05 -2.71898e-05 0.115774)
(-2.77033e-05 -2.77019e-05 0.115823)
(-4.15756e-05 -2.7637e-05 0.115898)
(-5.84747e-05 -2.84815e-05 0.116015)
(-8.11919e-05 -2.73196e-05 0.116178)
(-0.000102501 -3.14125e-05 0.116397)
(-0.000142391 -2.25928e-05 0.116691)
(-0.000149595 -4.33213e-05 0.11706)
(-0.000238669 1.4033e-06 0.117542)
(-0.000118896 -8.96387e-05 0.118479)
(-0.00048699 0.000210296 0.119419)
(0.000508831 -9.1011e-05 0.0975752)
(-0.00196603 -0.00240648 0.0375444)
(0.00581447 0.00572876 0.0199357)
(-5.26746e-06 -3.95908e-05 0.115824)
(-1.49014e-05 -3.94258e-05 0.115847)
(-2.76273e-05 -4.17013e-05 0.115899)
(-4.01469e-05 -4.02862e-05 0.115973)
(-5.85126e-05 -4.2772e-05 0.11609)
(-7.7222e-05 -3.79009e-05 0.116244)
(-0.000100445 -4.20929e-05 0.116456)
(-0.000131359 -2.94536e-05 0.116724)
(-0.000139903 -3.60134e-05 0.117059)
(-0.000210464 -1.86308e-05 0.117466)
(-8.63826e-05 5.0464e-06 0.118348)
(-0.00045163 -2.7043e-05 0.120043)
(0.000570873 0.000211952 0.0988684)
(0.00169909 0.0010768 0.0295223)
(-5.47575e-05 -0.000103579 0.00456034)
(-4.89452e-06 -5.90478e-05 0.115931)
(-1.77676e-05 -5.8937e-05 0.115954)
(-2.85586e-05 -5.86376e-05 0.116016)
(-4.26528e-05 -5.87507e-05 0.116091)
(-5.60983e-05 -5.6322e-05 0.116219)
(-8.05396e-05 -5.91077e-05 0.116372)
(-9.41042e-05 -5.11048e-05 0.116598)
(-0.000136376 -6.03248e-05 0.116852)
(-0.000138612 -3.96458e-05 0.117203)
(-0.000195681 -6.25395e-05 0.117512)
(-0.000128668 -2.86793e-05 0.11855)
(-0.000377128 -9.7226e-05 0.120975)
(0.000331115 6.34982e-06 0.100276)
(0.00225309 -0.00188875 0.0328014)
(0.000108211 -0.000630428 0.0061458)
(-5.26487e-06 -7.58462e-05 0.116097)
(-1.4473e-05 -7.44195e-05 0.116117)
(-2.74197e-05 -8.15552e-05 0.116178)
(-3.78238e-05 -7.75906e-05 0.116244)
(-5.88705e-05 -8.10249e-05 0.116371)
(-7.20246e-05 -7.26107e-05 0.116515)
(-0.000101754 -7.72433e-05 0.116736)
(-0.00011999 -5.59907e-05 0.11697)
(-0.000141888 -6.89429e-05 0.117257)
(-0.000196526 -3.97777e-05 0.117596)
(-0.000128857 6.09994e-05 0.119428)
(-0.000540385 -0.000262148 0.11972)
(0.000174455 0.000597681 0.0837987)
(0.00243847 0.000567591 0.0299378)
(-4.00205e-06 -0.00010642 0.116296)
(-2.34366e-05 -0.000105516 0.116315)
(-3.17092e-05 -0.000102934 0.116398)
(-4.21002e-05 -0.000101024 0.116457)
(-5.11009e-05 -9.47241e-05 0.116598)
(-7.67533e-05 -0.000102582 0.116735)
(-7.7511e-05 -7.8412e-05 0.116966)
(-0.000127973 -0.000116379 0.117173)
(-0.000121355 -1.94633e-05 0.117444)
(-7.75961e-05 -0.00014604 0.118318)
(-0.000407779 0.000143422 0.119651)
(0.000653217 -0.00010155 0.0965858)
(-0.00311253 -0.00259578 0.039133)
(2.31347e-05 -2.85305e-05 -0.00148795)
(-4.44525e-06 -0.000123665 0.116605)
(-1.09289e-05 -0.000119739 0.116616)
(-2.28842e-05 -0.000143134 0.116691)
(-2.95649e-05 -0.000132074 0.116725)
(-6.03438e-05 -0.000137327 0.116853)
(-5.56825e-05 -0.000121124 0.11697)
(-0.000115557 -0.000129538 0.117173)
(-6.07367e-05 -6.21619e-05 0.117335)
(-0.000176191 -0.000209306 0.118048)
(-9.13412e-05 0.000205357 0.120527)
(-0.000306093 -0.00062736 0.119337)
(9.48529e-05 0.000610234 0.0845732)
(0.00204606 -6.64428e-05 0.0280004)
(0.000546179 0.00014059 0.00357243)
(-1.33863e-07 -0.000167826 0.116911)
(-4.27673e-05 -0.000165224 0.11692)
(-4.4028e-05 -0.000150557 0.11706)
(-3.62331e-05 -0.00014112 0.11706)
(-4.00814e-05 -0.000139655 0.117204)
(-6.90826e-05 -0.000143135 0.117259)
(-1.88748e-05 -0.000122869 0.117447)
(-0.000207716 -0.000179094 0.118052)
(0.000146254 0.000143653 0.120668)
(-0.000415004 -0.000409995 0.11789)
(0.000631042 0.000598943 0.0789171)
(-0.00514378 -0.00343403 0.0436879)
(-0.00216669 -0.0010855 0.000923062)
(-7.54645e-07 -0.000172315 0.117422)
(5.90985e-06 -0.000162658 0.117416)
(8.86164e-07 -0.000240085 0.117543)
(-1.88138e-05 -0.000211544 0.117466)
(-6.25929e-05 -0.000197042 0.117513)
(-3.99451e-05 -0.000198116 0.117598)
(-0.000146819 -7.9238e-05 0.118322)
(0.000205913 -9.43119e-05 0.120533)
(-0.00040703 -0.000419162 0.117896)
(0.000451257 0.00045038 0.0783311)
(-0.0012365 -0.00111241 0.0386829)
(0.00444006 0.00543633 0.0180699)
(8.6098e-06 -0.000234052 0.117743)
(-0.000112392 -0.000242271 0.117893)
(-9.074e-05 -0.00012074 0.118479)
(4.89779e-06 -8.77685e-05 0.118349)
(-2.95985e-05 -0.000130319 0.118552)
(6.06128e-05 -0.000130268 0.119431)
(0.000142691 -0.000409186 0.119657)
(-0.000628396 -0.000307328 0.11935)
(0.000600226 0.000629668 0.0789403)
(-0.00111265 -0.00123452 0.0386969)
(0.00407406 0.00407737 0.018065)
(-6.88394e-06 -0.000160561 0.119006)
(0.000132709 -0.000189609 0.120071)
(0.000210427 -0.000488435 0.119417)
(-2.70335e-05 -0.000452389 0.120042)
(-9.73164e-05 -0.000377993 0.120975)
(-0.000262219 -0.00054103 0.119723)
(-0.000102473 0.000652894 0.0965911)
(0.000610319 9.47895e-05 0.0845796)
(-0.00343097 -0.00514179 0.0436901)
(0.0054363 0.0044384 0.0180758)
(6.11195e-06 -0.000396943 0.12142)
(-0.000312308 -0.000611238 0.120157)
(-9.204e-05 0.000507749 0.0975744)
(0.000212153 0.000570556 0.0988686)
(5.48337e-06 0.000330977 0.100277)
(0.000598107 0.000174404 0.0838001)
(-0.00259585 -0.0031123 0.0391319)
(-6.70547e-05 0.00204581 0.0279994)
(-0.00108553 -0.00216633 0.000923696)
(-0.000317955 0.000132361 0.101503)
(0.000674565 0.00027382 0.082229)
(-0.00240507 -0.00196703 0.0375433)
(0.00107804 0.00169842 0.0295215)
(-0.00188851 0.00225298 0.0328008)
(0.00056755 0.00243832 0.0299374)
(-2.87208e-05 2.31427e-05 -0.00148775)
(0.000140464 0.000546289 0.00357243)
(0.000583502 0.00277051 0.0275237)
(0.0019636 0.00252297 0.028072)
(0.00572851 0.0058149 0.0199355)
(-0.000103545 -5.48519e-05 0.00456043)
(-0.000630503 0.000108218 0.00614579)
(1.19148e-05 1.20456e-05 0.115692)
(3.7204e-05 1.18733e-05 0.115706)
(6.30405e-05 1.16148e-05 0.115743)
(9.17592e-05 1.04589e-05 0.115815)
(0.000125001 1.04286e-05 0.115921)
(0.000161238 7.76205e-06 0.116085)
(0.000209108 7.98497e-06 0.116282)
(0.000255899 1.95883e-06 0.116586)
(0.000325082 4.06996e-06 0.116893)
(0.000368801 -8.33559e-06 0.117394)
(0.000440037 2.65366e-06 0.117724)
(0.000445543 -3.53712e-05 0.119004)
(0.000330711 5.82795e-05 0.121378)
(0.000104734 -0.000341799 0.101552)
(0.00260111 0.000570955 0.028292)
(1.18345e-05 3.72472e-05 0.115706)
(3.68838e-05 3.68552e-05 0.115723)
(6.22498e-05 3.71093e-05 0.115764)
(9.07096e-05 3.63796e-05 0.115836)
(0.000122487 3.6313e-05 0.115944)
(0.000158953 3.58109e-05 0.116105)
(0.00020346 3.48232e-05 0.116301)
(0.000251774 3.59615e-05 0.116597)
(0.000314373 3.12411e-05 0.116904)
(0.000368299 4.15937e-05 0.117386)
(0.000415378 2.80416e-06 0.117898)
(0.000485341 0.000107457 0.120075)
(0.000105401 -5.02769e-05 0.120143)
(0.000317831 0.000425451 0.08236)
(0.0023675 0.00191597 0.0287207)
(1.15074e-05 6.31187e-05 0.115743)
(3.70663e-05 6.22504e-05 0.115765)
(6.25611e-05 6.25924e-05 0.115814)
(9.09676e-05 5.90169e-05 0.115888)
(0.000124428 5.94575e-05 0.116005)
(0.000159749 5.30948e-05 0.116166)
(0.000209244 5.27243e-05 0.116385)
(0.000252293 4.18249e-05 0.116671)
(0.00033106 3.33646e-05 0.117047)
(0.000345192 2.2957e-05 0.117506)
(0.000503687 -3.83604e-05 0.118507)
(0.000250127 9.95231e-05 0.119334)
(0.000709365 3.64098e-05 0.0977391)
(-0.00188918 -0.00262214 0.0382983)
(0.00567788 0.00570167 0.0203729)
(1.03786e-05 9.17343e-05 0.115815)
(3.63615e-05 9.06589e-05 0.115837)
(5.90187e-05 9.08848e-05 0.115889)
(8.75781e-05 8.74716e-05 0.115962)
(0.000116557 8.67862e-05 0.116079)
(0.000152228 8.22179e-05 0.116231)
(0.000192152 7.78639e-05 0.116443)
(0.00023244 6.8333e-05 0.116705)
(0.000296431 5.66264e-05 0.117045)
(0.000299544 2.13085e-05 0.117429)
(0.000432619 1.36373e-05 0.118372)
(0.000136985 -0.000128507 0.11995)
(0.000606874 0.000122781 0.0989768)
(0.0016727 0.000929458 0.0301736)
(-9.85564e-05 -9.73393e-05 0.00463986)
(1.02488e-05 0.000125007 0.115921)
(3.62143e-05 0.000122397 0.115944)
(5.93721e-05 0.00012431 0.116006)
(8.68662e-05 0.000116365 0.116079)
(0.000119172 0.000118998 0.116208)
(0.000150818 0.000105464 0.116359)
(0.000195302 0.000111359 0.116586)
(0.000230877 8.20358e-05 0.116835)
(0.000284034 9.39568e-05 0.117192)
(0.00030687 2.07705e-05 0.11748)
(0.000355158 2.10387e-05 0.118571)
(0.000192111 -8.30368e-05 0.120896)
(0.000263419 -3.59698e-05 0.100367)
(0.00214825 -0.00194918 0.0334236)
(6.96842e-05 -0.000627933 0.00622818)
(7.50118e-06 0.000161108 0.116085)
(3.56716e-05 0.000158845 0.116105)
(5.29982e-05 0.000159464 0.116166)
(8.22709e-05 0.000151939 0.116232)
(0.000105656 0.000150436 0.116359)
(0.000144596 0.000144161 0.116502)
(0.000168642 0.000131498 0.116723)
(0.000214904 0.000130805 0.116956)
(0.000235476 8.61748e-05 0.117246)
(0.000231951 6.88458e-05 0.117576)
(0.000322325 5.08525e-05 0.119446)
(-9.44626e-05 -0.000187031 0.11969)
(0.000111446 0.00027694 0.0838549)
(0.00233092 0.000431796 0.0304825)
(7.5521e-06 0.00020907 0.116283)
(3.45726e-05 0.000203169 0.116302)
(5.24577e-05 0.000208894 0.116385)
(7.78466e-05 0.00019166 0.116443)
(0.000111385 0.000194759 0.116586)
(0.000131883 0.000167947 0.116723)
(0.000181921 0.000181144 0.116957)
(0.000185858 0.000120455 0.117163)
(0.000225339 0.000186033 0.117434)
(0.000265019 -5.63707e-06 0.118313)
(1.46864e-05 0.000221493 0.119641)
(0.000680748 2.80566e-05 0.0966)
(-0.00305754 -0.00275723 0.0398493)
(-0.000125443 -9.17412e-05 -0.00128048)
(1.31041e-06 0.000255645 0.116586)
(3.55142e-05 0.000251552 0.116597)
(4.15283e-05 0.000251696 0.116672)
(6.81968e-05 0.000231911 0.116706)
(8.20256e-05 0.000230093 0.116835)
(0.000131012 0.000214026 0.116956)
(0.000121145 0.000184686 0.117163)
(0.000220985 0.000219956 0.117329)
(0.000107717 2.75304e-05 0.11804)
(0.000202862 0.000364158 0.12056)
(1.15166e-06 -0.000530154 0.119263)
(-1.73549e-05 0.000447031 0.08463)
(0.00201175 -0.000184195 0.0285546)
(0.00057947 0.000160347 0.00355695)
(3.15428e-06 0.000325145 0.116894)
(3.06524e-05 0.000313653 0.116904)
(3.27902e-05 0.00033036 0.117048)
(5.64204e-05 0.000295435 0.117046)
(9.36267e-05 0.000283073 0.117194)
(8.61703e-05 0.00023438 0.117248)
(0.000186646 0.000224136 0.117436)
(2.87115e-05 0.000106075 0.118043)
(0.000367728 0.000365748 0.120696)
(-0.000214997 -0.000299713 0.117809)
(0.000636213 0.000503418 0.0789996)
(-0.0051886 -0.00361843 0.0443321)
(-0.00229595 -0.00119844 0.00116486)
(-9.36014e-06 0.00036874 0.117394)
(4.03937e-05 0.000367843 0.117386)
(2.23833e-05 0.000344018 0.117507)
(2.09145e-05 0.000298587 0.11743)
(2.06558e-05 0.000305733 0.117481)
(6.87976e-05 0.000230813 0.117578)
(-5.47419e-06 0.000263789 0.118317)
(0.000364612 0.000201018 0.120566)
(-0.000297877 -0.000217623 0.117815)
(0.000394253 0.000393853 0.0784255)
(-0.00132769 -0.00125422 0.0393003)
(0.00436004 0.00538086 0.0184664)
(1.15648e-06 0.000440293 0.117724)
(1.12183e-06 0.000414378 0.117897)
(-3.94254e-05 0.00050135 0.118507)
(1.34777e-05 0.000431375 0.118372)
(2.05315e-05 0.000353814 0.118573)
(5.07839e-05 0.000321166 0.119449)
(0.000221487 1.36095e-05 0.119647)
(-0.000530396 -3.21935e-07 0.119275)
(0.000504134 0.000635295 0.0790224)
(-0.00125479 -0.00132594 0.039315)
(0.00400799 0.00401167 0.0184683)
(-3.66697e-05 0.000445195 0.119002)
(0.0001037 0.000483801 0.120074)
(9.87434e-05 0.000248273 0.119334)
(-0.000127884 0.000136315 0.11995)
(-8.30409e-05 0.000191178 0.120897)
(-0.000186826 -9.51392e-05 0.119693)
(2.77251e-05 0.000680384 0.0966054)
(0.00044728 -1.74237e-05 0.0846359)
(-0.00361525 -0.0051873 0.0443348)
(0.00538083 0.00435845 0.0184724)
(5.46129e-05 0.000328105 0.121376)
(-5.34287e-05 9.9378e-05 0.120138)
(3.57145e-05 0.000707647 0.0977381)
(0.000123305 0.000606405 0.0989771)
(-3.64979e-05 0.000263265 0.100368)
(0.000277329 0.000111449 0.0838563)
(-0.00275715 -0.00305734 0.0398486)
(-0.000184433 0.0020116 0.0285542)
(-0.00119836 -0.00229562 0.00116558)
(-0.000350016 0.000102413 0.101544)
(0.000422472 0.000314683 0.0823485)
(-0.00262117 -0.00188979 0.0382969)
(0.00093029 0.00167196 0.0301729)
(-0.00194919 0.00214831 0.0334229)
(0.000431724 0.00233081 0.0304821)
(-9.19428e-05 -0.000125466 -0.00128028)
(0.000160175 0.000579609 0.00355696)
(0.000571041 0.00259966 0.0282846)
(0.00191312 0.00236418 0.0287133)
(0.00570059 0.00567762 0.0203724)
(-9.73831e-05 -9.86729e-05 0.0046399)
(-0.000627938 6.96275e-05 0.0062282)
(2.82894e-05 2.84809e-05 0.115633)
(8.82973e-05 2.82216e-05 0.115645)
(0.000151755 2.79536e-05 0.11568)
(0.000220577 2.58536e-05 0.115748)
(0.000305383 2.53718e-05 0.115849)
(0.00039361 2.02832e-05 0.116007)
(0.000518827 1.94091e-05 0.116197)
(0.000631363 7.78246e-06 0.116493)
(0.000819115 8.53863e-06 0.116797)
(0.000922975 -1.51281e-05 0.117307)
(0.00116058 2.27393e-06 0.117655)
(0.00108982 -5.78544e-05 0.119043)
(0.0011728 0.000101465 0.121466)
(0.000228761 -0.000291938 0.10191)
(0.00256191 0.000587145 0.0284766)
(2.81711e-05 8.83574e-05 0.115646)
(8.75486e-05 8.74968e-05 0.115662)
(0.000149833 8.89835e-05 0.1157)
(0.000218119 8.67395e-05 0.115769)
(0.000300023 8.94649e-05 0.115871)
(0.000387856 8.51362e-05 0.116026)
(0.000506597 9.30799e-05 0.116216)
(0.000620485 8.23724e-05 0.116504)
(0.000795647 0.000110442 0.11681)
(0.000917712 7.45925e-05 0.1173)
(0.00112167 0.000147452 0.117837)
(0.00118258 5.61207e-05 0.120141)
(0.000990655 0.000297115 0.120254)
(0.000503589 0.000308712 0.0827929)
(0.00232335 0.00193005 0.0289108)
(2.78262e-05 0.000151887 0.11568)
(8.89261e-05 0.000149845 0.115701)
(0.000151 0.000151066 0.115747)
(0.000221071 0.000143992 0.115818)
(0.000303787 0.000145948 0.11593)
(0.000397264 0.000132457 0.116085)
(0.000516096 0.000136632 0.1163)
(0.000648897 0.000106258 0.11658)
(0.000811573 0.000113808 0.116969)
(0.000966279 4.36614e-05 0.117431)
(0.00114976 3.37311e-05 0.118547)
(0.00108791 -4.62085e-05 0.11943)
(0.00110422 0.000186792 0.0981576)
(-0.00173302 -0.0028761 0.0385637)
(0.00564659 0.00575065 0.0205286)
(2.57835e-05 0.000220595 0.115748)
(8.6727e-05 0.000218073 0.11577)
(0.000143987 0.00022103 0.115819)
(0.000213015 0.000212931 0.115889)
(0.000288489 0.000214427 0.116002)
(0.000378576 0.000200833 0.116149)
(0.000480379 0.000197342 0.116356)
(0.000597741 0.000166662 0.116612)
(0.000733786 0.000151206 0.116962)
(0.00084369 6.67189e-05 0.117345)
(0.0009848 3.37418e-05 0.118369)
(0.000825236 -0.000220723 0.119997)
(0.000820783 1.3477e-05 0.0992133)
(0.00174866 0.000809576 0.0303495)
(-0.000116044 -0.000108356 0.00466077)
(2.51978e-05 0.000305448 0.11585)
(8.93489e-05 0.000299962 0.115872)
(0.00014585 0.000303714 0.115931)
(0.000214469 0.000288332 0.116002)
(0.000291691 0.000291545 0.116127)
(0.000380185 0.000268663 0.116272)
(0.000481868 0.000273741 0.116497)
(0.000602539 0.000227926 0.116741)
(0.000711078 0.000232711 0.117116)
(0.000853862 0.000117492 0.117403)
(0.00087204 8.53647e-05 0.118604)
(0.000863039 -7.65839e-05 0.120956)
(0.000356078 -9.08669e-05 0.100644)
(0.00216473 -0.00198187 0.0335927)
(5.88443e-05 -0.000622377 0.00625287)
(2.00523e-05 0.00039355 0.116007)
(8.49887e-05 0.000387784 0.116026)
(0.00013236 0.000397048 0.116085)
(0.000200849 0.000378357 0.116149)
(0.000268821 0.00037988 0.116272)
(0.000360802 0.000360442 0.116414)
(0.000439585 0.000341883 0.116633)
(0.000556538 0.000324079 0.116869)
(0.00062318 0.000250804 0.117176)
(0.000703402 0.000200095 0.117516)
(0.000791007 3.38539e-05 0.119481)
(0.000426133 -0.000121457 0.119732)
(0.000178352 3.45598e-05 0.083984)
(0.00231772 0.000390811 0.0306027)
(1.90071e-05 0.000518824 0.116198)
(9.28122e-05 0.000506383 0.116216)
(0.000136388 0.000515835 0.1163)
(0.000197299 0.000479946 0.116357)
(0.000273749 0.000481395 0.116497)
(0.000342189 0.000438961 0.116633)
(0.000445496 0.000444741 0.116871)
(0.000511659 0.000371621 0.117084)
(0.000591128 0.000405111 0.117384)
(0.000637867 0.000181361 0.118281)
(0.000448903 0.000275952 0.119711)
(0.000831322 0.000145924 0.0966488)
(-0.00288036 -0.00290552 0.0399695)
(-0.000167474 -7.72197e-05 -0.00127225)
(7.17821e-06 0.000631195 0.116493)
(8.19716e-05 0.000620351 0.116504)
(0.000105945 0.00064844 0.116581)
(0.000166476 0.00059731 0.116613)
(0.000227907 0.000601902 0.116742)
(0.000324167 0.000555857 0.11687)
(0.000372244 0.00051076 0.117084)
(0.000518306 0.000517415 0.117281)
(0.000435132 0.00030496 0.118007)
(0.000520431 0.000518292 0.12061)
(0.000336562 -0.000378128 0.119334)
(1.38057e-05 0.000392792 0.0847109)
(0.00204144 -0.000203896 0.028619)
(0.000577336 0.000176353 0.00355107)
(7.68117e-06 0.000819204 0.116798)
(0.000109892 0.000795061 0.11681)
(0.000113264 0.000811024 0.11697)
(0.000150981 0.000732927 0.116963)
(0.000232474 0.000710257 0.117117)
(0.000250861 0.000622253 0.117177)
(0.000405665 0.000590078 0.117386)
(0.000305882 0.000433871 0.11801)
(0.000590938 0.000589251 0.120755)
(1.78312e-05 -0.000148411 0.117875)
(0.000707936 0.000477693 0.0791019)
(-0.00513426 -0.00370103 0.0444178)
(-0.00231027 -0.00121363 0.00116793)
(-1.62857e-05 0.000922862 0.117307)
(7.35617e-05 0.000917353 0.117301)
(4.30682e-05 0.000965468 0.117432)
(6.6257e-05 0.000842951 0.117346)
(0.000117404 0.00085293 0.117405)
(0.000199948 0.000702609 0.117518)
(0.000181664 0.000637027 0.118285)
(0.000518716 0.000519391 0.120616)
(-0.000147005 1.63771e-05 0.117879)
(0.000422227 0.000422456 0.0785055)
(-0.00133378 -0.00131483 0.0394003)
(0.00435014 0.00538468 0.0185428)
(6.57462e-07 0.00116059 0.117656)
(0.00014622 0.0011205 0.117837)
(3.28149e-05 0.00114807 0.118548)
(3.33984e-05 0.000983838 0.11837)
(8.50644e-05 0.000870959 0.118606)
(3.40023e-05 0.000790151 0.119484)
(0.000276299 0.00044828 0.119716)
(-0.00037789 0.000335448 0.119345)
(0.000478107 0.000707341 0.079124)
(-0.0013154 -0.00133215 0.039415)
(0.00400685 0.00401054 0.0185466)
(-6.01427e-05 0.00109012 0.119042)
(5.3451e-05 0.00118142 0.120139)
(-4.65474e-05 0.0010851 0.119431)
(-0.000220546 0.000824896 0.119996)
(-7.6552e-05 0.000861954 0.120957)
(-0.000121146 0.000425489 0.119734)
(0.000145824 0.000830951 0.0966538)
(0.000393186 1.36292e-05 0.0847161)
(-0.00369775 -0.00513325 0.0444204)
(0.00538461 0.00434874 0.0185488)
(9.82891e-05 0.00117044 0.121465)
(0.00029287 0.000984516 0.120252)
(0.000186269 0.00110177 0.0981567)
(1.47349e-05 0.00082023 0.0992134)
(-9.14318e-05 0.000355885 0.100645)
(3.5168e-05 0.000178364 0.0839852)
(-0.00290535 -0.00288014 0.0399691)
(-0.000204001 0.00204127 0.0286187)
(-0.00121348 -0.00231006 0.00116878)
(-0.000300972 0.000226862 0.101907)
(0.000305157 0.000498908 0.0827846)
(-0.00287539 -0.0017327 0.0385619)
(0.000810081 0.00174781 0.0303488)
(-0.00198208 0.00216478 0.0335922)
(0.00039073 0.00231746 0.0306023)
(-7.73589e-05 -0.000167412 -0.00127207)
(0.000176276 0.000577485 0.00355108)
(0.000591105 0.0025626 0.0284737)
(0.00192323 0.00231615 0.0289047)
(0.00574854 0.00564502 0.020528)
(-0.000108411 -0.000116163 0.00466072)
(-0.000622368 5.8767e-05 0.00625284)
(4.38826e-05 4.4126e-05 0.115525)
(0.000136256 4.36758e-05 0.115535)
(0.000235515 4.34242e-05 0.115564)
(0.000342573 4.04114e-05 0.115625)
(0.000476772 3.95144e-05 0.115717)
(0.000615571 3.23797e-05 0.115862)
(0.000818602 3.09154e-05 0.116039)
(0.00100011 1.39191e-05 0.116321)
(0.00132113 1.40857e-05 0.116615)
(0.00149916 -2.13004e-05 0.117141)
(0.00197851 5.0405e-06 0.117499)
(0.00186135 -6.55951e-05 0.119073)
(0.00236243 0.000177214 0.121535)
(0.000502471 -6.97567e-05 0.102683)
(0.00254958 0.000662791 0.0286326)
(4.36126e-05 0.00013633 0.115535)
(0.000135326 0.000135255 0.115549)
(0.000232669 0.000138038 0.115582)
(0.000338841 0.000134492 0.115644)
(0.000468928 0.000140213 0.115737)
(0.000607235 0.000132878 0.11588)
(0.000800555 0.000151605 0.116058)
(0.000983441 0.000130896 0.116333)
(0.00128532 0.000202268 0.116631)
(0.00149142 0.000122025 0.117136)
(0.00194007 0.000374453 0.117685)
(0.00204123 7.61335e-05 0.120185)
(0.00239128 0.000980944 0.120352)
(0.000904099 0.000400791 0.0838467)
(0.00230317 0.00201702 0.0291548)
(4.32864e-05 0.000235699 0.115565)
(0.00013797 0.000232688 0.115583)
(0.000234761 0.000234865 0.115625)
(0.000344769 0.000224881 0.115689)
(0.000475175 0.000228744 0.115791)
(0.000627034 0.000209354 0.115936)
(0.000816707 0.000219849 0.11614)
(0.00105119 0.000171743 0.116414)
(0.00131267 0.00020318 0.116813)
(0.00167948 6.957e-05 0.117306)
(0.00194915 0.000148843 0.11858)
(0.00231157 -0.000190909 0.119637)
(0.00194535 0.000488346 0.0990823)
(-0.00150038 -0.00321551 0.0389755)
(0.00566215 0.00590155 0.0207626)
(4.03501e-05 0.000342635 0.115625)
(0.000134488 0.000338789 0.115645)
(0.000224873 0.000344765 0.11569)
(0.000332741 0.000332664 0.115754)
(0.000453408 0.000336759 0.115858)
(0.000598395 0.000315467 0.115996)
(0.000762951 0.000314335 0.116194)
(0.000966974 0.000263714 0.116444)
(0.00118383 0.000247028 0.116803)
(0.00144503 0.000107665 0.117195)
(0.00164103 4.28051e-05 0.118321)
(0.00176908 -0.000347278 0.120042)
(0.00134314 -0.000174345 0.0996618)
(0.00197118 0.000589112 0.0306085)
(-0.000124757 -0.000124653 0.00472306)
(3.93462e-05 0.000476902 0.115717)
(0.000140079 0.000468892 0.115738)
(0.000228625 0.000475147 0.115792)
(0.000336767 0.000453277 0.115858)
(0.000457985 0.000457826 0.115973)
(0.000604617 0.000428324 0.11611)
(0.000764866 0.000434834 0.116326)
(0.000983618 0.000378361 0.116565)
(0.0011557 0.000380838 0.116955)
(0.00148008 0.000230053 0.117255)
(0.00150459 0.000179631 0.118596)
(0.00180875 -5.91164e-05 0.121043)
(0.000659432 -0.000123378 0.101217)
(0.00227365 -0.00205066 0.0338809)
(4.82422e-05 -0.000612917 0.00630697)
(3.21796e-05 0.000615591 0.115863)
(0.000132719 0.000607197 0.11588)
(0.000209256 0.000626886 0.115936)
(0.000315424 0.000598248 0.115996)