/*--------------------------------*- C++ -*----------------------------------*\
| =========                 |                                                 |
| \\      /  F ield         | OpenFOAM: The Open Source CFD Toolbox           |
|  \\    /   O peration     | Version:  2.1.1                                 |
|   \\  /    A nd           | Web:      www.OpenFOAM.org                      |
|    \\/     M anipulation  |                                                 |
\*---------------------------------------------------------------------------*/
FoamFile
{
    version     2.0;
    format      ascii;
    class       surfaceScalarField;
    location    "0.002";
    object      phi;
}
// * * * * * * * * * * * * * * * * * * * * * * * * * * * * * * * * * * * * * //

dimensions      [0 3 -1 0 0 0 0];

internalField   nonuniform List<scalar> 
29937
(
-2.28613e-13
-2.28443e-13
1.17534e-09
-4.85067e-13
-2.22757e-13
1.17494e-09
-7.62328e-13
-2.32797e-13
1.17463e-09
-1.09437e-12
-2.17539e-13
1.17456e-09
-1.47167e-12
-2.32555e-13
1.17477e-09
-1.94837e-12
-1.85844e-13
1.17539e-09
-2.45493e-12
-2.3482e-13
1.17629e-09
-3.12007e-12
-8.91865e-14
1.17796e-09
-3.73168e-12
-2.91473e-13
1.17967e-09
-4.80665e-12
1.70144e-13
1.18267e-09
-5.96658e-12
-7.36711e-13
1.18328e-09
-6.78346e-12
6.9524e-13
1.19651e-09
-5.13016e-12
-2.91714e-13
1.22042e-09
6.85799e-11
2.40414e-12
9.85413e-10
6.89445e-11
-6.70064e-11
-6.70704e-11
-4.31829e-11
1.85875e-12
9.87808e-11
-9.60021e-12
1.50987e-11
1.51222e-11
-9.49689e-12
-2.23531e-13
-4.84907e-13
1.17497e-09
-4.75541e-13
-4.75235e-13
1.17478e-09
-7.50753e-13
-4.90274e-13
1.17458e-09
-1.07567e-12
-4.61575e-13
1.17459e-09
-1.43914e-12
-4.90248e-13
1.17485e-09
-1.88885e-12
-4.08982e-13
1.17547e-09
-2.3591e-12
-5.02038e-13
1.1764e-09
-2.98647e-12
-2.41364e-13
1.17802e-09
-3.60504e-12
-6.18879e-13
1.17975e-09
-4.82227e-12
3.34301e-13
1.18272e-09
-5.83262e-12
-1.40568e-12
1.18705e-09
-6.24117e-12
2.06357e-12
1.21278e-09
-4.65591e-12
-1.62938e-12
1.20391e-09
6.96612e-11
4.96229e-11
8.01702e-10
7.22803e-11
-6.58714e-11
-7.06901e-11
7.46935e-11
-4.69702e-11
-7.02965e-11
-4.5016e-11
-6.59332e-12
1.5324e-11
9.56194e-11
-1.0796e-11
1.5642e-11
1.60504e-11
-1.05696e-11
-2.34302e-13
-7.62384e-13
1.17465e-09
-4.91439e-13
-7.50094e-13
1.17466e-09
-7.76925e-13
-7.75591e-13
1.17468e-09
-1.10824e-12
-7.31296e-13
1.17472e-09
-1.51298e-12
-7.47761e-13
1.17514e-09
-1.97798e-12
-6.41103e-13
1.17582e-09
-2.58069e-12
-6.60748e-13
1.17703e-09
-3.19353e-12
-3.72406e-13
1.17867e-09
-4.12928e-12
-4.5993e-13
1.18125e-09
-5.0423e-12
4.76946e-13
1.18457e-09
-5.92264e-12
-2.04359e-13
1.19482e-09
-2.45956e-12
1.67173e-12
1.20365e-09
4.78501e-11
2.15679e-12
9.66114e-10
6.15227e-11
-4.67401e-11
-6.06467e-11
-5.79226e-11
1.61736e-11
8.25557e-12
1.30967e-10
-3.95808e-11
-2.19535e-11
6.70756e-11
-1.91414e-11
-8.86899e-12
1.03561e-11
1.25665e-11
-8.11039e-12
-1.11288e-11
1.10528e-11
1.60293e-11
-8.29645e-12
-2.18289e-13
-1.09407e-12
1.17457e-09
-4.62272e-13
-1.07466e-12
1.17461e-09
-7.32503e-13
-1.10577e-12
1.17478e-09
-1.04669e-12
-1.04454e-12
1.17493e-09
-1.42389e-12
-1.05537e-12
1.17541e-09
-1.83303e-12
-9.58701e-13
1.17604e-09
-2.34185e-12
-9.15761e-13
1.17725e-09
-2.79554e-12
-7.13317e-13
1.17869e-09
-3.51508e-12
-5.39464e-13
1.18086e-09
-4.22445e-12
-4.87873e-14
1.18307e-09
-5.19631e-12
2.4557e-13
1.19333e-09
-2.03424e-12
8.75675e-14
1.21144e-09
6.44175e-11
2.58196e-12
9.72206e-10
6.67265e-11
-6.28545e-11
-6.51166e-11
-4.97289e-11
-5.34628e-12
1.8109e-11
1.14318e-12
1.00241e-10
2.16489e-12
-3.37768e-13
-1.36056e-11
2.43658e-12
-1.6353e-14
9.35829e-12
-2.32716e-13
-1.47095e-12
1.17477e-09
-4.90847e-13
-1.43757e-12
1.17486e-09
-7.50156e-13
-1.50952e-12
1.17515e-09
-1.05917e-12
-1.42016e-12
1.17541e-09
-1.44421e-12
-1.43922e-12
1.17612e-09
-1.86359e-12
-1.34075e-12
1.17681e-09
-2.39549e-12
-1.2682e-12
1.17819e-09
-2.88964e-12
-1.07378e-12
1.17954e-09
-3.47147e-12
-8.04417e-13
1.18174e-09
-4.39234e-12
-4.64475e-13
1.18276e-09
-5.35599e-12
2.48771e-13
1.19564e-09
-3.05774e-12
-5.79944e-13
1.22124e-09
6.66087e-11
4.40509e-12
9.8288e-10
6.75402e-11
-6.56264e-11
-6.52417e-11
-5.6639e-11
1.78035e-11
-5.55198e-12
1.08945e-10
2.05069e-12
1.44652e-13
-9.12318e-13
-1.32891e-11
1.23125e-12
1.39019e-12
1.14353e-11
-1.84053e-13
-1.94657e-12
1.1754e-09
-4.07298e-13
-1.88772e-12
1.17548e-09
-6.42533e-13
-1.97365e-12
1.17583e-09
-9.62716e-13
-1.82814e-12
1.17604e-09
-1.34606e-12
-1.8565e-12
1.17679e-09
-1.76751e-12
-1.76196e-12
1.17757e-09
-2.27518e-12
-1.65515e-12
1.17907e-09
-2.64397e-12
-1.56539e-12
1.1803e-09
-3.33073e-12
-1.04274e-12
1.18153e-09
-3.93458e-12
-1.38813e-12
1.18394e-09
-5.00339e-12
1.51536e-13
1.20587e-09
-3.62146e-12
-7.20498e-13
1.19744e-09
6.71199e-11
4.69015e-11
8.11075e-10
6.79911e-11
-6.40751e-11
-6.59927e-11
6.70194e-11
-4.46818e-11
-6.25757e-11
-4.96803e-11
-1.94811e-13
6.13112e-12
1.01969e-10
-9.85257e-12
1.39796e-11
1.44455e-11
-9.67812e-12
-2.30047e-13
-2.45248e-12
1.17629e-09
-4.99393e-13
-2.35634e-12
1.1764e-09
-6.62188e-13
-2.57665e-12
1.17703e-09
-9.22211e-13
-2.33762e-12
1.17727e-09
-1.27854e-12
-2.38671e-12
1.17819e-09
-1.66718e-12
-2.2668e-12
1.17904e-09
-2.15113e-12
-2.14035e-12
1.18083e-09
-2.69615e-12
-2.05112e-12
1.18178e-09
-2.90372e-12
-2.11288e-12
1.18365e-09
-4.62534e-12
-1.42591e-12
1.19419e-09
-1.25972e-12
-2.30961e-12
1.20477e-09
4.76689e-11
2.95294e-12
9.47788e-10
6.20964e-11
-4.69336e-11
-6.11911e-11
-6.0265e-11
1.3985e-11
6.09073e-12
1.3476e-10
1.11186e-11
-1.16119e-11
-1.29106e-11
2.61973e-12
1.04551e-12
9.73877e-12
-8.31291e-14
-3.11567e-12
1.17797e-09
-2.29658e-13
-2.99022e-12
1.17802e-09
-3.63648e-13
-3.19189e-12
1.17867e-09
-7.15177e-13
-2.79103e-12
1.17871e-09
-1.08332e-12
-2.87952e-12
1.17955e-09
-1.57803e-12
-2.63263e-12
1.18028e-09
-2.064e-12
-2.68054e-12
1.18177e-09
-2.66081e-12
-2.65104e-12
1.18332e-09
-3.93643e-12
-2.64621e-12
1.19406e-09
-3.63874e-12
-1.8322e-12
1.22286e-09
-2.09776e-12
-8.93626e-13
1.19214e-09
6.42521e-11
4.64565e-11
8.2571e-10
6.43574e-11
-6.13533e-11
-6.18909e-11
6.82841e-11
-4.52401e-11
-6.38346e-11
-4.48703e-11
-2.99512e-12
7.19231e-12
9.63351e-11
-9.60457e-12
1.20652e-11
1.37216e-11
-7.59233e-12
-1.91471e-13
-6.5688e-13
-1.53223e-12
2.38058e-12
-2.79807e-13
-3.72473e-12
1.17967e-09
-6.11399e-13
-3.60884e-12
1.17974e-09
-4.60518e-13
-4.12931e-12
1.18125e-09
-5.45251e-13
-3.51496e-12
1.18087e-09
-8.15015e-13
-3.46671e-12
1.18178e-09
-1.06023e-12
-3.31808e-12
1.18156e-09
-2.13144e-12
-2.88893e-12
1.18371e-09
-2.67662e-12
-3.91666e-12
1.19415e-09
-2.7147e-12
-2.7085e-12
1.22654e-09
-1.58816e-12
-1.80624e-12
1.18238e-09
4.46023e-11
4.92982e-11
7.65203e-10
6.79531e-11
-4.4079e-11
-6.52583e-11
6.72902e-11
-4.63908e-11
-6.44416e-11
-7.10244e-11
5.40699e-12
8.92219e-12
1.47755e-10
9.08077e-12
-1.10547e-11
-1.05291e-11
-1.18674e-12
1.24601e-12
1.24438e-11
1.92924e-13
-4.79852e-12
1.18266e-09
3.57189e-13
-4.82971e-12
1.1827e-09
4.8795e-13
-5.04858e-12
1.18457e-09
-4.64641e-14
-4.22635e-12
1.18306e-09
-4.73774e-13
-4.39126e-12
1.18279e-09
-1.40362e-12
-3.92786e-12
1.18397e-09
-1.45057e-12
-4.61031e-12
1.19427e-09
-1.83862e-12
-3.62999e-12
1.22307e-09
-1.80968e-12
-1.5882e-12
1.18246e-09
5.04851e-11
5.05377e-11
7.72186e-10
6.83403e-11
-4.8251e-11
-6.67152e-11
6.84551e-11
-4.83014e-11
-6.68182e-11
-6.21615e-11
1.52312e-11
1.55037e-11
1.31211e-10
-3.45806e-11
-1.91808e-11
6.07608e-11
-1.83535e-11
-9.52697e-12
1.40802e-11
1.21752e-11
-1.04919e-11
-7.6502e-12
9.03932e-12
1.06138e-11
-6.88541e-12
-7.17493e-13
-5.95433e-12
1.18326e-09
-1.38713e-12
-5.84348e-12
1.187e-09
-2.00391e-13
-5.92725e-12
1.1948e-09
2.43624e-13
-5.19965e-12
1.19331e-09
2.38597e-13
-5.35863e-12
1.19566e-09
1.31771e-13
-4.99901e-12
1.20592e-09
-2.32934e-12
-1.2546e-12
1.2049e-09
-9.06718e-13
-2.09199e-12
1.19254e-09
4.92893e-11
4.45769e-11
7.65733e-10
6.79452e-11
-4.40592e-11
-6.52531e-11
6.73189e-11
-4.63689e-11
-6.44761e-11
-6.22226e-11
1.54954e-11
1.5234e-11
1.31321e-10
-3.62893e-11
6.45857e-11
-1.89337e-11
-1.89413e-11
-8.49697e-12
9.6601e-12
1.13065e-11
-7.68814e-12
-8.51443e-12
9.69199e-12
1.13355e-11
-7.716e-12
7.14687e-13
-6.77303e-12
1.19645e-09
2.08403e-12
-6.25163e-12
1.21269e-09
1.66854e-12
-2.45917e-12
1.20359e-09
1.00251e-13
-2.03507e-12
1.21139e-09
-5.80224e-13
-3.0651e-12
1.22126e-09
-7.27973e-13
-3.61992e-12
1.19749e-09
2.94316e-12
4.76635e-11
9.47881e-10
6.20914e-11
-4.69273e-11
-6.11833e-11
4.64669e-11
6.42456e-11
8.25851e-10
6.82913e-11
-4.52525e-11
-6.38412e-11
6.435e-11
-6.13474e-11
-6.18881e-11
-7.10391e-11
8.92001e-12
5.39765e-12
1.47766e-10
-3.46189e-11
-1.91696e-11
6.07717e-11
-1.83329e-11
-7.65583e-12
9.05228e-12
1.0617e-11
-6.89155e-12
-9.5263e-12
1.40729e-11
1.21716e-11
-1.04904e-11
-2.90769e-13
-5.11431e-12
1.22029e-09
-1.61339e-12
-4.67411e-12
1.20373e-09
2.14123e-12
4.78399e-11
9.6608e-10
6.15129e-11
-4.67275e-11
-6.06437e-11
2.59216e-12
6.4414e-11
9.72163e-10
6.67214e-11
-6.28469e-11
-6.51156e-11
4.41167e-12
6.66052e-11
9.82882e-10
6.75352e-11
-6.56236e-11
-6.52398e-11
4.6901e-11
6.71173e-11
8.1109e-10
6.70185e-11
-4.46825e-11
-6.25728e-11
6.79877e-11
-6.40713e-11
-6.59899e-11
-6.0261e-11
6.09184e-12
1.39821e-11
1.34752e-10
-4.48607e-11
-2.99575e-12
7.18823e-12
9.63241e-11
-9.6041e-12
1.20639e-11
1.37217e-11
-7.59217e-12
9.08019e-12
-1.05272e-11
-1.10556e-11
1.24671e-12
-1.18695e-12
1.24429e-11
2.41102e-12
6.85782e-11
9.85113e-10
6.88982e-11
-6.69928e-11
-6.70393e-11
4.96418e-11
6.96357e-11
8.01436e-10
7.22634e-11
-6.58351e-11
-7.06796e-11
7.4706e-11
-4.6983e-11
-7.03048e-11
-5.79131e-11
8.26565e-12
1.61703e-11
1.30959e-10
-4.9726e-11
-5.3494e-12
1.1456e-12
1.81078e-11
1.00236e-10
-5.66364e-11
-5.54986e-12
1.78e-11
1.08942e-10
2.04927e-12
-4.96794e-11
-1.95468e-13
6.13111e-12
1.01966e-10
-9.85229e-12
1.39791e-11
1.44448e-11
-9.67766e-12
1.11181e-11
-1.29098e-11
-1.16116e-11
1.04552e-12
2.61956e-12
9.73823e-12
-1.91335e-13
-1.53233e-12
-6.56704e-13
2.38036e-12
-4.31695e-11
1.86191e-12
9.87525e-11
-9.59512e-12
1.51065e-11
1.5112e-11
-9.49807e-12
-4.49812e-11
-6.59698e-12
1.53322e-11
9.55626e-11
-1.07919e-11
1.56298e-11
1.60422e-11
-1.05614e-11
-3.95779e-11
-2.19577e-11
6.70737e-11
-1.91401e-11
-1.11287e-11
1.10537e-11
1.60301e-11
-8.29719e-12
-8.86887e-12
1.03563e-11
1.25664e-11
-8.10966e-12
2.16484e-12
-3.37762e-13
-1.36052e-11
-1.61729e-14
2.43636e-12
9.35791e-12
1.44651e-13
-1.32887e-11
-9.122e-13
1.3902e-12
1.23112e-12
1.1435e-11
-4.60176e-14
-4.67202e-14
1.17545e-09
-1.04451e-13
-4.49895e-14
1.17505e-09
-1.66877e-13
-4.99194e-14
1.17475e-09
-2.39994e-13
-4.4797e-14
1.17469e-09
-3.22839e-13
-5.29773e-14
1.17491e-09
-4.25835e-13
-3.55281e-14
1.17553e-09
-5.25888e-13
-6.44507e-14
1.17646e-09
-6.56163e-13
-2.27444e-15
1.1781e-09
-7.16083e-13
-1.17222e-13
1.17984e-09
-8.70271e-13
1.76886e-13
1.18265e-09
-9.9447e-13
-4.08134e-13
1.18381e-09
-2.02491e-12
5.79009e-13
1.19696e-09
-8.56495e-13
-1.17921e-12
1.22043e-09
6.68198e-11
1.49962e-12
9.8167e-10
6.71565e-11
-6.62437e-11
-6.63508e-11
-4.39563e-11
1.71098e-12
9.96409e-11
-9.94466e-12
1.45938e-11
1.4624e-11
-9.84713e-12
-4.45258e-14
-1.0528e-13
1.17508e-09
-1.01924e-13
-1.02506e-13
1.1749e-09
-1.64477e-13
-1.08883e-13
1.17471e-09
-2.36526e-13
-9.98061e-14
1.17471e-09
-3.15395e-13
-1.14988e-13
1.175e-09
-4.10282e-13
-8.62688e-14
1.17562e-09
-4.99567e-13
-1.42141e-13
1.17657e-09
-6.02923e-13
-4.02625e-14
1.17816e-09
-6.59613e-13
-2.69735e-13
1.17995e-09
-9.28695e-13
2.95291e-13
1.18287e-09
-1.32585e-12
-8.24039e-13
1.18786e-09
-2.84524e-12
2.08046e-12
1.2128e-09
-1.69633e-12
-2.51128e-12
1.20409e-09
6.73516e-11
4.83844e-11
7.97934e-10
7.05571e-11
-6.54416e-11
-7.00474e-11
7.2506e-11
-4.84408e-11
-7.12981e-11
-4.60356e-11
-6.26724e-12
1.45877e-11
9.64948e-11
-1.11306e-11
1.50743e-11
1.55656e-11
-1.09377e-11
-5.01448e-14
-1.67792e-13
1.17476e-09
-1.09339e-13
-1.64653e-13
1.17478e-09
-1.75522e-13
-1.74657e-13
1.17482e-09
-2.47989e-13
-1.64059e-13
1.17486e-09
-3.46394e-13
-1.73742e-13
1.1753e-09
-4.41935e-13
-1.42169e-13
1.17598e-09
-5.96506e-13
-1.66105e-13
1.17721e-09
-6.72272e-13
-8.51194e-14
1.1788e-09
-9.35803e-13
-1.72445e-13
1.18142e-09
-9.06903e-13
1.93764e-13
1.18464e-09
-1.98805e-12
-1.1426e-13
1.19519e-09
4.53273e-13
1.18679e-12
1.2021e-09
4.7119e-11
8.40525e-13
9.63612e-10
6.08655e-11
-4.76799e-11
-6.07e-11
-5.95003e-11
1.48804e-11
6.56781e-12
1.33556e-10
-4.03e-11
-2.05217e-11
6.74907e-11
-1.7712e-11
-9.0908e-12
1.00903e-11
1.20856e-11
-8.34322e-12
-1.13452e-11
1.05954e-11
1.54898e-11
-8.439e-12
-4.4384e-14
-2.40635e-13
1.17469e-09
-9.97907e-14
-2.36362e-13
1.17473e-09
-1.64828e-13
-2.46305e-13
1.17492e-09
-2.35989e-13
-2.34391e-13
1.17507e-09
-3.30906e-13
-2.3722e-13
1.17556e-09
-4.12774e-13
-2.20248e-13
1.1762e-09
-5.47086e-13
-2.03514e-13
1.17742e-09
-5.80904e-13
-1.87912e-13
1.17883e-09
-7.70194e-13
-1.24322e-13
1.181e-09
-6.22036e-13
-1.11591e-13
1.18323e-09
-1.73435e-12
2.71215e-13
1.19406e-09
1.05062e-12
-4.08906e-13
1.21025e-09
6.36323e-11
1.59829e-12
9.70887e-10
6.54833e-11
-6.27166e-11
-6.47862e-11
-5.04762e-11
-4.79653e-12
1.66826e-11
9.02228e-13
1.0132e-10
1.82162e-12
-3.2466e-13
-1.32837e-11
2.41378e-12
8.56468e-15
9.36437e-12
-5.21223e-14
-3.23318e-13
1.17491e-09
-1.15019e-13
-3.14778e-13
1.175e-09
-1.75219e-13
-3.4419e-13
1.17531e-09
-2.40083e-13
-3.28114e-13
1.17557e-09
-3.35475e-13
-3.31355e-13
1.17631e-09
-4.23167e-13
-3.19707e-13
1.177e-09
-5.64398e-13
-2.92375e-13
1.17842e-09
-6.49519e-13
-2.79437e-13
1.17972e-09
-7.39717e-13
-1.80219e-13
1.18188e-09
-7.60778e-13
-2.01107e-13
1.18287e-09
-1.70616e-12
5.16558e-13
1.19634e-09
-5.92812e-15
-1.44296e-12
1.22057e-09
6.4933e-11
2.73484e-12
9.80556e-10
6.62498e-11
-6.55127e-11
-6.4489e-11
-5.73319e-11
1.58606e-11
-5.62645e-12
1.10032e-10
1.999e-12
-1.5766e-13
-9.08666e-13
-1.29729e-11
1.21252e-12
1.40135e-12
1.14254e-11
-3.35226e-14
-4.25623e-13
1.17554e-09
-8.47525e-14
-4.10156e-13
1.17562e-09
-1.42724e-13
-4.39695e-13
1.17598e-09
-2.22571e-13
-4.10057e-13
1.17621e-09
-3.23839e-13
-4.18226e-13
1.17698e-09
-4.26044e-13
-4.21871e-13
1.17778e-09
-5.82475e-13
-3.73901e-13
1.17931e-09
-6.21236e-13
-4.38293e-13
1.18049e-09
-8.78751e-13
-7.93564e-14
1.18169e-09
-8.99311e-13
-5.06295e-13
1.18427e-09
-2.3832e-12
1.27292e-12
1.20659e-09
-1.58443e-12
-2.03604e-12
1.19724e-09
6.49435e-11
4.61202e-11
8.08511e-10
6.71449e-11
-6.40601e-11
-6.59834e-11
6.59624e-11
-4.63808e-11
-6.40326e-11
-5.04591e-11
2.59471e-13
4.88645e-12
1.02948e-10
-1.01688e-11
1.34737e-11
1.40339e-11
-1.00305e-11
-6.03943e-14
-5.25512e-13
1.17647e-09
-1.39453e-13
-4.99967e-13
1.17657e-09
-1.66462e-13
-5.95133e-13
1.17721e-09
-2.07053e-13
-5.45027e-13
1.17744e-09
-2.98298e-13
-5.60068e-13
1.17842e-09
-3.81038e-13
-5.7704e-13
1.17928e-09
-5.09219e-13
-5.03538e-13
1.18109e-09
-6.63219e-13
-4.8881e-13
1.18198e-09
-4.21493e-13
-5.37422e-13
1.18387e-09
-1.83224e-12
2.50016e-13
1.19485e-09
1.68598e-12
-1.88357e-12
1.20441e-09
4.65769e-11
2.72761e-12
9.45892e-10
6.10898e-11
-4.77768e-11
-6.10713e-11
-6.18721e-11
1.19049e-11
4.77257e-12
1.37892e-10
9.81174e-12
-1.10923e-11
-1.22427e-11
2.42335e-12
8.29493e-13
1.02705e-11
5.96628e-15
-6.5468e-13
1.17811e-09
-3.31722e-14
-6.05819e-13
1.17817e-09
-8.26099e-14
-6.73549e-13
1.1788e-09
-1.89343e-13
-5.82234e-13
1.17886e-09
-2.85242e-13
-6.47632e-13
1.17973e-09
-4.44727e-13
-6.1848e-13
1.18048e-09
-4.99862e-13
-6.55321e-13
1.18198e-09
-6.00264e-13
-6.0011e-13
1.18353e-09
-1.53983e-12
-2.78611e-13
1.19475e-09
-1.46812e-12
-4.84775e-13
1.22353e-09
-1.37438e-12
-4.34811e-13
1.19059e-09
6.26377e-11
4.52982e-11
8.23169e-10
6.36524e-11
-6.18122e-11
-6.23198e-11
6.75741e-11
-4.67972e-11
-6.43387e-11
-4.58754e-11
-2.30085e-12
5.8276e-12
9.8017e-11
-9.95814e-12
1.15421e-11
1.33585e-11
-7.97331e-12
-2.35545e-13
-5.92154e-13
-1.52523e-12
2.35293e-12
-1.07319e-13
-7.12029e-13
1.17985e-09
-2.61619e-13
-6.64136e-13
1.17996e-09
-1.72435e-13
-9.39436e-13
1.18143e-09
-1.32703e-13
-7.73812e-13
1.18102e-09
-2.04558e-13
-7.32044e-13
1.18193e-09
-1.10978e-13
-8.73901e-13
1.18172e-09
-5.48835e-13
-4.38763e-13
1.18393e-09
-2.7712e-13
-1.53974e-12
1.19482e-09
-7.54003e-13
-6.46049e-13
1.22738e-09
7.28168e-13
-1.20658e-13
1.18053e-09
4.31486e-11
4.83271e-11
7.63692e-10
6.70978e-11
-4.51577e-11
-6.4794e-11
6.59037e-11
-4.77546e-11
-6.49659e-11
-7.27306e-11
3.2955e-12
7.10212e-12
1.5078e-10
7.92454e-12
-1.05753e-11
-9.91967e-12
-1.39351e-12
1.04341e-12
1.29205e-11
1.9717e-13
-8.65097e-13
1.18264e-09
3.10332e-13
-9.36939e-13
1.18286e-09
2.03789e-13
-9.19732e-13
1.18466e-09
-1.23677e-13
-6.18428e-13
1.18323e-09
-2.06136e-13
-7.66863e-13
1.18291e-09
-5.16368e-13
-8.98944e-13
1.18431e-09
2.07826e-13
-1.82629e-12
1.19494e-09
-5.88948e-13
-1.44942e-12
1.22378e-09
-1.16107e-13
7.19035e-13
1.18062e-09
4.96724e-11
4.97232e-11
7.71026e-10
6.73547e-11
-4.95598e-11
-6.70083e-11
6.74678e-11
-4.96117e-11
-6.71135e-11
-6.38262e-11
1.38945e-11
1.3952e-11
1.33979e-10
-3.55629e-11
-1.78391e-11
6.12515e-11
-1.72124e-11
-9.76409e-12
1.36801e-11
1.20116e-11
-1.08105e-11
-7.92064e-12
8.78389e-12
1.04492e-11
-7.06674e-12
-3.88033e-13
-9.88793e-13
1.1838e-09
-8.0571e-13
-1.33768e-12
1.18782e-09
-1.22715e-13
-1.99707e-12
1.19519e-09
2.72177e-13
-1.74364e-12
1.19404e-09
5.09562e-13
-1.71222e-12
1.19637e-09
1.25864e-12
-2.38407e-12
1.20666e-09
-1.90089e-12
1.69221e-12
1.20454e-09
-4.37831e-13
-1.36862e-12
1.19099e-09
4.83128e-11
4.31266e-11
7.64211e-10
6.7092e-11
-4.51365e-11
-6.47889e-11
6.59359e-11
-4.77366e-11
-6.50011e-11
-6.38932e-11
1.39452e-11
1.38886e-11
1.34096e-10
-3.72724e-11
6.53212e-11
-1.79146e-11
-1.79228e-11
-8.76938e-12
9.38907e-12
1.11582e-11
-7.88979e-12
-8.78765e-12
9.42073e-12
1.11855e-11
-7.91808e-12
6.28105e-13
-2.02625e-12
1.19689e-09
2.10502e-12
-2.86415e-12
1.21274e-09
1.20643e-12
4.39637e-13
1.20205e-09
-4.00482e-13
1.0462e-12
1.2102e-09
-1.44116e-12
-1.0868e-14
1.2206e-09
-2.04161e-12
-1.58266e-12
1.19729e-09
2.72039e-12
4.65712e-11
9.45989e-10
6.10844e-11
-4.7771e-11
-6.10632e-11
4.53125e-11
6.26305e-11
8.23306e-10
6.75806e-11
-4.68082e-11
-6.43452e-11
6.36483e-11
-6.18053e-11
-6.23159e-11
-7.27466e-11
7.10393e-12
3.28855e-12
1.50793e-10
-3.5594e-11
-1.78311e-11
6.12632e-11
-1.71945e-11
-7.92629e-12
8.79606e-12
1.04516e-11
-7.07336e-12
-9.76326e-12
1.36727e-11
1.20079e-11
-1.0809e-11
-1.15271e-12
-8.58245e-13
1.22031e-09
-2.48587e-12
-1.72702e-12
1.20392e-09
8.46287e-13
4.71098e-11
9.63588e-10
6.0857e-11
-4.76691e-11
-6.06976e-11
1.60105e-12
6.36262e-11
9.70845e-10
6.54796e-11
-6.27103e-11
-6.4785e-11
2.73516e-12
6.49305e-11
9.80558e-10
6.62457e-11
-6.55108e-11
-6.4487e-11
4.61213e-11
6.49405e-11
8.08529e-10
6.59609e-11
-4.63823e-11
-6.40321e-11
6.71424e-11
-6.40574e-11
-6.59808e-11
-6.18708e-11
4.77371e-12
1.19029e-11
1.37887e-10
-4.58741e-11
-2.30126e-12
5.82575e-12
9.80121e-11
-9.95785e-12
1.15409e-11
1.33581e-11
-7.97332e-12
7.92363e-12
-9.91767e-12
-1.05756e-11
1.04305e-12
-1.39325e-12
1.29199e-11
1.52642e-12
6.68174e-11
9.81385e-10
6.71078e-11
-6.62321e-11
-6.63317e-11
4.84041e-11
6.73275e-11
7.97658e-10
7.05426e-11
-6.54132e-11
-7.00419e-11
7.25185e-11
-4.84525e-11
-7.13076e-11
-5.94921e-11
6.57686e-12
1.48789e-11
1.3355e-10
-5.04745e-11
-4.80036e-12
9.03806e-13
1.66806e-11
1.01316e-10
-5.73298e-11
-5.62471e-12
1.58578e-11
1.10029e-10
1.99818e-12
-5.04584e-11
2.59046e-13
4.88603e-12
1.02945e-10
-1.01685e-11
1.34732e-11
1.40333e-11
-1.00302e-11
9.81134e-12
-1.2242e-11
-1.10919e-11
8.29363e-13
2.42325e-12
1.027e-11
-2.3555e-13
-1.52525e-12
-5.92031e-13
2.35283e-12
-4.39391e-11
1.71989e-12
9.96095e-11
-9.93981e-12
1.46014e-11
1.4613e-11
-9.84812e-12
-4.60018e-11
-6.27169e-12
1.45952e-11
9.64396e-11
-1.11265e-11
1.50633e-11
1.55588e-11
-1.09297e-11
-4.02971e-11
-2.05254e-11
6.74897e-11
-1.77125e-11
-1.13453e-11
1.05965e-11
1.54907e-11
-8.43976e-12
-9.09068e-12
1.00908e-11
1.20858e-11
-8.3426e-12
1.82151e-12
-3.24743e-13
-1.32831e-11
8.68296e-15
2.41357e-12
9.36409e-12
-1.5767e-13
-1.29727e-11
-9.0855e-13
1.40131e-12
1.21252e-12
1.14252e-11
1.35516e-13
1.34174e-13
1.17518e-09
2.76657e-13
1.33513e-13
1.17478e-09
4.29349e-13
1.34456e-13
1.17446e-09
6.10786e-13
1.27945e-13
1.17438e-09
8.19144e-13
1.26126e-13
1.17458e-09
1.07984e-12
1.12948e-13
1.17517e-09
1.38228e-12
1.01778e-13
1.17606e-09
1.75793e-12
8.14569e-14
1.17765e-09
2.16252e-12
5.85085e-14
1.17938e-09
2.63797e-12
6.44558e-14
1.18211e-09
3.1572e-12
-1.55557e-13
1.18345e-09
2.65004e-12
2.60687e-13
1.19721e-09
2.14556e-12
-1.08471e-14
1.22095e-09
6.64132e-11
3.29953e-13
9.83353e-10
6.68193e-11
-6.65011e-11
-6.65995e-11
-4.45299e-11
1.67337e-12
1.00185e-10
-1.0045e-11
1.45245e-11
1.45585e-11
-9.95025e-12
1.34925e-13
2.75104e-13
1.17481e-09
2.72515e-13
2.71319e-13
1.17462e-09
4.22041e-13
2.74586e-13
1.17442e-09
5.98084e-13
2.59947e-13
1.17441e-09
7.99984e-13
2.57943e-13
1.17466e-09
1.0511e-12
2.3149e-13
1.17525e-09
1.34269e-12
2.09599e-13
1.17617e-09
1.71119e-12
1.71006e-13
1.17771e-09
2.13618e-12
8.66927e-14
1.1795e-09
2.58032e-12
9.73068e-14
1.18239e-09
3.09962e-12
-6.03695e-13
1.18779e-09
1.99401e-12
9.5399e-13
1.21321e-09
1.47967e-12
-2.50831e-13
1.20485e-09
6.70598e-11
4.80708e-11
7.99683e-10
7.03519e-11
-6.56831e-11
-7.02174e-11
7.17918e-11
-4.90536e-11
-7.22602e-11
-4.64658e-11
-6.17534e-12
1.44489e-11
9.69479e-11
-1.12145e-11
1.50205e-11
1.55429e-11
-1.10456e-11
1.34949e-13
4.27661e-13
1.17448e-09
2.74714e-13
4.20941e-13
1.17449e-09
4.24459e-13
4.24738e-13
1.17452e-09
6.05872e-13
3.98552e-13
1.17454e-09
8.09308e-13
3.95227e-13
1.17496e-09
1.07138e-12
3.49497e-13
1.1756e-09
1.35531e-12
3.16196e-13
1.17682e-09
1.75162e-12
2.30333e-13
1.17834e-09
2.06148e-12
1.181e-13
1.18108e-09
2.74503e-12
-1.20597e-13
1.18418e-09
2.42386e-12
-6.41082e-13
1.19555e-09
3.56438e-12
-3.47812e-13
1.20227e-09
4.72834e-11
5.87196e-13
9.65675e-10
6.14815e-11
-4.76878e-11
-6.04127e-11
-5.99452e-11
1.49791e-11
6.16307e-12
1.34157e-10
-4.07042e-11
-2.04112e-11
6.78601e-11
-1.73392e-11
-9.15227e-12
1.00553e-11
1.20615e-11
-8.4363e-12
-1.14294e-11
1.05406e-11
1.54633e-11
-8.50819e-12
1.28853e-13
6.09179e-13
1.17439e-09
2.60633e-13
5.9715e-13
1.17443e-09
3.98334e-13
6.06549e-13
1.1746e-09
5.66265e-13
5.67101e-13
1.17473e-09
7.49369e-13
5.73009e-13
1.1752e-09
9.84098e-13
5.07395e-13
1.17581e-09
1.21009e-12
4.98701e-13
1.17702e-09
1.54859e-12
3.4799e-13
1.17837e-09
1.75158e-12
3.09916e-13
1.18061e-09
2.31101e-12
-1.84128e-13
1.18273e-09
1.66747e-12
-2.0201e-13
1.19426e-09
2.66104e-12
-1.52429e-12
1.21043e-09
6.35395e-11
6.79015e-13
9.72029e-10
6.55122e-11
-6.28891e-11
-6.47339e-11
-5.08054e-11
-4.62946e-12
1.64924e-11
6.85269e-13
1.01796e-10
1.7451e-12
-3.30688e-13
-1.32429e-11
2.42535e-12
3.57543e-15
9.39956e-12
1.27055e-13
8.17526e-13
1.17459e-09
2.58256e-13
7.99453e-13
1.17467e-09
3.94465e-13
8.10373e-13
1.17497e-09
5.71058e-13
7.51125e-13
1.17521e-09
7.59292e-13
7.6248e-13
1.17593e-09
9.93757e-13
6.84333e-13
1.17659e-09
1.2352e-12
6.67308e-13
1.17801e-09
1.50537e-12
5.25243e-13
1.17927e-09
1.77145e-12
4.05034e-13
1.18152e-09
2.09039e-12
3.07355e-14
1.18234e-09
1.55117e-12
5.71424e-14
1.19662e-09
1.64276e-12
-1.81244e-12
1.22077e-09
6.45065e-11
8.78782e-13
9.819e-10
6.60791e-11
-6.58612e-11
-6.46252e-11
-5.77758e-11
1.55607e-11
-5.815e-12
1.10469e-10
2.06767e-12
-2.28394e-13
-9.15501e-13
-1.29532e-11
1.21541e-12
1.40736e-12
1.14743e-11
1.1498e-13
1.0784e-12
1.17517e-09
2.33159e-13
1.0502e-12
1.17525e-09
3.49641e-13
1.07233e-12
1.17561e-09
5.06065e-13
9.85838e-13
1.17582e-09
6.81523e-13
9.97545e-13
1.17657e-09
8.9216e-13
8.95739e-13
1.17736e-09
1.07943e-12
8.93236e-13
1.1789e-09
1.33165e-12
6.86523e-13
1.18008e-09
1.34254e-12
7.52927e-13
1.18133e-09
1.74224e-12
5.98746e-14
1.18384e-09
4.41993e-13
9.2192e-13
1.20703e-09
-3.7362e-13
-1.23171e-12
1.19747e-09
6.4579e-11
4.58236e-11
8.08796e-10
6.7009e-11
-6.44403e-11
-6.6248e-11
6.54061e-11
-4.69573e-11
-6.49519e-11
-5.08801e-11
4.09058e-13
4.60422e-12
1.03385e-10
-1.02398e-11
1.34227e-11
1.40175e-11
-1.01402e-11
1.05189e-13
1.38064e-12
1.17607e-09
2.12e-13
1.34122e-12
1.17617e-09
3.1674e-13
1.35552e-12
1.17683e-09
4.96851e-13
1.21149e-12
1.17704e-09
6.63255e-13
1.23846e-12
1.17802e-09
8.88809e-13
1.08268e-12
1.17887e-09
1.08794e-12
1.09218e-12
1.18069e-09
1.20943e-12
9.71262e-13
1.18158e-09
1.61311e-12
7.02877e-13
1.18352e-09
6.78854e-13
1.15041e-12
1.1947e-09
2.72177e-12
-1.47082e-12
1.20476e-09
4.67e-11
2.09943e-12
9.45743e-10
6.14996e-11
-4.77695e-11
-6.08913e-11
-6.24455e-11
1.19627e-11
4.4189e-12
1.38588e-10
9.69398e-12
-1.10808e-11
-1.21487e-11
2.3797e-12
7.81955e-13
1.03739e-11
8.696e-14
1.75511e-12
1.17766e-09
1.7655e-13
1.70738e-12
1.17771e-09
2.31868e-13
1.75201e-12
1.17835e-09
3.4706e-13
1.54892e-12
1.17841e-09
5.21828e-13
1.50656e-12
1.17929e-09
6.81793e-13
1.33319e-12
1.18007e-09
9.67138e-13
1.21086e-12
1.18157e-09
1.13083e-12
1.13333e-12
1.18321e-09
8.00814e-13
1.3209e-12
1.19446e-09
8.88243e-13
6.47301e-13
1.22394e-09
-5.58591e-13
-6.51946e-13
1.19122e-09
6.24724e-11
4.50712e-11
8.2312e-10
6.35055e-11
-6.21505e-11
-6.26658e-11
6.73969e-11
-4.72038e-11
-6.48357e-11
-4.63641e-11
-2.17135e-12
5.58769e-12
9.85885e-11
-1.00045e-11
1.15052e-11
1.3402e-11
-8.07108e-12
-2.47365e-13
-5.85951e-13
-1.52053e-12
2.35384e-12
5.62873e-14
2.16548e-12
1.1794e-09
7.90323e-14
2.1326e-12
1.17951e-09
1.10983e-13
2.05689e-12
1.1811e-09
3.06792e-13
1.74622e-12
1.18063e-09
4.00092e-13
1.76948e-12
1.18157e-09
7.47579e-13
1.34086e-12
1.18136e-09
6.96876e-13
1.61254e-12
1.18358e-09
1.32563e-12
7.90093e-13
1.19454e-09
1.24788e-12
1.23242e-12
1.22755e-09
1.43108e-12
7.16263e-14
1.18092e-09
4.3162e-11
4.81758e-11
7.63784e-10
6.72435e-11
-4.52662e-11
-6.48702e-11
6.57367e-11
-4.81201e-11
-6.53742e-11
-7.32948e-11
3.2544e-12
6.84067e-12
1.51433e-10
7.82642e-12
-1.05354e-11
-9.85486e-12
-1.44678e-12
9.81168e-13
1.30295e-11
6.83944e-14
2.64169e-12
1.18211e-09
9.96425e-14
2.57574e-12
1.18239e-09
-1.14741e-13
2.73119e-12
1.1842e-09
-1.80643e-13
2.30459e-12
1.18273e-09
2.88542e-14
2.08424e-12
1.18238e-09
5.43014e-14
1.73908e-12
1.18389e-09
1.14328e-12
6.75305e-13
1.19479e-09
6.56231e-13
8.83801e-13
1.22417e-09
7.77362e-14
1.4203e-12
1.18101e-09
4.96067e-11
4.96565e-11
7.71264e-10
6.74287e-11
-4.98536e-11
-6.72273e-11
6.754e-11
-4.99053e-11
-6.73339e-11
-6.42205e-11
1.37374e-11
1.36726e-11
1.34593e-10
-3.59863e-11
-1.77135e-11
6.16084e-11
-1.69843e-11
-9.83178e-12
1.36501e-11
1.2063e-11
-1.09305e-11
-7.99437e-12
8.77921e-12
1.04761e-11
-7.13614e-12
-1.25636e-13
3.15882e-12
1.18344e-09
-5.82735e-13
3.08984e-12
1.18776e-09
-6.28794e-13
2.40822e-12
1.19556e-09
-1.97968e-13
1.66029e-12
1.19425e-09
5.52206e-14
1.54404e-12
1.19666e-09
9.17654e-13
4.37818e-13
1.2071e-09
-1.47875e-12
2.72104e-12
1.20489e-09
-6.51011e-13
-5.61748e-13
1.19161e-09
4.81606e-11
4.31396e-11
7.64297e-10
6.72381e-11
-4.52453e-11
-6.48658e-11
6.57705e-11
-4.81039e-11
-6.54095e-11
-6.42903e-11
1.36664e-11
1.37303e-11
1.3471e-10
-3.77956e-11
6.57303e-11
-1.77435e-11
-1.77523e-11
-8.84291e-12
9.38803e-12
1.12019e-11
-7.97255e-12
-8.86143e-12
9.41984e-12
1.12292e-11
-8.00096e-12
2.86979e-13
2.63989e-12
1.19718e-09
1.02452e-12
1.96007e-12
1.21313e-09
-3.27111e-13
3.55157e-12
1.20226e-09
-1.5087e-12
2.65745e-12
1.21039e-09
-1.808e-12
1.63761e-12
1.2208e-09
-1.23322e-12
-3.77099e-13
1.19753e-09
2.09828e-12
4.6694e-11
9.45838e-10
6.14944e-11
-4.77643e-11
-6.08838e-11
4.50861e-11
6.24661e-11
8.23247e-10
6.74042e-11
-4.72154e-11
-6.4842e-11
6.35016e-11
-6.21437e-11
-6.26616e-11
-7.33123e-11
6.84363e-12
3.24721e-12
1.51447e-10
-3.60187e-11
-1.77063e-11
6.16207e-11
-1.69655e-11
-8.00003e-12
8.79144e-12
1.04786e-11
-7.14289e-12
-9.83097e-12
1.3643e-11
1.20594e-11
-1.09288e-11
3.57521e-14
2.11742e-12
1.22088e-09
-2.28954e-13
1.43368e-12
1.20471e-09
5.96776e-13
4.72742e-11
9.65656e-10
6.14747e-11
-4.76798e-11
-6.04107e-11
6.83999e-13
6.35325e-11
9.71993e-10
6.55088e-11
-6.28846e-11
-6.47329e-11
8.79109e-13
6.45043e-11
9.81902e-10
6.60763e-11
-6.58597e-11
-6.46227e-11
4.58254e-11
6.45762e-11
8.08812e-10
6.54051e-11
-4.69591e-11
-6.4952e-11
6.70067e-11
-6.44379e-11
-6.62457e-11
-6.24454e-11
4.42007e-12
1.19609e-11
1.38584e-10
-4.63649e-11
-2.17183e-12
5.58679e-12
9.85851e-11
-1.00041e-11
1.15042e-11
1.34017e-11
-8.07102e-12
7.82544e-12
-9.85309e-12
-1.0536e-11
9.81003e-13
-1.44646e-12
1.30291e-11
3.97018e-13
6.64114e-11
9.83158e-10
6.67572e-11
-6.64935e-11
-6.66163e-11
4.80905e-11
6.70294e-11
7.99458e-10
7.0334e-11
-6.56764e-11
-7.02213e-11
7.18017e-11
-4.90601e-11
-7.22675e-11
-5.99382e-11
6.17158e-12
1.49785e-11
1.34153e-10
-5.08042e-11
-4.63309e-12
6.8616e-13
1.649e-11
1.01793e-10
-5.77739e-11
-5.81372e-12
1.55581e-11
1.10467e-10
2.06735e-12
-5.08796e-11
4.08634e-13
4.60366e-12
1.03383e-10
-1.02395e-11
1.34222e-11
1.40171e-11
-1.014e-11
9.6936e-12
-1.2148e-11
-1.10805e-11
7.81817e-13
2.37958e-12
1.03735e-11
-2.47387e-13
-1.52056e-12
-5.8583e-13
2.35378e-12
-4.45105e-11
1.70449e-12
1.00158e-10
-1.0042e-11
1.45337e-11
1.45475e-11
-9.95072e-12
-4.64325e-11
-6.1918e-12
1.44589e-11
9.6898e-11
-1.12108e-11
1.50095e-11
1.55365e-11
-1.10392e-11
-4.07015e-11
-2.04147e-11
6.78596e-11
-1.73393e-11
-1.14297e-11
1.05415e-11
1.54638e-11
-8.50893e-12
-9.15202e-12
1.00555e-11
1.20618e-11
-8.43601e-12
1.745e-12
-3.30887e-13
-1.32422e-11
3.59975e-15
2.42518e-12
9.39929e-12
-2.28444e-13
-1.29529e-11
-9.15395e-13
1.40733e-12
1.21536e-12
1.14741e-11
3.13751e-13
3.11271e-13
1.17457e-09
6.49058e-13
3.09207e-13
1.17414e-09
1.01314e-12
3.16106e-13
1.17379e-09
1.44544e-12
2.98452e-13
1.17366e-09
1.93958e-12
3.0351e-13
1.1738e-09
2.55594e-12
2.59581e-13
1.1743e-09
3.26189e-12
2.69962e-13
1.17509e-09
4.16421e-12
1.73626e-13
1.17657e-09
5.09735e-12
2.46992e-13
1.17821e-09
6.25986e-12
-1.75357e-14
1.18098e-09
7.15967e-12
2.74463e-13
1.18229e-09
7.43879e-12
-2.97222e-13
1.19724e-09
5.16683e-12
1.70716e-12
1.22152e-09
6.65276e-11
1.4407e-13
9.8842e-10
6.69486e-11
-6.66959e-11
-6.68214e-11
-4.46304e-11
1.70802e-12
1.00374e-10
-1.00664e-11
1.45403e-11
1.45741e-11
-9.97017e-12
3.11825e-13
6.46417e-13
1.17417e-09
6.39145e-13
6.37201e-13
1.17397e-09
9.95375e-13
6.50468e-13
1.17373e-09
1.41514e-12
6.13523e-13
1.17367e-09
1.8937e-12
6.25772e-13
1.17386e-09
2.4839e-12
5.45947e-13
1.17437e-09
3.16089e-12
5.6346e-13
1.1752e-09