/*--------------------------------*- C++ -*----------------------------------*\
| =========                 |                                                 |
| \\      /  F ield         | OpenFOAM: The Open Source CFD Toolbox           |
|  \\    /   O peration     | Version:  2.1.1                                 |
|   \\  /    A nd           | Web:      www.OpenFOAM.org                      |
|    \\/     M anipulation  |                                                 |
\*---------------------------------------------------------------------------*/
FoamFile
{
    version     2.0;
    format      ascii;
    class       volScalarField;
    location    "0.002";
    object      Th;
}
// * * * * * * * * * * * * * * * * * * * * * * * * * * * * * * * * * * * * * //

dimensions      [0 0 0 0 0 0 0];

internalField   nonuniform List<scalar> 
10314
(
1.00002e-14
1e-14
1e-14
1e-14
1e-14
1e-14
1e-14
1e-14
1e-14
1e-14
1e-14
1.00001e-14
1.00002e-14
1.00611e-14
1.14182e-14
1e-14
1e-14
1e-14
1e-14
1e-14
1e-14
1e-14
1e-14
1e-14
1e-14
1.00001e-14
1.00001e-14
1.00004e-14
1.01974e-14
1.25863e-14
1e-14
1e-14
1e-14
1e-14
1e-14
1e-14
1e-14
1e-14
1e-14
1e-14
1.00001e-14
1.00001e-14
1.00001e-14
1.00106e-14
1.19199e-14
1e-14
1e-14
1e-14
1e-14
1e-14
1.00001e-14
1.00001e-14
1e-14
1e-14
1e-14
1.00001e-14
1e-14
1.00023e-14
1e-14
1.00434e-14
1e-14
1e-14
1e-14
1e-14
1.00001e-14
1.00001e-14
1e-14
1e-14
1e-14
1e-14
1e-14
1e-14
1.00038e-14
1e-14
1e-14
1e-14
1e-14
1e-14
1.00001e-14
1.00001e-14
1e-14
1e-14
1e-14
1e-14
1e-14
1e-14
1.00004e-14
1.03296e-14
1.15129e-14
1e-14
1e-14
1e-14
1.00001e-14
1e-14
1e-14
1e-14
1e-14
1e-14
1.00001e-14
1e-14
1.00036e-14
1.00045e-14
1e-14
1e-14
1e-14
1e-14
1e-14
1e-14
1e-14
1e-14
1e-14
1e-14
1.00001e-14
1.00003e-14
1.04456e-14
1.08699e-14
5.31392e-13
1e-14
1e-14
1e-14
1e-14
1e-14
1e-14
1e-14
1e-14
1e-14
1e-14
1.00035e-14
1e-14
1.39718e-14
1e-14
1e-14
1e-14
1e-14
1e-14
1e-14
1.00001e-14
1.00001e-14
1e-14
1.00038e-14
1e-14
1e-14
1e-14
1.00001e-14
1.00001e-14
1e-14
1e-14
1e-14
1e-14
1.00003e-14
1.00035e-14
1e-14
1e-14
1.00001e-14
1.00001e-14
1.00001e-14
1e-14
1e-14
1.00004e-14
1.00036e-14
1.04453e-14
1e-14
1e-14
1.00002e-14
1.00004e-14
1.00001e-14
1.00023e-14
1.00038e-14
1.03295e-14
1.00045e-14
1.08698e-14
1.39727e-14
1.00611e-14
1.01974e-14
1.00106e-14
1e-14
1e-14
1.15128e-14
1e-14
5.31396e-13
1.14175e-14
1.2585e-14
1.19188e-14
1.00434e-14
1e-14
1e-14
1e-14
1e-14
1e-14
1e-14
1e-14
1e-14
1e-14
1e-14
1e-14
1e-14
1.00001e-14
1.00001e-14
1.00533e-14
1.14268e-14
1e-14
1e-14
1e-14
1e-14
1e-14
1e-14
1e-14
1e-14
1e-14
1e-14
1.00001e-14
1.00001e-14
1.00002e-14
1.0179e-14
1.25519e-14
1e-14
1e-14
1e-14
1e-14
1e-14
1e-14
1e-14
1e-14
1e-14
1e-14
1e-14
1e-14
1e-14
1.00084e-14
1.27126e-14
1e-14
1e-14
1e-14
1e-14
1e-14
1e-14
1e-14
1e-14
1e-14
1e-14
1.00001e-14
1e-14
1.0002e-14
1e-14
1.00386e-14
1e-14
1e-14
1e-14
1e-14
1e-14
1e-14
1e-14
1e-14
1e-14
1e-14
1e-14
1e-14
1.00033e-14
1e-14
1e-14
1e-14
1e-14
1e-14
1e-14
1e-14
1e-14
1e-14
1e-14
1e-14
1e-14
1e-14
1.00002e-14
1.03067e-14
1.14899e-14
1e-14
1e-14
1e-14
1e-14
1e-14
1e-14
1e-14
1e-14
1e-14
1e-14
1e-14
1.00032e-14
1.00046e-14
1e-14
1e-14
1e-14
1e-14
1e-14
1e-14
1e-14
1e-14
1e-14
1e-14
1e-14
1.00002e-14
1.04151e-14
1.08449e-14
5.33215e-13
1e-14
1e-14
1e-14
1e-14
1e-14
1e-14
1e-14
1e-14
1e-14
1e-14
1.00029e-14
1e-14
1.51371e-14
1e-14
1e-14
1e-14
1e-14
1e-14
1e-14
1e-14
1e-14
1e-14
1.00032e-14
1e-14
1e-14
1e-14
1.00001e-14
1e-14
1e-14
1e-14
1e-14
1e-14
1.00002e-14
1.00029e-14
1e-14
1e-14
1.00001e-14
1.00001e-14
1e-14
1e-14
1e-14
1.00002e-14
1.00032e-14
1.04149e-14
1e-14
1e-14
1.00001e-14
1.00002e-14
1e-14
1.0002e-14
1.00033e-14
1.03067e-14
1.00046e-14
1.08448e-14
1.51362e-14
1.00532e-14
1.0179e-14
1.00084e-14
1e-14
1e-14
1.14898e-14
1e-14
5.3322e-13
1.14263e-14
1.25508e-14
1.27111e-14
1.00386e-14
1e-14
1e-14
1e-14
1e-14
1e-14
1e-14
1e-14
1e-14
1e-14
1e-14
1e-14
1e-14
1e-14
1e-14
1.00519e-14
1.14431e-14
1e-14
1e-14
1e-14
1e-14
1e-14
1e-14
1e-14
1e-14
1e-14
1e-14
1e-14
1e-14
1e-14
1.01754e-14
1.25677e-14
1e-14
1e-14
1e-14
1e-14
1e-14
1e-14
1e-14
1e-14
1e-14
1e-14
1e-14
1e-14
1e-14
1.00081e-14
1.29031e-14
1e-14
1e-14
1e-14
1e-14
1e-14
1e-14
1e-14
1e-14
1e-14
1e-14
1e-14
1e-14
1.00019e-14
1e-14
1.00383e-14
1e-14
1e-14
1e-14
1e-14
1e-14
1e-14
1e-14
1e-14
1e-14
1e-14
1e-14
1e-14
1.00032e-14
1e-14
1e-14
1e-14
1e-14
1e-14
1e-14
1e-14
1e-14
1e-14
1e-14
1e-14
1e-14
1e-14
1.00001e-14
1.03031e-14
1.14999e-14
1e-14
1e-14
1e-14
1e-14
1e-14
1e-14
1e-14
1e-14
1e-14
1e-14
1e-14
1.00031e-14
1.00044e-14
1e-14
1e-14
1e-14
1e-14
1e-14
1e-14
1e-14
1e-14
1e-14
1e-14
1e-14
1.00001e-14
1.04106e-14
1.08447e-14
5.33494e-13
1e-14
1e-14
1e-14
1e-14
1e-14
1e-14
1e-14
1e-14
1e-14
1e-14
1.00028e-14
1e-14
1.54099e-14
1e-14
1e-14
1e-14
1e-14
1e-14
1e-14
1e-14
1e-14
1e-14
1.00032e-14
1e-14
1e-14
1e-14
1e-14
1e-14
1e-14
1e-14
1e-14
1e-14
1.00001e-14
1.00028e-14
1e-14
1e-14
1e-14
1e-14
1e-14
1e-14
1e-14
1.00001e-14
1.00031e-14
1.04105e-14
1e-14
1e-14
1e-14
1e-14
1e-14
1.00019e-14
1.00032e-14
1.03031e-14
1.00044e-14
1.08446e-14
1.54085e-14
1.0052e-14
1.01756e-14
1.00081e-14
1e-14
1e-14
1.14998e-14
1e-14
5.33498e-13
1.14427e-14
1.25672e-14
1.2902e-14
1.00383e-14
1e-14
1e-14
1e-14
1e-14
1e-14
1e-14
1e-14
1e-14
1.00001e-14
1.00001e-14
1e-14
1e-14
1e-14
1e-14
1.00518e-14
1.14451e-14
1e-14
1e-14
1e-14
1e-14
1e-14
1e-14
1e-14
1e-14
1e-14
1e-14
1e-14
1e-14
1e-14
1.01759e-14
1.25726e-14
1e-14
1e-14
1e-14
1e-14
1e-14
1e-14
1e-14
1e-14
1e-14
1e-14
1e-14
1e-14
1e-14
1.00081e-14
1.2951e-14
1e-14
1e-14
1e-14
1e-14
1e-14
1e-14
1e-14
1e-14
1e-14
1e-14
1e-14
1e-14
1.00019e-14
1e-14
1.0038e-14
1e-14
1e-14
1e-14
1e-14
1e-14
1e-14
1e-14
1e-14
1e-14
1e-14
1e-14
1e-14
1.00033e-14
1e-14
1e-14
1e-14
1e-14
1e-14
1e-14
1e-14
1e-14
1e-14
1e-14
1e-14
1e-14
1e-14
1e-14
1.03026e-14
1.15004e-14
1e-14
1e-14
1e-14
1e-14
1e-14
1e-14
1e-14
1e-14
1e-14
1e-14
1e-14
1.0003e-14
1.0004e-14
1e-14
1.00001e-14
1e-14
1e-14
1e-14
1e-14
1e-14
1e-14
1e-14
1e-14
1e-14
1e-14
1.04095e-14
1.08401e-14
5.33603e-13
1.00001e-14
1e-14
1e-14
1e-14
1e-14
1e-14
1e-14
1e-14
1e-14
1e-14
1.00027e-14
1e-14
1.54393e-14
1e-14
1e-14
1e-14
1e-14
1e-14
1e-14
1e-14
1e-14
1e-14
1.00032e-14
1e-14
1e-14
1e-14
1e-14
1e-14
1e-14
1e-14
1e-14
1e-14
1e-14
1.00027e-14
1e-14
1e-14
1e-14
1e-14
1e-14
1e-14
1e-14
1e-14
1.0003e-14
1.04093e-14
1e-14
1e-14
1e-14
1e-14
1e-14
1.00019e-14
1.00033e-14
1.03026e-14
1.0004e-14
1.08401e-14
1.54374e-14
1.00519e-14
1.01761e-14
1.00082e-14
1e-14
1e-14
1.15003e-14
1e-14
5.33606e-13
1.1445e-14
1.25737e-14
1.29504e-14
1.0038e-14
1e-14
1e-14
1e-14
1e-14
1e-14
1e-14
1.00001e-14
1.00001e-14
1e-14
1e-14
1e-14
1e-14
1.00001e-14
1e-14
1.00549e-14
1.14442e-14
1e-14
1e-14
1e-14
1e-14
1e-14
1e-14
1e-14
1e-14
1e-14
1e-14
1e-14
1e-14
1e-14
1.01825e-14
1.25845e-14
1e-14
1e-14
1e-14
1e-14
1e-14
1e-14
1e-14
1e-14
1e-14
1e-14
1e-14
1e-14
1e-14
1.00085e-14
1.30273e-14
1e-14
1e-14
1e-14
1e-14
1e-14
1e-14
1e-14
1e-14
1e-14
1e-14
1e-14
1e-14
1.00019e-14
1e-14
1.00372e-14
1e-14
1e-14
1e-14
1e-14
1e-14
1e-14
1e-14
1e-14
1e-14
1e-14
1e-14
1e-14
1.00035e-14
1e-14
1e-14
1.00001e-14
1e-14
1e-14
1e-14
1e-14
1e-14
1e-14
1e-14
1e-14
1e-14
1e-14
1e-14
1.0304e-14
1.14984e-14
1.00001e-14
1e-14
1e-14
1e-14
1e-14
1e-14
1e-14
1e-14
1e-14
1e-14
1e-14
1.00028e-14
1.00036e-14
1e-14
1e-14
1e-14
1e-14
1e-14
1e-14
1e-14
1e-14
1e-14
1e-14
1e-14
1e-14
1.04014e-14
1.08309e-14
5.33668e-13
1e-14
1e-14
1e-14
1e-14
1e-14
1e-14
1e-14
1e-14
1e-14
1e-14
1.00027e-14
1e-14
1.54555e-14
1e-14
1e-14
1e-14
1e-14
1e-14
1e-14
1e-14
1e-14
1e-14
1.00032e-14
1e-14
1e-14
1e-14
1e-14
1e-14
1e-14
1e-14
1e-14
1e-14
1e-14
1.00027e-14
1e-14
1e-14
1.00001e-14
1e-14
1e-14
1e-14
1e-14
1e-14
1.00028e-14
1.04013e-14
1e-14
1e-14
1e-14
1e-14
1e-14
1.00019e-14
1.00035e-14
1.03039e-14
1.00036e-14
1.08308e-14
1.54536e-14
1.0055e-14
1.01826e-14
1.00085e-14
1e-14
1e-14
1.14983e-14
1e-14
5.33671e-13
1.14437e-14
1.25856e-14
1.30269e-14
1.00372e-14
1e-14
1e-14
1e-14
1e-14
1e-14
1e-14
1.00001e-14
1e-14
1e-14
1e-14
1e-14
1.00001e-14
1.00001e-14
1e-14
1.00447e-14
1.14226e-14
1e-14
1e-14
1e-14
1e-14
1e-14
1e-14
1e-14
1e-14
1e-14
1e-14
1e-14
1e-14
1e-14
1.01854e-14
1.26114e-14
1e-14
1e-14
1e-14
1e-14
1e-14
1e-14
1e-14
1e-14
1e-14
1e-14
1e-14
1e-14
1e-14
1.00094e-14
1.3411e-14
1e-14
1e-14
1e-14
1e-14
1e-14
1e-14
1e-14
1e-14
1e-14
1e-14
1e-14
1e-14
1.00019e-14
1e-14
1.00344e-14
1e-14
1e-14
1e-14
1e-14
1e-14
1e-14
1e-14
1e-14
1e-14
1e-14
1e-14
1e-14
1.00029e-14
1e-14
1e-14
1.00001e-14
1e-14
1e-14
1e-14
1e-14
1e-14
1e-14
1e-14
1e-14
1e-14
1e-14
1e-14
1.03036e-14
1.14822e-14
1e-14
1e-14
1e-14
1e-14
1e-14
1e-14
1e-14
1e-14
1.00001e-14
1e-14
1e-14
1.00024e-14
1.00029e-14
1e-14
1e-14
1e-14
1e-14
1e-14
1e-14
1e-14
1e-14
1.00001e-14
1e-14
1e-14
1e-14
1.04482e-14
1.08058e-14
5.33589e-13
1e-14
1e-14
1e-14
1e-14
1e-14
1e-14
1.00001e-14
1e-14
1e-14
1e-14
1.00034e-14
1e-14
1.54705e-14
1e-14
1e-14
1e-14
1e-14
1e-14
1e-14
1e-14
1e-14
1e-14
1.00035e-14
1e-14
1e-14
1.00001e-14
1e-14
1e-14
1e-14
1e-14
1e-14
1e-14
1e-14
1.00034e-14
1e-14
1e-14
1.00001e-14
1e-14
1e-14
1e-14
1e-14
1e-14
1.00024e-14
1.04481e-14
1e-14
1e-14
1e-14
1e-14
1e-14
1.00019e-14
1.00029e-14
1.03036e-14
1.00029e-14
1.08058e-14
1.54684e-14
1.00447e-14
1.01854e-14
1.00094e-14
1e-14
1e-14
1.14822e-14
1e-14
5.33592e-13
1.14224e-14
1.26118e-14
1.34104e-14
1.00344e-14
1e-14
1e-14
1e-14
1e-14
1.00001e-14
1.00002e-14
1.00001e-14
1e-14
1e-14
1.00001e-14
1e-14
1.00001e-14
1e-14
1e-14
1.01291e-14
1.08304e-14
1e-14
1e-14
1e-14
1e-14
1e-14
1e-14
1e-14
1e-14
1e-14
1e-14
1e-14
1e-14
1e-14
1.03135e-14
1.24795e-14
1e-14
1e-14
1e-14
1e-14
1e-14
1e-14
1e-14
1e-14
1e-14
1e-14
1e-14
1e-14
1e-14
1.00206e-14
1.36908e-14
1.00001e-14
1e-14
1e-14
1e-14
1e-14
1e-14
1e-14
1e-14
1e-14
1e-14
1e-14
1e-14
1.00021e-14
1e-14
1e-14
1.00002e-14
1e-14
1e-14
1e-14
1.00001e-14
1e-14
1e-14
1e-14
1e-14
1e-14
1e-14
1e-14
1.00084e-14
1e-14
1e-14
1.00001e-14
1e-14
1e-14
1e-14
1e-14
1e-14
1e-14
1e-14
1e-14
1e-14
1e-14
1e-14
1.03625e-14
1.13212e-14
1e-14
1e-14
1e-14
1e-14
1e-14
1e-14
1e-14
1e-14
1e-14
1e-14
1e-14
1.00028e-14
1.00029e-14
1e-14
1e-14
1e-14
1e-14
1e-14
1e-14
1e-14
1e-14
1e-14
1e-14
1e-14
1e-14
1.03396e-14
1.0852e-14
5.29911e-13
1.00001e-14
1e-14
1e-14
1e-14
1e-14
1e-14
1e-14
1e-14
1e-14
1e-14
1e-14
1e-14
1.32764e-14
1e-14
1e-14
1e-14
1e-14
1e-14
1e-14
1e-14
1e-14
1e-14
1.00008e-14
1e-14
1e-14
1.00001e-14
1e-14
1e-14
1e-14
1e-14
1e-14
1e-14
1e-14
1e-14
1e-14
1e-14
1e-14
1e-14
1e-14
1e-14
1e-14
1e-14
1.00028e-14
1.03396e-14
1e-14
1e-14
1e-14
1e-14
1e-14
1.00021e-14
1.00084e-14
1.03625e-14
1.00029e-14
1.0852e-14
1.32762e-14
1.01291e-14
1.03136e-14
1.00206e-14
1e-14
1e-14
1.13212e-14
1e-14
5.29914e-13
1.08304e-14
1.24797e-14
1.36905e-14
1e-14
1e-14
1e-14
1e-14
1e-14
1e-14
1.00001e-14
1.00001e-14
1e-14
1e-14
1e-14
1.00001e-14
1.00001e-14
1.00001e-14
1e-14
1.00253e-14
1e-14
1e-14
1e-14
1e-14
1e-14
1e-14
1e-14
1e-14
1e-14
1e-14
1e-14
1e-14
1e-14
1e-14
1.00407e-14
1e-14
1e-14
1e-14
1e-14
1e-14
1e-14
1e-14
1e-14
1e-14
1e-14
1e-14
1e-14
1e-14
1e-14
1e-14
1.20757e-14
1e-14
1e-14
1e-14
1e-14
1.00001e-14
1e-14
1e-14
1e-14
1e-14
1e-14
1e-14
1e-14
1.00003e-14
1.00026e-14
1.00092e-14
1.00001e-14
1e-14
1e-14
1.00001e-14
1e-14
1e-14
1e-14
1e-14
1e-14
1e-14
1e-14
1e-14
1.00014e-14
1.00149e-14
1e-14
1.00001e-14
1e-14
1e-14
1e-14
1e-14
1e-14
1e-14
1e-14
1e-14
1e-14
1e-14
1e-14
1.00321e-14
1e-14
1e-14
1e-14
1e-14
1e-14
1e-14
1e-14
1e-14
1e-14
1e-14
1e-14
1e-14
1.00003e-14
1e-14
1e-14
1e-14
1e-14
1e-14
1e-14
1e-14
1e-14
1e-14
1e-14
1e-14
1e-14
1e-14
1.00239e-14
1e-14
1e-14
1e-14
1e-14
1e-14
1e-14
1e-14
1e-14
1e-14
1e-14
1e-14
1e-14
1e-14
1e-14
1e-14
1.00001e-14
1e-14
1e-14
1e-14
1e-14
1e-14
1e-14
1e-14
1e-14
1e-14
1.00002e-14
1.06009e-14
1.00001e-14
1e-14
1e-14
1e-14
1e-14
1e-14
1e-14
1e-14
1e-14
1.00002e-14
1.02783e-14
1.00001e-14
1e-14
1e-14
1e-14
1e-14
1e-14
1.00003e-14
1.00239e-14
1e-14
1.06005e-14
1e-14
1e-14
1e-14
1.00003e-14
1.00014e-14
1.00321e-14
1e-14
1e-14
1e-14
1.00253e-14
1.00407e-14
1e-14
1.00026e-14
1.00149e-14
1e-14
1e-14
1e-14
1e-14
1e-14
1.20757e-14
1.00092e-14
1e-14
1e-14
1e-14
1e-14
1e-14
1e-14
1e-14
1e-14
1e-14
1e-14
1e-14
1e-14
1e-14
1e-14
1.00038e-14
1e-14
1e-14
1e-14
1e-14
1e-14
1e-14
1e-14
1e-14
1e-14
1e-14
1e-14
1e-14
1e-14
1e-14
1.00057e-14
1e-14
1e-14
1e-14
1e-14
1e-14
1e-14
1e-14
1e-14
1e-14
1e-14
1e-14
1e-14
1e-14
1e-14
1e-14
1.00301e-14
1e-14
1e-14
1e-14
1e-14
1e-14
1e-14
1e-14
1e-14
1e-14
1e-14
1e-14
1e-14
1e-14
1e-14
1.00038e-14
1e-14
1e-14
1e-14
1e-14
1e-14
1e-14
1e-14
1e-14
1e-14
1e-14
1e-14
1e-14
1.00002e-14
1e-14
1.00009e-14
1e-14
1e-14
1e-14
1e-14
1e-14
1e-14
1e-14
1e-14
1e-14
1e-14
1e-14
1e-14
1.00037e-14
1e-14
1e-14
1e-14
1e-14
1e-14
1e-14
1e-14
1e-14
1e-14
1e-14
1e-14
1e-14
1e-14
1.00001e-14
1.00008e-14
1e-14
1e-14
1e-14
1e-14
1e-14
1e-14
1e-14
1e-14
1e-14
1e-14
1e-14
1.00024e-14
1e-14
1e-14
1e-14
1e-14
1e-14
1e-14
1e-14
1e-14
1e-14
1e-14
1e-14
1e-14
1.00001e-14
1.00001e-14
1e-14
1e-14
1e-14
1e-14
1e-14
1e-14
1e-14
1e-14
1e-14
1e-14
1e-14
1.0003e-14
1e-14
1e-14
1e-14
1e-14
1e-14
1e-14
1e-14
1e-14
1e-14
1e-14
1.00016e-14
1e-14
1e-14
1e-14
1e-14
1e-14
1e-14
1e-14
1.00024e-14
1.00001e-14
1.0003e-14
1e-14
1e-14
1e-14
1e-14
1.00002e-14
1.00037e-14
1.00001e-14
1e-14
1.00001e-14
1.00038e-14
1.00057e-14
1e-14
1e-14
1e-14
1e-14
1.00008e-14
1e-14
1e-14
1.00301e-14
1.00038e-14
1.00009e-14
1e-14
1e-14
1e-14
1e-14
1e-14
1e-14
1e-14
1e-14
1e-14
1e-14
1e-14
1e-14
1e-14
1.00005e-14
1e-14
1e-14
1e-14
1e-14
1e-14
1e-14
1e-14
1e-14
1e-14
1e-14
1e-14
1e-14
1e-14
1e-14
1.00007e-14
1e-14
1e-14
1e-14
1e-14
1.00001e-14
1e-14
1e-14
1e-14
1e-14
1e-14
1e-14
1e-14
1e-14
1e-14
1e-14
1.00002e-14
1e-14
1e-14
1.00001e-14
1e-14
1e-14
1e-14
1e-14
1e-14
1e-14
1e-14
1e-14
1e-14
1e-14
1e-14
1e-14
1e-14
1e-14
1e-14
1e-14
1e-14
1e-14
1e-14
1e-14
1e-14
1e-14
1e-14
1e-14
1e-14
1e-14
1e-14
1e-14
1e-14
1e-14
1e-14
1e-14
1e-14
1e-14
1e-14
1e-14
1e-14
1e-14
1e-14
1.00003e-14
1.00001e-14
1e-14
1e-14
1e-14
1e-14
1e-14
1e-14
1e-14
1e-14
1e-14
1e-14
1e-14
1e-14
1e-14
1e-14
1e-14
1e-14
1e-14
1e-14
1e-14
1e-14
1e-14
1e-14
1e-14
1e-14
1e-14
1.00002e-14
1.00001e-14
1e-14
1e-14
1e-14
1e-14
1e-14
1e-14
1e-14
1e-14
1e-14
1e-14
1e-14
1.00002e-14
1e-14
1e-14
1e-14
1e-14
1e-14
1e-14
1e-14
1e-14
1e-14
1e-14
1e-14
1e-14
1e-14
1e-14
1e-14
1e-14
1e-14
1e-14
1e-14
1e-14
1e-14
1e-14
1e-14
1e-14
1e-14
1e-14
1e-14
1e-14
1e-14
1e-14
1e-14
1.00002e-14
1.00002e-14
1e-14
1e-14
1e-14
1e-14
1e-14
1e-14
1.00003e-14
1e-14
1.00001e-14
1e-14
1.00005e-14
1.00007e-14
1e-14
1e-14
1e-14
1.00001e-14
1e-14
1e-14
1e-14
1.00002e-14
1e-14
1e-14
1e-14
1e-14
1e-14
1e-14
1e-14
1e-14
1e-14
1e-14
1e-14
1e-14
1e-14
1e-14
1e-14
1e-14
1e-14
1e-14
1.00001e-14
1.00001e-14
1e-14
1e-14
1e-14
1e-14
1e-14
1e-14
1e-14
1e-14
1e-14
1e-14
1.00001e-14
1e-14
1e-14
1.00001e-14
1.00001e-14
1e-14
1e-14
1e-14
1e-14
1e-14
1e-14
1e-14
1e-14
1e-14
1e-14
1e-14
1e-14
1e-14
1e-14
1e-14
1e-14
1e-14
1e-14
1e-14
1e-14
1e-14
1e-14
1e-14
1e-14
1e-14
1e-14
1e-14
1e-14
1e-14
1e-14
1e-14
1e-14
1e-14
1e-14
1e-14
1e-14
1e-14
1e-14
1e-14
1e-14
1e-14
1e-14
1e-14
1e-14
1e-14
1e-14
1e-14
1e-14
1e-14
1e-14
1e-14
1e-14
1e-14
1e-14
1e-14
1.00001e-14
1e-14
1e-14
1e-14
1e-14
1e-14
1e-14
1e-14
1e-14
1e-14
1e-14
1e-14
1e-14
1e-14
1e-14
1e-14
1e-14
1e-14
1e-14
1e-14
1e-14
1e-14
1e-14
1e-14
1e-14
1e-14
1e-14
1e-14
1e-14
1e-14
1e-14
1e-14
1e-14
1e-14
1e-14
1e-14
1e-14
1e-14
1e-14
1e-14
1e-14
1e-14
1e-14
1e-14
1e-14
1e-14
1e-14
1e-14
1e-14
1e-14
1e-14
1e-14
1e-14
1e-14
1e-14
1e-14
1e-14
1e-14
1e-14
1e-14
1e-14
1e-14
1e-14
1e-14
1e-14
1e-14
1e-14
1e-14
1e-14
1e-14
1e-14
1e-14
1e-14
1e-14
1e-14
1e-14
1e-14
1e-14
1e-14
1e-14
1e-14
1e-14
1e-14
1e-14
1.00001e-14
1e-14
1e-14
1e-14
1.00001e-14
1e-14
1e-14
1e-14
1e-14
1e-14
1e-14
1.00001e-14
1.00001e-14
1.00001e-14
1e-14
1e-14
1e-14
1e-14
1e-14
1e-14
1e-14
1e-14
1e-14
1e-14
1e-14
1e-14
1.00001e-14
1.00001e-14
1.00001e-14
1e-14
1e-14
1e-14
1e-14
1e-14
1e-14
1e-14
1e-14
1e-14
1e-14
1e-14
1e-14
1.00001e-14
1.00001e-14
1e-14
1e-14
1e-14
1e-14
1e-14
1e-14
1e-14
1e-14
1e-14
1e-14
1e-14
1e-14
1e-14
1e-14
1e-14
1e-14
1e-14
1e-14
1e-14
1e-14
1e-14
1e-14
1e-14
1e-14
1e-14
1e-14
1e-14
1e-14
1e-14
1e-14
1e-14
1e-14
1e-14
1e-14
1e-14
1e-14
1e-14
1e-14
1e-14
1e-14
1e-14
1e-14
1e-14
1e-14
1e-14
1e-14
1e-14
1e-14
1e-14
1e-14
1e-14
1e-14
1e-14
1e-14
1e-14
1e-14
1.00001e-14
1e-14
1e-14
1e-14
1e-14
1e-14
1e-14
1e-14
1e-14
1e-14
1e-14
1e-14
1e-14
1e-14
1e-14
1e-14
1e-14
1e-14
1e-14
1e-14
1e-14
1e-14
1e-14
1e-14
1e-14
1e-14
1e-14
1.00002e-14
1e-14
1e-14
1e-14
1e-14
1e-14
1e-14
1e-14
1e-14
1e-14
1e-14
1e-14
1e-14
1e-14
1e-14
1e-14
1e-14
1e-14
1e-14
1e-14
1e-14
1e-14
1e-14
1e-14
1e-14
1.00001e-14
1e-14
1e-14
1e-14
1e-14
1e-14
1e-14
1e-14
1e-14
1e-14
1e-14
1e-14
1e-14
1e-14
1e-14
1e-14
1e-14
1e-14
1e-14
1e-14
1e-14
1.00001e-14
1e-14
1e-14
1e-14
1e-14
1e-14
1e-14
1e-14
1.00002e-14
1e-14
1e-14
1e-14
1e-14
1e-14
1e-14
1.00001e-14
1e-14
1e-14
1e-14
1e-14
1e-14
1e-14
1.00001e-14
1.00001e-14
1.00001e-14
1e-14
1e-14
1e-14
1e-14
1e-14
1e-14
1.00001e-14
1.00001e-14
1e-14
1e-14
1e-14
1e-14
1.00001e-14
1.00001e-14
1e-14
1e-14
1e-14
1e-14
1e-14
1e-14
1e-14
1e-14
1e-14
1e-14
1e-14
1e-14
1e-14
1.00001e-14
1e-14
1e-14
1e-14
1e-14
1e-14
1e-14
1e-14
1.00001e-14
1e-14
1e-14
1e-14
1e-14
1e-14
1e-14
1e-14
1e-14
1e-14
1e-14
1e-14
1e-14
1e-14
1e-14
1e-14
1e-14
1e-14
1e-14
1e-14
1e-14
1e-14
1e-14
1e-14
1e-14
1e-14
1e-14
1e-14
1e-14
1e-14
1e-14
1e-14
1e-14
1e-14
1e-14
1e-14
1e-14
1e-14
1e-14
1e-14
1e-14
1e-14
1e-14
1e-14
1e-14
1e-14
1e-14
1e-14
1e-14
1e-14
1.00001e-14
1e-14
1e-14
1e-14
1e-14
1e-14
1e-14
1e-14
1e-14
1e-14
1e-14
1e-14
1e-14
1e-14
1e-14
1e-14
1e-14
1e-14
1e-14
1e-14
1e-14
1e-14
1e-14
1e-14
1e-14
1e-14
1e-14
1.00001e-14
1e-14
1e-14
1.00001e-14
1e-14
1e-14
1e-14
1e-14
1e-14
1e-14
1e-14
1e-14
1.00001e-14
1e-14
1.00001e-14
1e-14
1e-14
1e-14
1e-14
1e-14
1e-14
1e-14
1e-14
1e-14
1e-14
1.00001e-14
1.00001e-14
1e-14
1e-14
1e-14
1e-14
1e-14
1e-14
1e-14
1e-14
1e-14
1e-14
1e-14
1e-14
1e-14
1e-14
1e-14
1e-14
1e-14
1e-14
1.00001e-14
1.00001e-14
1e-14
1e-14
1e-14
1e-14
1e-14
1e-14
1e-14
1.00001e-14
1e-14
1e-14
1e-14
1e-14
1e-14
1e-14
1.00001e-14
1e-14
1e-14
1e-14
1e-14
1e-14
1e-14
1e-14
1.00001e-14
1.00001e-14
1.00001e-14
1e-14
1e-14
1e-14
1e-14
1e-14
1.00001e-14
1.00001e-14
1e-14
1e-14
1e-14
1.00001e-14
1.00001e-14
1e-14
1e-14
1e-14
1e-14
1e-14
1e-14
1e-14
1.00001e-14
1e-14
1e-14
1e-14
1e-14
1e-14
1e-14
1.00001e-14
1e-14
1e-14
1e-14
1e-14
1e-14
1e-14
1.00001e-14
1e-14
1e-14
1e-14
1e-14
1e-14
1e-14
1e-14
1.00001e-14
1e-14
1e-14
1e-14
1e-14
1e-14
1.00001e-14
1e-14
1e-14
1e-14
1e-14
1e-14
1e-14
1e-14
1e-14
1e-14
1e-14
1e-14
1e-14
1e-14
1e-14
1e-14
1e-14
1e-14
1e-14
1e-14
1e-14
1e-14
1e-14
1e-14
1e-14
1e-14
1e-14
1e-14
1e-14
1e-14
1e-14
1e-14
1e-14
1e-14
1e-14
1e-14
1e-14
1.00002e-14
1e-14
1e-14
1e-14
1.00001e-14
1e-14
1e-14
1e-14
1e-14
1e-14
1e-14
1e-14
1e-14
1.00001e-14
1e-14
1e-14
1e-14
1.00001e-14
1e-14
1e-14
1e-14
1e-14
1e-14
1e-14
1e-14
1e-14
1e-14
1.00002e-14
1e-14
1.00001e-14
1e-14
1e-14
1e-14
1e-14
1e-14
1e-14
1e-14
1e-14
1e-14
1e-14
1e-14
1.00001e-14
1e-14
1e-14
1e-14
1e-14
1e-14
1e-14
1e-14
1e-14
1e-14
1e-14
1.00002e-14
1.00001e-14
1e-14
1e-14
1e-14
1e-14
1e-14
1e-14
1e-14
1e-14
1e-14
1.00001e-14
1e-14
1e-14
1e-14
1e-14
1e-14
1e-14
1e-14
1e-14
1e-14
1.00002e-14
1e-14
1e-14
1e-14
1e-14
1e-14
1e-14
1.00001e-14
1.00002e-14
1e-14
1e-14
1e-14
1e-14
1e-14
1e-14
1.00002e-14
1e-14
1.00001e-14
1e-14
1e-14
1e-14
1e-14
1e-14
1.00001e-14
1.00001e-14
1e-14
1e-14
1e-14
1e-14
1e-14
1e-14
1e-14
1e-14
1e-14
1e-14
1e-14
1e-14
1.00001e-14
1e-14
1e-14
1e-14
1e-14
1e-14
1e-14
1e-14
1e-14
1e-14
1e-14
1e-14
1e-14
1e-14
1e-14
1.00001e-14
1e-14
1e-14
1e-14
1e-14
1e-14
1e-14
1.00001e-14
1e-14
1e-14
1e-14
1e-14
1e-14
1e-14
1e-14
1e-14
1e-14
1e-14
1e-14
1e-14
1e-14
1e-14
1e-14
1e-14
1e-14
1e-14
1e-14
1e-14
1e-14
1e-14
1e-14
1e-14
1e-14
1e-14
1.00001e-14
1e-14
1e-14
1e-14
1e-14
1e-14
1e-14
1e-14
1e-14
1e-14
1e-14
1e-14
1e-14
1e-14
1e-14
1e-14
1e-14
1e-14
1e-14
1e-14
1e-14
1e-14
1e-14
1e-14
1.00002e-14
1e-14
1e-14
1e-14
1e-14
1e-14
1e-14
1e-14
1e-14
1e-14
1e-14
1e-14
1e-14
1e-14
1e-14
1e-14
1e-14
1.00001e-14
1e-14
1e-14
1e-14
1e-14
1e-14
1e-14
1e-14
1e-14
1e-14
1.00001e-14
1e-14
1e-14
1e-14
1e-14
1e-14
1e-14
1e-14
1e-14
1e-14
1e-14
1.00001e-14
1.00001e-14
1e-14
1e-14
1e-14
1e-14
1e-14
1e-14
1e-14
1e-14
1e-14
1e-14
1.00001e-14
1.00001e-14
1e-14
1e-14
1e-14
1e-14
1e-14
1e-14
1e-14
1e-14
1e-14
1.00001e-14
1.00001e-14
1e-14
1e-14
1e-14
1e-14
1e-14
1e-14
1e-14
1e-14
1e-14
1.00001e-14
1e-14
1e-14
1e-14
1e-14
1e-14
1e-14
1e-14
1e-14
1.00001e-14
1e-14
1e-14
1e-14
1e-14
1e-14
1e-14
1.00002e-14
1e-14
1e-14
1e-14
1e-14
1e-14
1e-14
1.30165e-14
3.0878e-13
1.34737e-14
3.29543e-13
1.43507e-14
3.50212e-13
1.75352e-14
2.87745e-14
1.08894e-14
1.01281e-14
4.17281e-14
1.03241e-14
1.84456e-14
1.0056e-14
2.62069e-14
5.02385e-14
7.43096e-13
1.2432e-14
2.11178e-13
2.4547e-14
1.00266e-14
1.14654e-14
1.02769e-14
1.97079e-14
1.12975e-14
2.87221e-13
1.11206e-14
6.01799e-14
3.43792e-14
6.29986e-13
1.00809e-14
1.58752e-14
1.10863e-14
2.71324e-13
1e-14
2.502e-14
6.46375e-13
7.05223e-13
2.22256e-14
7.0422e-13
7.01625e-13
1.00808e-14
1.10851e-14
1.58741e-14
2.71336e-13
2.4998e-14
7.039e-13
6.46341e-13
1.00266e-14
1.02767e-14
1.14652e-14
1.97066e-14
1.11201e-14
3.43652e-14
6.01775e-14
1e-14
1.03241e-14
1.0056e-14
1.84451e-14
2.62053e-14
1.24318e-14
2.45463e-14
2.11176e-13
1.12975e-14
2.87215e-13
6.29986e-13
1.30158e-14
1.34679e-14
3.08913e-13
3.29517e-13
1.4348e-14
1.75372e-14
3.50191e-13
2.87774e-14
1.08893e-14
1.0128e-14
4.1729e-14
5.02367e-14
7.43097e-13
2.56789e-13
1.16665e-14
2.70262e-13
1.25892e-14
3.0589e-13
1.30009e-14
3.26495e-13
2.88996e-13
1.0064e-14
1.37352e-14
3.47142e-13
1.63405e-14
1e-14
2.56814e-14
1.06949e-14
1e-14
1.01346e-14
3.92316e-14
1.42527e-14
1.00501e-14
1e-14
1.02161e-14
1.70397e-14
1.00509e-14
2.50393e-14
6.93641e-13
4.77806e-14
7.40192e-13
1.77504e-13
1.08659e-14
1.2083e-14
2.10002e-13
2.25533e-14
1.03883e-14
1e-14
1.37511e-14
1.0017e-14
1.12196e-14
1.02155e-14
1.82925e-14
1.52899e-13
1.13214e-14
2.85385e-13
1e-14
1e-14
1.09471e-14
5.72335e-14
3.04104e-14
6.27482e-13
1.18914e-14
1.07699e-14
2.24616e-13
1.00581e-14
1.53384e-14
1.08781e-14
2.68534e-13
1e-14
5.56029e-13
4.17317e-13
2.19183e-14
6.42147e-13
7.04045e-13
4.34788e-13
4.33459e-13
1.94496e-14
7.02415e-13
6.99757e-13
1.07696e-14
1.18911e-14
2.24616e-13
1.0058e-14
1.0877e-14
1.53373e-14
2.68543e-13
4.16976e-13
5.56054e-13
2.1897e-14
7.02805e-13
6.42122e-13
1e-14
1.03883e-14
1.37508e-14
1.0017e-14
1.02154e-14
1.12195e-14
1.82916e-14
1e-14
1e-14
1.09471e-14
3.04016e-14
5.72343e-14
1e-14
1.00501e-14
1.42527e-14
1e-14
1.0216e-14
1.00509e-14
1.70393e-14
2.50373e-14
1.08659e-14
1.77504e-13
1.20828e-14
2.25526e-14
2.10001e-13
1.52905e-13
1.13213e-14
2.85383e-13
6.27484e-13
1.16646e-14
2.56921e-13
2.70293e-13
1.2589e-14
1.29964e-14
3.06021e-13
3.26476e-13
1.00641e-14
2.8902e-13
1.37331e-14
1.63423e-14
3.47127e-13
1e-14
2.56832e-14
1.06949e-14
1e-14
1.01345e-14
3.92322e-14
6.93638e-13
4.778e-14
7.40197e-13
2.57009e-13
1.16732e-14
2.70592e-13
1.25495e-14
3.05755e-13
1.29616e-14
3.26332e-13
2.89649e-13
1.01125e-14
1.37016e-14
3.4714e-13
1.60863e-14
1e-14
2.50647e-14
1.06773e-14
1e-14
1.01243e-14
3.91264e-14
1.42893e-14
1.00513e-14
1e-14
1.0198e-14
1.68731e-14
1.00495e-14
2.47234e-14
6.9186e-13
4.78335e-14
7.40028e-13
1.77998e-13
1.10747e-14
1.20576e-14
2.10059e-13
2.2324e-14
1.03613e-14
1e-14
1.40373e-14
1.0016e-14
1.12214e-14
1.01972e-14
1.81897e-14
1.55343e-13
1.14205e-14
2.84888e-13
1e-14
1e-14
1.09384e-14
5.80221e-14
2.96664e-14
6.27916e-13
1.18841e-14
1.07477e-14
2.25052e-13
1.00574e-14
1.53758e-14
1.08532e-14
2.68804e-13
1e-14
5.56665e-13
4.23234e-13
2.1046e-14
6.42715e-13
7.03173e-13
4.4086e-13
4.3951e-13
1.8746e-14
7.01606e-13
6.98963e-13
1.07475e-14
1.18839e-14
2.2505e-13
1.00573e-14
1.08522e-14
1.5375e-14
2.68811e-13
4.22899e-13
5.56677e-13
2.10265e-14
7.01944e-13
6.42691e-13
1e-14
1.03612e-14
1.4037e-14
1.0016e-14
1.01971e-14
1.12212e-14
1.81887e-14
1e-14
1e-14
1.09383e-14
2.96623e-14
5.80229e-14
1e-14
1.00513e-14
1.42892e-14
1e-14
1.0198e-14
1.00494e-14
1.68727e-14
2.47222e-14
1.10745e-14
1.77998e-13
1.20575e-14
2.23233e-14
2.10057e-13
1.55348e-13
1.14203e-14
2.84886e-13
6.27923e-13
1.16716e-14
2.57138e-13
2.70625e-13
1.25495e-14
1.29582e-14
3.05885e-13
3.26321e-13
1.01126e-14
2.89673e-13
1.37001e-14
1.60885e-14
3.47131e-13
1e-14
2.50662e-14
1.06772e-14
1e-14
1.01242e-14
3.91272e-14
6.91859e-13
4.78333e-14
7.40026e-13
2.57158e-13
1.16907e-14
2.7072e-13
1.25515e-14
3.0575e-13
1.29661e-14
3.26346e-13
2.89843e-13
1.0118e-14
1.37101e-14
3.47196e-13
1.60598e-14
1e-14
2.50331e-14
1.0675e-14
1e-14
1.01224e-14
3.90938e-14
1.43379e-14
1.00521e-14
1e-14
1.01956e-14
1.68624e-14
1.00492e-14
2.46483e-14
6.91076e-13
4.78886e-14
7.40043e-13
1.78069e-13
1.1097e-14
1.20613e-14
2.10156e-13
2.22928e-14
1.03626e-14
1e-14
1.41118e-14
1.0015e-14
1.12255e-14
1.0193e-14
1.81799e-14
1.5526e-13
1.14457e-14
2.84682e-13
1e-14
1e-14
1.09349e-14
5.84707e-14
2.95581e-14
6.28045e-13
1.18965e-14
1.07485e-14
2.25158e-13
1.00558e-14
1.53877e-14
1.08501e-14
2.68896e-13
1e-14
5.56504e-13
4.23191e-13
2.08923e-14
6.42815e-13
7.03091e-13
4.40926e-13
4.39594e-13
1.86198e-14
7.01469e-13
6.9882e-13
1.07484e-14
1.18964e-14
2.25154e-13
1.00557e-14
1.08491e-14
1.53869e-14
2.689e-13
4.22868e-13
5.56517e-13
2.08732e-14
7.01851e-13
6.42791e-13
1e-14
1.03625e-14
1.41114e-14
1.0015e-14
1.01929e-14
1.12254e-14
1.81792e-14
1e-14
1e-14
1.09348e-14
2.95544e-14
5.84723e-14
1e-14
1.00521e-14
1.43379e-14
1e-14
1.01955e-14
1.00492e-14
1.68618e-14
2.46469e-14
1.10969e-14
1.78069e-13
1.20612e-14
2.22922e-14
2.10155e-13
1.55266e-13
1.14457e-14
2.84681e-13
6.28043e-13
1.16898e-14
2.57286e-13
2.70759e-13
1.25524e-14
1.29659e-14
3.05883e-13
3.26351e-13
1.01183e-14
2.8987e-13
1.37107e-14
1.60631e-14
3.472e-13
1e-14
2.50341e-14
1.0675e-14
1e-14
1.01223e-14
3.90941e-14
6.9108e-13
4.7888e-14
7.40043e-13
2.57108e-13
1.16942e-14
2.7068e-13
1.25622e-14
3.05778e-13
1.2981e-14
3.26407e-13
2.89809e-13
1.01123e-14
1.37371e-14
3.4725e-13
1.61113e-14
1e-14
2.51258e-14
1.06742e-14
1e-14
1.01255e-14
3.90428e-14
1.43486e-14
1.00519e-14
1e-14
1.01943e-14
1.68722e-14
1.00492e-14
2.45407e-14
6.9087e-13
4.79123e-14
7.40046e-13
1.78118e-13
1.1069e-14
1.20644e-14
2.10307e-13
2.22869e-14
1.03638e-14
1e-14
1.41012e-14
1.00141e-14
1.12267e-14
1.01891e-14
1.81578e-14
1.55056e-13
1.14668e-14
2.84487e-13
1e-14
1e-14
1.09279e-14
5.88677e-14
2.94941e-14
6.28222e-13
1.18993e-14
1.07472e-14
2.25209e-13
1.00547e-14
1.53862e-14
1.08474e-14
2.68903e-13
1e-14
5.56494e-13
4.23135e-13
2.08854e-14
6.42785e-13
7.03088e-13
4.40841e-13
4.39499e-13
1.8614e-14
7.0143e-13
6.98782e-13
1.07471e-14
1.18993e-14
2.25202e-13
1.00546e-14
1.08465e-14
1.53856e-14
2.68907e-13
4.228e-13
5.56506e-13
2.08663e-14
7.01855e-13
6.42763e-13
1e-14
1.03638e-14
1.41009e-14
1.00141e-14
1.01891e-14
1.12266e-14
1.81573e-14
1e-14
1e-14
1.09278e-14
2.94898e-14
5.88687e-14
1e-14
1.00518e-14
1.43485e-14
1e-14
1.01942e-14
1.00492e-14
1.68717e-14
2.45384e-14
1.10689e-14
1.78119e-13
1.20643e-14
2.22862e-14
2.10307e-13
1.55059e-13
1.14669e-14
2.84486e-13
6.28222e-13
1.16947e-14
2.57207e-13
2.70722e-13
1.25604e-14
1.29833e-14
3.05788e-13
3.26428e-13
1.0113e-14
2.89837e-13
1.37392e-14
1.61147e-14
3.47267e-13
1e-14
2.5126e-14
1.06742e-14
1e-14
1.01255e-14
3.90435e-14
6.90869e-13
4.79127e-14
7.4005e-13
2.56888e-13
1.16976e-14
2.70471e-13
1.25865e-14
3.05838e-13
1.30194e-14
3.26572e-13
2.89489e-13
1.01073e-14
1.38209e-14
3.47319e-13
1.63223e-14
1e-14
2.53303e-14
1.06895e-14
1e-14
1.01447e-14
3.90738e-14
1.43822e-14
1.00517e-14
1e-14
1.01926e-14
1.69503e-14
1.00495e-14
2.43333e-14
6.90582e-13
4.8202e-14
7.39841e-13
1.78175e-13
1.10152e-14
1.20722e-14
2.1068e-13
2.23331e-14
1.03665e-14
1e-14
1.40715e-14
1.00133e-14
1.12313e-14
1.01856e-14
1.81704e-14
1.54693e-13
1.14992e-14
2.84309e-13
1e-14
1e-14
1.09221e-14
5.94493e-14
2.95093e-14
6.28207e-13
1.18967e-14
1.07457e-14
2.25264e-13
1.00543e-14
1.53908e-14
1.08489e-14
2.68897e-13
1e-14
5.5646e-13
4.23033e-13
2.10014e-14
6.4274e-13
7.03095e-13
4.40748e-13
4.3941e-13
1.86779e-14
7.014e-13
6.98762e-13
1.07456e-14
1.18967e-14
2.25258e-13
1.00542e-14
1.0848e-14
1.53902e-14
2.689e-13
4.22709e-13
5.56472e-13
2.09829e-14
7.01867e-13
6.42719e-13
1e-14
1.03665e-14
1.40713e-14
1.00133e-14
1.01856e-14
1.12312e-14
1.81698e-14
1e-14
1e-14
1.09219e-14
2.95061e-14
5.94503e-14
1e-14
1.00517e-14
1.43822e-14
1e-14
1.01926e-14
1.00495e-14
1.69498e-14
2.43329e-14
1.10151e-14
1.78176e-13
1.20722e-14
2.23325e-14
2.10677e-13
1.54696e-13
1.14991e-14
2.84308e-13
6.28209e-13
1.16984e-14
2.56899e-13
2.70499e-13
1.25856e-14
1.3021e-14
3.05824e-13
3.26589e-13
1.01078e-14
2.89513e-13
1.38216e-14
1.63241e-14
3.47334e-13
1e-14
2.53296e-14
1.06895e-14
1e-14
1.01447e-14
3.90746e-14
6.90588e-13
4.82026e-14
7.39833e-13
2.56086e-13
1.16829e-14
2.69761e-13
1.26933e-14
3.06228e-13
1.31865e-14
3.27347e-13
2.88409e-13
1.01052e-14
1.40774e-14
3.47865e-13
1.69971e-14
1e-14
2.55874e-14
1.08059e-14
1e-14
1.02198e-14
4.01418e-14
1.45245e-14
1.00505e-14
1e-14
1.01911e-14
1.73572e-14
1.00559e-14
2.47112e-14
6.8932e-13
4.92583e-14
7.40491e-13
1.78123e-13
1.09199e-14
1.21205e-14
2.11889e-13
2.25404e-14
1.037e-14
1e-14
1.40597e-14
1.00123e-14
1.125e-14
1.01859e-14
1.83765e-14
1.53509e-13
1.15423e-14
2.83999e-13
1e-14
1e-14
1.09595e-14
6.1848e-14
3.07408e-14
6.29318e-13
1.18709e-14
1.07397e-14
2.25303e-13
1.00501e-14
1.55325e-14
1.08799e-14
2.70016e-13
1e-14
5.56137e-13
4.22643e-13
2.16107e-14
6.43181e-13
7.03067e-13
4.40414e-13
4.39081e-13
1.89162e-14
7.01503e-13
6.98905e-13
1.07397e-14
1.1871e-14
2.25297e-13
1.005e-14
1.0879e-14
1.55321e-14
2.7002e-13
4.22318e-13
5.56151e-13
2.15935e-14
7.01851e-13
6.43157e-13
1e-14
1.03699e-14
1.40596e-14
1.00123e-14
1.01859e-14
1.12499e-14
1.83761e-14
1e-14
1e-14
1.09595e-14
3.07394e-14
6.18489e-14
1e-14
1.00505e-14
1.45245e-14
1e-14
1.01911e-14
1.00559e-14
1.73568e-14
2.4709e-14
1.09198e-14
1.78122e-13
1.21204e-14
2.25398e-14
2.11888e-13
1.53512e-13
1.15423e-14
2.83997e-13
6.29322e-13
1.16831e-14
2.56081e-13
2.69774e-13
1.26926e-14
1.31872e-14
3.06219e-13
3.27357e-13
1.01054e-14
2.88421e-13
1.40778e-14
1.69981e-14
3.47879e-13
1e-14
2.55867e-14