/*--------------------------------*- C++ -*----------------------------------*\
| =========                 |                                                 |
| \\      /  F ield         | OpenFOAM: The Open Source CFD Toolbox           |
|  \\    /   O peration     | Version:  2.1.1                                 |
|   \\  /    A nd           | Web:      www.OpenFOAM.org                      |
|    \\/     M anipulation  |                                                 |
\*---------------------------------------------------------------------------*/
FoamFile
{
    version     2.0;
    format      ascii;
    class       volScalarField;
    location    "0.04";
    object      p;
}
// * * * * * * * * * * * * * * * * * * * * * * * * * * * * * * * * * * * * * //

dimensions      [0 2 -2 0 0 0 0];

internalField   nonuniform List<scalar> 
163952
(
0.0416404
0.0410642
0.036328
0.0311333
0.0299365
0.0273252
0.0267351
0.0264115
0.036648
0.0323059
0.0272645
0.0247748
0.0235313
0.0227524
0.0224381
0.0222969
0.0336791
0.0279423
0.0244386
0.0227991
0.0218866
0.0213488
0.0210102
0.02083
0.0207445
0.0335488
0.0260501
0.0232158
0.0218693
0.0211141
0.0206354
0.0203159
0.0201044
0.0199783
0.0199148
0.0335501
0.0255081
0.0226915
0.0214134
0.0206987
0.0202351
0.0199112
0.0196805
0.0195211
0.0194206
0.0193682
0.0336793
0.0260501
0.0226915
0.0212699
0.0205075
0.0200189
0.0196735
0.0194197
0.0192332
0.0191013
0.0190158
0.0189704
0.0366477
0.0279422
0.0232158
0.0214134
0.0205075
0.0199492
0.0195611
0.0192746
0.0190591
0.0188986
0.0187838
0.0187084
0.0186679
0.032306
0.0244386
0.0218693
0.0206987
0.0200189
0.0195611
0.0192277
0.0189761
0.018785
0.0186418
0.0185387
0.0184706
0.0184339
0.036328
0.0272645
0.0227991
0.0211141
0.0202351
0.0196735
0.0192746
0.0189761
0.0187482
0.0185741
0.0184431
0.0183486
0.0182857
0.0182518
0.0311334
0.0247748
0.0218866
0.0206355
0.0199112
0.0194197
0.0190591
0.018785
0.0185741
0.0184122
0.0182901
0.0182017
0.0181428
0.0181108
0.0299366
0.0235313
0.0213488
0.020316
0.0196805
0.0192332
0.0188986
0.0186418
0.0184431
0.0182901
0.0181744
0.0180904
0.0180343
0.0180039
0.0273252
0.0227524
0.0210102
0.0201044
0.0195211
0.0191013
0.0187838
0.0185388
0.0183486
0.0182017
0.0180904
0.0180094
0.0179553
0.0179259
0.0416404
0.0267352
0.0224381
0.02083
0.0199783
0.0194206
0.0190158
0.0187084
0.0184706
0.0182857
0.0181428
0.0180343
0.0179553
0.0179025
0.0178738
0.0410642
0.0264115
0.022297
0.0207445
0.0199149
0.0193683
0.0189704
0.0186679
0.0184339
0.0182518
0.0181109
0.0180039
0.0179259
0.0178738
0.0178455
0.0234665
0.0235233
0.0224611
0.0236703
0.0224014
0.0220873
0.0220426
0.0220217
0.0225657
0.0243796
0.0220669
0.0217548
0.0214943
0.0213036
0.0212289
0.0211772
0.0233439
0.0221187
0.0217009
0.0212891
0.0209484
0.0206699
0.0204852
0.0203892
0.0203397
0.0220882
0.0217979
0.0213608
0.0209197
0.0205271
0.020216
0.0199799
0.0198203
0.0197282
0.0196839
0.0220889
0.0216687
0.0211767
0.020673
0.0202461
0.0199038
0.0196444
0.0194532
0.0193215
0.0192413
0.0192028
0.023344
0.0217981
0.0211767
0.0205929
0.0201042
0.0197264
0.0194373
0.0192196
0.0190589
0.0189467
0.0188765
0.0188425
0.0225658
0.0221188
0.0213609
0.020673
0.0201042
0.0196678
0.0193385
0.0190883
0.0188991
0.0187588
0.0186599
0.0185971
0.0185666
0.0243797
0.0217009
0.0209197
0.0202461
0.0197264
0.0193385
0.0190459
0.0188228
0.0186534
0.0185272
0.0184377
0.0183804
0.0183525
0.0224611
0.0220669
0.0212891
0.0205271
0.0199038
0.0194373
0.0190883
0.0188228
0.0186193
0.0184639
0.0183477
0.0182649
0.0182117
0.0181857
0.0236703
0.0217548
0.0209484
0.020216
0.0196444
0.0192196
0.0188991
0.0186534
0.0184639
0.0183186
0.0182095
0.0181316
0.0180813
0.0180567
0.0224014
0.0214943
0.0206699
0.0199799
0.0194532
0.0190589
0.0187588
0.0185272
0.0183477
0.0182095
0.0181055
0.0180311
0.017983
0.0179594
0.0220874
0.0213036
0.0204852
0.0198203
0.0193215
0.0189467
0.0186599
0.0184377
0.0182649
0.0181316
0.0180311
0.017959
0.0179124
0.0178895
0.0234665
0.0220426
0.0212289
0.0203892
0.0197282
0.0192413
0.0188765
0.0185971
0.0183805
0.0182117
0.0180813
0.017983
0.0179124
0.0178667
0.0178443
0.0235233
0.0220218
0.0211772
0.0203397
0.0196839
0.0192028
0.0188425
0.0185666
0.0183525
0.0181857
0.0180567
0.0179594
0.0178895
0.0178443
0.0178221
0.0198228
0.0198371
0.0199018
0.0202837
0.0205072
0.0203916
0.0202841
0.0202436
0.0199085
0.0207524
0.0203022
0.0202243
0.0201295
0.0200909
0.0200616
0.0200362
0.0201188
0.0203159
0.0202157
0.0200952
0.0199587
0.0198143
0.0197231
0.0196681
0.0196377
0.0204658
0.020249
0.020124
0.0199443
0.0197524
0.0195867
0.0194471
0.0193471
0.0192849
0.0192537
0.0204666
0.0202038
0.020051
0.0198295
0.0196048
0.0194024
0.0192364
0.0191052
0.0190107
0.0189508
0.0189212
0.0201189
0.0202492
0.020051
0.0197917
0.019526
0.0192926
0.0190963
0.0189382
0.0188156
0.0187273
0.0186708
0.018643
0.0199085
0.020316
0.0201241
0.0198296
0.019526
0.0192552
0.019027
0.0188399
0.018691
0.0185767
0.0184943
0.0184412
0.0184151
0.0207524
0.0202157
0.0199443
0.0196048
0.0192926
0.019027
0.0188075
0.01863
0.0184898
0.0183826
0.0183053
0.0182553
0.0182308
0.0199018
0.0203022
0.0200953
0.0197525
0.0194024
0.0190963
0.0188399
0.01863
0.0184612
0.0183285
0.0182271
0.018154
0.0181065
0.0180832
0.0202837
0.0202243
0.0199587
0.0195868
0.0192364
0.0189382
0.018691
0.0184898
0.0183285
0.0182016
0.0181048
0.0180349
0.0179894
0.0179671
0.0205072
0.0201296
0.0198143
0.0194471
0.0191052
0.0188157
0.0185767
0.0183826
0.0182271
0.0181048
0.0180114
0.0179439
0.0179
0.0178785
0.0203916
0.0200909
0.0197231
0.0193471
0.0190107
0.0187273
0.0184943
0.0183053
0.018154
0.0180349
0.0179439
0.0178781
0.0178353
0.0178143
0.0198228
0.0202841
0.0200616
0.0196681
0.0192849
0.0189508
0.0186708
0.0184412
0.0182553
0.0181065
0.0179895
0.0179
0.0178353
0.0177933
0.0177726
0.0198371
0.0202436
0.0200362
0.0196378
0.0192537
0.0189213
0.018643
0.0184151
0.0182308
0.0180832
0.0179671
0.0178785
0.0178143
0.0177726
0.017752
0.0184755
0.0184859
0.0185925
0.0188196
0.0191504
0.0191501
0.0190977
0.0190757
0.0186073
0.0190332
0.0190733
0.0190609
0.0190317
0.0190332
0.0190321
0.0190285
0.0187482
0.019077
0.0190646
0.0190577
0.0190291
0.0189775
0.0189419
0.0189166
0.0189024
0.0191804
0.0190804
0.0190745
0.0190244
0.0189584
0.0188943
0.0188317
0.018782
0.0187474
0.0187292
0.019181
0.0190607
0.0190558
0.018993
0.0189037
0.0188106
0.018725
0.0186506
0.0185936
0.0185556
0.0185362
0.0187482
0.0190805
0.0190558
0.0189817
0.0188731
0.0187573
0.0186472
0.0185503
0.0184701
0.0184097
0.0183698
0.0183499
0.0186074
0.0190771
0.0190745
0.018993
0.0188732
0.0187386
0.0186069
0.0184876
0.018386
0.0183041
0.0182431
0.0182029
0.0181829
0.0190333
0.0190647
0.0190244
0.0189037
0.0187573
0.0186069
0.0184664
0.0183433
0.0182406
0.0181591
0.0180988
0.018059
0.0180393
0.0185925
0.0190733
0.0190577
0.0189584
0.0188106
0.0186472
0.0184876
0.0183433
0.0182194
0.0181174
0.0180371
0.0179778
0.0179389
0.0179196
0.0188196
0.0190609
0.0190292
0.0188943
0.018725
0.0185503
0.018386
0.0182406
0.0181174
0.0180167
0.0179377
0.0178796
0.0178415
0.0178226
0.0191504
0.0190317
0.0189776
0.0188317
0.0186506
0.0184701
0.0183041
0.0181591
0.0180371
0.0179377
0.0178601
0.0178031
0.0177656
0.0177471
0.0191501
0.0190332
0.0189419
0.018782
0.0185937
0.0184098
0.0182431
0.0180988
0.0179778
0.0178797
0.0178031
0.0177468
0.01771
0.0176917
0.0184755
0.0190977
0.0190321
0.0189166
0.0187474
0.0185556
0.0183699
0.0182029
0.018059
0.0179389
0.0178415
0.0177656
0.01771
0.0176734
0.0176554
0.0184859
0.0190758
0.0190286
0.0189024
0.0187292
0.0185362
0.0183499
0.0181829
0.0180393
0.0179196
0.0178226
0.0177471
0.0176917
0.0176554
0.0176374
0.0177575
0.0177656
0.0178183
0.0179669
0.0181833
0.0182269
0.0182173
0.0182157
0.0178431
0.0180755
0.0181834
0.0182025
0.0182081
0.0182206
0.0182289
0.0182334
0.017933
0.0181847
0.018211
0.0182442
0.0182628
0.0182624
0.0182595
0.0182536
0.0182493
0.0182172
0.0182067
0.0182507
0.0182642
0.0182646
0.0182572
0.0182421
0.0182262
0.0182125
0.0182046
0.0182175
0.0182014
0.0182576
0.0182732
0.018261
0.0182361
0.0182048
0.0181722
0.0181445
0.0181246
0.0181141
0.017933
0.0182068
0.0182575
0.0182758
0.0182581
0.0182193
0.0181718
0.0181233
0.0180789
0.0180434
0.0180189
0.0180063
0.0178432
0.0181847
0.0182507
0.0182732
0.0182581
0.0182132
0.0181533
0.0180897
0.0180299
0.0179784
0.0179383
0.0179111
0.0178973
0.0180756
0.018211
0.0182642
0.018261
0.0182193
0.0181533
0.0180779
0.0180038
0.0179372
0.0178816
0.017839
0.0178103
0.0177959
0.0178183
0.0181834
0.0182443
0.0182646
0.0182361
0.0181718
0.0180897
0.0180038
0.0179232
0.0178526
0.0177947
0.0177508
0.0177213
0.0177066
0.0179669
0.0182026
0.0182628
0.0182573
0.0182048
0.0181233
0.0180299
0.0179372
0.0178526
0.0177798
0.0177207
0.0176762
0.0176464
0.0176316
0.0181833
0.0182081
0.0182624
0.0182421
0.0181722
0.0180789
0.0179784
0.0178816
0.0177947
0.0177207
0.0176611
0.0176163
0.0175865
0.0175716
0.0182269
0.0182206
0.0182596
0.0182262
0.0181445
0.0180434
0.0179383
0.017839
0.0177508
0.0176762
0.0176163
0.0175714
0.0175416
0.0175268
0.0177575
0.0182173
0.0182289
0.0182536
0.0182125
0.0181247
0.0180189
0.0179111
0.0178103
0.0177214
0.0176465
0.0175865
0.0175416
0.0175119
0.017497
0.0177657
0.0182157
0.0182335
0.0182494
0.0182046
0.0181142
0.0180063
0.0178973
0.0177959
0.0177066
0.0176316
0.0175716
0.0175268
0.017497
0.0174822
0.0172472
0.017254
0.0172663
0.0173591
0.0174842
0.0175346
0.0175398
0.0175459
0.0172883
0.0174322
0.0175141
0.0175452
0.0175666
0.0175861
0.0175968
0.0176028
0.0173431
0.0175144
0.017556
0.0176002
0.0176343
0.0176551
0.0176692
0.017675
0.0176769
0.0175149
0.0175417
0.0176
0.0176387
0.0176681
0.0176881
0.0176985
0.017703
0.0177034
0.0177028
0.0175152
0.017546
0.0176168
0.0176629
0.0176887
0.0177019
0.0177045
0.0177001
0.0176935
0.0176874
0.0176837
0.0173431
0.0175418
0.0176167
0.0176714
0.0176994
0.017707
0.0177015
0.0176881
0.0176714
0.0176559
0.0176443
0.017638
0.0172883
0.0175144
0.0176
0.0176629
0.0176994
0.0177085
0.0176981
0.0176765
0.0176503
0.0176245
0.0176026
0.017587
0.0175789
0.0174322
0.017556
0.0176388
0.0176887
0.017707
0.0176981
0.0176721
0.0176379
0.0176024
0.01757
0.0175438
0.0175255
0.0175162
0.0172663
0.0175141
0.0176002
0.0176681
0.0177019
0.0177015
0.0176765
0.017638
0.0175946
0.0175525
0.0175157
0.0174865
0.0174665
0.0174563
0.0173591
0.0175452
0.0176343
0.0176882
0.0177045
0.0176881
0.0176504
0.0176024
0.0175525
0.017506
0.0174662
0.0174352
0.017414
0.0174033
0.0174842
0.0175666
0.0176552
0.0176986
0.0177001
0.0176714
0.0176245
0.01757
0.0175157
0.0174662
0.0174246
0.0173923
0.0173704
0.0173594
0.0175346
0.0175861
0.0176692
0.0177031
0.0176935
0.0176559
0.0176026
0.0175438
0.0174865
0.0174352
0.0173923
0.0173593
0.017337
0.0173257
0.0172472
0.0175398
0.0175968
0.017675
0.0177035
0.0176874
0.0176443
0.017587
0.0175255
0.0174665
0.017414
0.0173704
0.017337
0.0173144
0.0173031
0.017254
0.0175459
0.0176029
0.017677
0.0177028
0.0176838
0.017638
0.0175789
0.0175162
0.0174563
0.0174033
0.0173594
0.0173258
0.0173031
0.0172916
0.0168137
0.0168213
0.0168137
0.0168735
0.0169403
0.0169865
0.0169957
0.0170035
0.0168315
0.0169327
0.0169799
0.0170113
0.0170366
0.0170596
0.0170719
0.0170786
0.0168659
0.0169798
0.0170234
0.0170676
0.0171043
0.0171313
0.0171522
0.017164
0.0171694
0.0169669
0.0170054
0.017064
0.01711
0.0171495
0.0171811
0.0172039
0.0172195
0.0172282
0.017232
0.016967
0.017013
0.0170825
0.0171378
0.0171802
0.0172127
0.0172347
0.017248
0.0172554
0.0172589
0.0172602
0.0168659
0.0170054
0.0170824
0.0171479
0.0171966
0.01723
0.0172506
0.0172608
0.017264
0.0172636
0.0172619
0.0172606
0.0168316
0.0169798
0.0170641
0.0171378
0.0171966
0.0172357
0.0172571
0.017265
0.0172639
0.0172581
0.0172511
0.0172451
0.0172418
0.0169327
0.0170234
0.01711
0.0171802
0.01723
0.0172571
0.0172658
0.0172621
0.0172515
0.0172385
0.0172263
0.0172172
0.0172123
0.0168137
0.0169799
0.0170676
0.0171495
0.0172127
0.0172506
0.017265
0.0172621
0.0172488
0.0172308
0.0172123
0.0171964
0.0171849
0.0171789
0.0168735
0.0170113
0.0171043
0.0171812
0.0172347
0.0172609
0.0172639
0.0172515
0.0172308
0.0172072
0.0171849
0.0171663
0.0171531
0.0171463
0.0169403
0.0170366
0.0171313
0.0172039
0.017248
0.017264
0.0172581
0.0172385
0.0172123
0.0171849
0.0171598
0.0171393
0.017125
0.0171177
0.0169865
0.0170596
0.0171522
0.0172195
0.0172554
0.0172636
0.0172511
0.0172263
0.0171964
0.0171663
0.0171393
0.0171177
0.0171026
0.0170949
0.0168137
0.0169957
0.0170719
0.0171641
0.0172282
0.0172589
0.0172619
0.0172452
0.0172172
0.0171849
0.0171531
0.017125
0.0171026
0.0170871
0.0170792
0.0168213
0.0170035
0.0170787
0.0171695
0.017232
0.0172602
0.0172607
0.0172418
0.0172123
0.0171789
0.0171464
0.0171177
0.0170949
0.0170792
0.0170712
0.0164236
0.0164316
0.0164201
0.0164594
0.0164913
0.0165298
0.0165396
0.0165473
0.0164333
0.0165105
0.0165317
0.0165594
0.0165831
0.016606
0.0166186
0.0166257
0.0164562
0.0165315
0.0165717
0.016612
0.0166465
0.0166735
0.0166958
0.0167098
0.0167167
0.0165135
0.0165531
0.016607
0.0166525
0.0166935
0.0167286
0.0167562
0.0167769
0.0167898
0.016796
0.0165136
0.0165608
0.0166241
0.0166794
0.016727
0.0167677
0.0167995
0.0168227
0.0168386
0.0168482
0.0168526
0.0164563
0.0165531
0.016624
0.0166891
0.0167451
0.0167908
0.0168261
0.0168509
0.0168672
0.0168771
0.0168826
0.016885
0.0164333
0.0165315
0.016607
0.0166794
0.0167451
0.0167987
0.0168385
0.0168654
0.0168817
0.0168905
0.0168946
0.0168962
0.0168966
0.0165105
0.0165717
0.0166525
0.016727
0.0167908
0.0168385
0.0168697
0.0168875
0.0168955
0.0168976
0.0168968
0.0168951
0.016894
0.0164201
0.0165318
0.016612
0.0166935
0.0167677
0.0168261
0.0168654
0.0168875
0.0168967
0.0168977
0.0168944
0.0168896
0.0168853
0.016883
0.0164595
0.0165594
0.0166465
0.0167287
0.0167995
0.0168509
0.0168817
0.0168955
0.0168977
0.0168931
0.0168855
0.0168777
0.0168716
0.0168683
0.0164913
0.0165831
0.0166735
0.0167562
0.0168227
0.0168672
0.0168905
0.0168976
0.0168944
0.0168855
0.0168748
0.0168648
0.0168574
0.0168534
0.0165298
0.016606
0.0166958
0.0167769
0.0168387
0.0168771
0.0168946
0.0168968
0.0168896
0.0168777
0.0168648
0.0168534
0.016845
0.0168405
0.0164235
0.0165397
0.0166187
0.0167099
0.0167898
0.0168482
0.0168826
0.0168962
0.0168951
0.0168854
0.0168716
0.0168574
0.016845
0.016836
0.0168312
0.0164316
0.0165474
0.0166258
0.0167168
0.016796
0.0168527
0.016885
0.0168967
0.016894
0.016883
0.0168683
0.0168534
0.0168405
0.0168312
0.0168264
0.0160681
0.0160757
0.0160665
0.016093
0.0161043
0.0161351
0.0161443
0.016151
0.0160762
0.0161376
0.0161418
0.0161651
0.0161857
0.0162064
0.0162182
0.016225
0.0160928
0.0161416
0.0161768
0.0162122
0.0162429
0.0162676
0.0162888
0.0163028
0.0163099
0.016123
0.0161594
0.016207
0.0162488
0.0162875
0.0163219
0.0163501
0.0163722
0.0163866
0.0163938
0.016123
0.0161664
0.0162219
0.0162732
0.0163202
0.0163625
0.016398
0.0164258
0.0164461
0.016459
0.0164653
0.0160928
0.0161594
0.0162218
0.016282
0.0163378
0.0163876
0.0164296
0.0164623
0.0164863
0.0165028
0.016513
0.0165178
0.0160762
0.0161416
0.016207
0.0162732
0.0163378
0.0163963
0.016445
0.0164828
0.0165102
0.0165288
0.0165408
0.0165478
0.016551
0.0161377
0.0161768
0.0162488
0.0163202
0.0163876
0.016445
0.0164894
0.016521
0.0165421
0.0165552
0.0165629
0.016567
0.0165688
0.0160665
0.0161418
0.0162122
0.0162875
0.0163625
0.0164296
0.0164828
0.016521
0.0165461
0.0165612
0.0165694
0.0165734
0.0165751
0.0165757
0.016093
0.0161651
0.0162429
0.0163219
0.016398
0.0164623
0.0165102
0.0165421
0.0165612
0.0165712
0.0165754
0.0165765
0.0165762
0.0165758
0.0161043
0.0161857
0.0162677
0.0163501
0.0164258
0.0164863
0.0165288
0.0165552
0.0165694
0.0165754
0.0165766
0.0165754
0.0165737
0.0165726
0.0161352
0.0162064
0.0162888
0.0163722
0.0164461
0.0165028
0.0165408
0.0165629
0.0165734
0.0165765
0.0165754
0.0165727
0.01657
0.0165684
0.016068
0.0161443
0.0162183
0.0163028
0.0163867
0.016459
0.016513
0.0165478
0.016567
0.0165751
0.0165763
0.0165737
0.01657
0.0165667
0.0165647
0.0160756
0.0161511
0.016225
0.0163099
0.0163939
0.0164653
0.0165178
0.016551
0.0165688
0.0165757
0.0165759
0.0165726
0.0165684
0.0165648
0.0165627
0.0157419
0.0157486
0.0157425
0.0157608
0.0157595
0.0157842
0.015792
0.0157976
0.0157499
0.0158001
0.0157928
0.0158122
0.0158297
0.0158475
0.015858
0.015864
0.0157628
0.0157929
0.0158231
0.0158535
0.0158802
0.0159019
0.0159209
0.0159337
0.0159404
0.0157757
0.0158078
0.0158488
0.0158858
0.0159206
0.0159522
0.0159788
0.0160002
0.0160147
0.016022
0.0157758
0.0158139
0.0158617
0.0159073
0.0159507
0.0159912
0.0160267
0.0160556
0.0160774
0.0160918
0.0160989
0.0157628
0.0158078
0.0158616
0.0159151
0.015967
0.0160161
0.0160596
0.0160956
0.0161234
0.0161435
0.0161564
0.0161626
0.01575
0.0157929
0.0158488
0.0159073
0.015967
0.0160246
0.0160762
0.0161191
0.0161526
0.0161772
0.0161943
0.0162049
0.0162099
0.0158001
0.0158231
0.0158858
0.0159507
0.0160161
0.0160762
0.0161268
0.0161664
0.0161958
0.0162164
0.0162301
0.0162384
0.0162422
0.0157425
0.0157929
0.0158536
0.0159206
0.0159912
0.0160596
0.0161191
0.0161664
0.0162017
0.0162265
0.0162431
0.0162537
0.0162598
0.0162626
0.0157609
0.0158122
0.0158802
0.0159522
0.0160267
0.0160956
0.0161526
0.0161958
0.0162265
0.0162471
0.0162603
0.0162682
0.0162726
0.0162745
0.0157595
0.0158297
0.0159019
0.0159788
0.0160556
0.0161234
0.0161772
0.0162164
0.0162431
0.0162603
0.0162706
0.0162765
0.0162795
0.0162808
0.0157842
0.0158476
0.0159209
0.0160003
0.0160774
0.0161435
0.0161943
0.0162301
0.0162537
0.0162682
0.0162765
0.0162809
0.0162829
0.0162837
0.0157418
0.0157921
0.015858
0.0159337
0.0160147
0.0160918
0.0161564
0.0162049
0.0162384
0.0162599
0.0162726
0.0162796
0.0162829
0.0162843
0.0162848
0.0157484
0.0157976
0.0158641
0.0159405
0.0160221
0.016099
0.0161627
0.01621
0.0162422
0.0162627
0.0162746
0.0162808
0.0162837
0.0162848
0.0162851
0.0154393
0.0154449
0.0154415
0.015455
0.0154447
0.0154646
0.0154711
0.0154757
0.0154474
0.0154891
0.0154738
0.0154899
0.0155046
0.0155197
0.0155285
0.0155338
0.0154581
0.0154743
0.0154999
0.0155258
0.0155486
0.0155672
0.0155837
0.015595
0.015601
0.0154593
0.015487
0.0155219
0.0155539
0.0155844
0.0156124
0.0156364
0.015656
0.0156695
0.0156764
0.0154594
0.0154924
0.0155331
0.0155727
0.0156113
0.0156482
0.0156815
0.0157093
0.0157309
0.0157454
0.0157527
0.0154581
0.015487
0.015533
0.0155795
0.015626
0.0156715
0.0157135
0.0157495
0.0157785
0.0158
0.0158141
0.015821
0.0154474
0.0154743
0.0155219
0.0155727
0.015626
0.0156796
0.0157299
0.0157739
0.0158099
0.0158376
0.0158574
0.0158702
0.0158764
0.0154891
0.0154999
0.015554
0.0156113
0.0156715
0.0157299
0.015782
0.0158253
0.0158592
0.0158843
0.0159019
0.0159129
0.0159182
0.0154415
0.0154738
0.0155258
0.0155844
0.0156482
0.0157135
0.0157739
0.0158253
0.0158662
0.015897
0.0159193
0.0159344
0.0159438
0.0159482
0.015455
0.01549
0.0155486
0.0156124
0.0156815
0.0157496
0.0158099
0.0158592
0.015897
0.0159248
0.0159443
0.0159572
0.0159651
0.0159688
0.0154448
0.0155047
0.0155673
0.0156364
0.0157093
0.0157785
0.0158376
0.0158843
0.0159193
0.0159443
0.0159614
0.0159726
0.0159793
0.0159824
0.0154647
0.0155197
0.0155837
0.015656
0.0157309
0.0158
0.0158575
0.0159019
0.0159344
0.0159572
0.0159726
0.0159824
0.0159882
0.0159909
0.0154392
0.0154712
0.0155286
0.015595
0.0156695
0.0157455
0.0158141
0.0158702
0.0159129
0.0159438
0.0159651
0.0159793
0.0159882
0.0159934
0.0159957
0.0154448
0.0154758
0.0155338
0.015601
0.0156765
0.0157528
0.015821
0.0158764
0.0159182
0.0159482
0.0159688
0.0159824
0.0159909
0.0159957
0.015998
0.0151552
0.01516
0.0151583
0.0151689
0.0151522
0.0151684
0.0151736
0.0151774
0.0151633
0.0151985
0.0151774
0.0151909
0.0152032
0.0152158
0.015223
0.0152275
0.0151725
0.0151784
0.0152
0.015222
0.0152411
0.0152569
0.0152708
0.0152804
0.0152856
0.0151658
0.0151895
0.0152191
0.0152463
0.0152723
0.0152965
0.0153174
0.0153347
0.0153468
0.0153531
0.0151659
0.0151943
0.0152289
0.0152627
0.015296
0.0153285
0.0153584
0.015384
0.0154041
0.0154179
0.0154249
0.0151725
0.0151896
0.0152288
0.0152686
0.015309
0.0153496
0.0153882
0.0154223
0.0154504
0.0154718
0.015486
0.0154931
0.0151633
0.0151784
0.0152191
0.0152627
0.015309
0.015357
0.0154038
0.0154461
0.015482
0.0155104
0.0155314
0.0155452
0.0155519
0.0151985
0.0152001
0.0152464
0.015296
0.0153496
0.0154038
0.0154541
0.0154978
0.0155333
0.0155607
0.0155804
0.015593
0.0155992
0.0151583
0.0151775
0.015222
0.0152724
0.0153286
0.0153882
0.0154461
0.0154978
0.0155409
0.0155749
0.0156004
0.0156184
0.0156298
0.0156354
0.015169
0.015191
0.0152412
0.0152965
0.0153585
0.0154223
0.015482
0.0155333
0.0155749
0.0156069
0.0156304
0.0156468
0.015657
0.015662
0.0151522
0.0152032
0.0152569
0.0153175
0.015384
0.0154504
0.0155105
0.0155607
0.0156004
0.0156304
0.0156522
0.0156671
0.0156764
0.0156808
0.0151685
0.0152158
0.0152709
0.0153348
0.0154042
0.0154718
0.0155315
0.0155804
0.0156184
0.0156468
0.0156671
0.0156809
0.0156895
0.0156935
0.0151552
0.0151737
0.0152231
0.0152804
0.0153468
0.0154179
0.015486
0.0155452
0.015593
0.0156299
0.0156571
0.0156764
0.0156895
0.0156975
0.0157013
0.0151599
0.0151775
0.0152275
0.0152856
0.0153531
0.0154249
0.0154932
0.015552
0.0155992
0.0156354
0.015662
0.0156808
0.0156935
0.0157013
0.015705
0.0148855
0.0148896
0.0148891
0.0148984
0.0148766
0.0148901
0.0148941
0.0148973
0.0148937
0.0149239
0.0148987
0.01491
0.0149202
0.0149306
0.0149363
0.0149401
0.0149021
0.0149003
0.0149184
0.0149368
0.0149528
0.0149658
0.0149773
0.0149851
0.0149895
0.0148902
0.0149104
0.0149352
0.0149579
0.0149797
0.015
0.0150177
0.0150324
0.0150428
0.0150482
0.0148902
0.0149148
0.0149439
0.0149721
0.0150002
0.015028
0.0150539
0.0150764
0.0150945
0.0151069
0.0151133
0.0149021
0.0149104
0.0149438
0.0149773
0.0150116
0.0150466
0.0150807
0.0151116
0.0151376
0.0151578
0.0151714
0.0151783
0.0148937
0.0149003
0.0149352
0.0149721
0.0150116
0.0150532
0.0150949
0.0151339
0.0151679
0.0151955
0.0152163
0.0152302
0.015237
0.0149239
0.0149185
0.014958
0.0150002
0.0150466
0.0150949
0.0151415
0.0151832
0.0152184
0.0152462
0.0152666
0.01528
0.0152866
0.0148892
0.0148987
0.0149368
0.0149797
0.015028
0.0150807
0.0151339
0.0151832
0.015226
0.0152609
0.0152879
0.0153074
0.01532
0.0153262
0.0148984
0.01491
0.0149528
0.015
0.0150539
0.0151116
0.0151679
0.0152184
0.0152609
0.0152949
0.0153207
0.0153391
0.0153508
0.0153566
0.0148767
0.0149202
0.0149659
0.0150177
0.0150764
0.0151376
0.0151955
0.0152462
0.0152879
0.0153207
0.0153452
0.0153626
0.0153736
0.015379
0.0148902
0.0149306
0.0149773
0.0150325
0.0150945
0.0151578
0.0152164
0.0152666
0.0153074
0.0153391
0.0153626
0.0153791
0.0153895
0.0153946
0.0148855
0.0148942
0.0149364
0.0149852
0.0150428
0.015107
0.0151714
0.0152302
0.01528
0.01532
0.0153508
0.0153736
0.0153895
0.0153996
0.0154044
0.0148896
0.0148974
0.0149402
0.0149896
0.0150483
0.0151134
0.0151783
0.0152371
0.0152866
0.0153262
0.0153566
0.015379
0.0153946
0.0154044
0.0154092
0.0146269
0.0146307
0.014631
0.0146394
0.0146145
0.0146259
0.0146286
0.0146314
0.0146357
0.014662
0.0146339
0.0146434
0.0146517
0.0146602
0.0146646
0.0146677
0.0146437
0.0146363
0.0146514
0.0146666
0.0146796
0.01469
0.0146992
0.0147053
0.0147088
0.0146291
0.0146459
0.0146664
0.0146849
0.0147025
0.014719
0.0147334
0.0147455
0.014754
0.0147585
0.0146291
0.0146502
0.0146743
0.0146973
0.0147201
0.0147429
0.0147646
0.0147837
0.0147992
0.01481
0.0148157
0.0146437
0.014646
0.0146743
0.0147018
0.0147299
0.014759
0.014788
0.014815
0.0148381
0.0148563
0.0148688
0.0148752
0.0146357
0.0146364
0.0146664
0.0146973
0.0147299
0.0147648
0.0148006
0.0148351
0.014866
0.0148918
0.0149115
0.0149248
0.0149315
0.0146621
0.0146514
0.0146849
0.0147201
0.014759
0.0148006
0.0148421
0.0148805
0.0149137
0.0149406
0.0149608
0.0149742
0.0149809
0.0146311
0.014634
0.0146666
0.0147025
0.0147429
0.014788
0.0148351
0.0148805
0.0149211
0.0149552
0.0149823
0.0150023
0.0150153
0.0150218
0.0146395
0.0146435
0.0146797
0.014719
0.0147646
0.014815
0.0148661
0.0149137
0.0149552
0.0149894
0.0150161
0.0150354
0.015048
0.0150542
0.0146146
0.0146518
0.0146901
0.0147334
0.0147837
0.0148381
0.0148918
0.0149406
0.0149823
0.0150161
0.015042
0.0150607
0.0150728
0.0150787
0.014626
0.0146603
0.0146993
0.0147455
0.0147992
0.0148564
0.0149116
0.0149608
0.0150023
0.0150354
0.0150607
0.0150789
0.0150905
0.0150962
0.014627
0.0146287
0.0146646
0.0147054
0.014754
0.0148101
0.0148689
0.0149248
0.0149742
0.0150154
0.015048
0.0150728
0.0150905
0.0151019
0.0151075
0.0146307
0.0146316
0.0146678
0.0147089
0.0147586
0.0148157
0.0148752
0.0149315
0.0149809
0.0150218
0.0150542
0.0150787
0.0150962
0.0151075
0.0151129
0.0143772
0.0143808
0.0143818
0.0143898
0.0143638
0.0143734
0.0143745
0.0143772
0.0143868
0.0144105
0.0143808
0.0143886
0.0143951
0.0144018
0.0144047
0.0144073
0.0143949
0.0143841
0.0143963
0.0144085
0.0144187
0.0144265
0.0144332
0.0144377
0.0144404
0.014381
0.0143939
0.01441
0.0144242
0.0144377
0.0144503
0.0144613
0.0144707
0.0144773
0.0144809
0.014381
0.0143983
0.0144175
0.0144351
0.0144525
0.0144701
0.0144873
0.0145028
0.0145156
0.0145246
0.0145294
0.0143949
0.0143939
0.0144175
0.014439
0.0144607
0.0144837
0.0145073
0.0145298
0.0145496
0.0145655
0.0145766
0.0145823
0.0143868
0.0143841
0.0144101
0.0144351
0.0144607
0.0144886
0.0145181
0.0145475
0.0145747
0.0145978
0.0146159
0.0146283
0.0146345
0.0144105
0.0143963
0.0144242
0.0144525
0.0144837
0.0145181
0.0145537
0.0145878
0.0146182
0.0146434
0.0146627
0.0146756
0.0146821
0.0143818
0.0143809
0.0144085
0.0144377
0.0144701
0.0145073
0.0145475
0.0145878
0.0146251
0.0146574
0.0146836
0.0147033
0.0147163
0.0147228
0.0143899
0.0143887
0.0144187
0.0144503
0.0144874
0.0145298
0.0145747
0.0146182
0.0146574
0.0146906
0.0147171
0.0147366
0.0147495
0.0147559
0.014364
0.0143952
0.0144265
0.0144614
0.0145028
0.0145497
0.0145979
0.0146434
0.0146836
0.0147171
0.0147433
0.0147626
0.0147752
0.0147815
0.0143735
0.0144019
0.0144333
0.0144707
0.0145156
0.0145656
0.014616
0.0146627
0.0147033
0.0147366
0.0147626
0.0147816
0.014794
0.0148
0.0143773
0.0143747
0.0144048
0.0144378
0.0144773
0.0145247
0.0145766
0.0146283
0.0146756
0.0147163
0.0147495
0.0147753
0.014794
0.0148061
0.0148121
0.014381
0.0143774
0.0144074
0.0144405
0.014481
0.0145294
0.0145823
0.0146345
0.0146821
0.0147228
0.0147559
0.0147815
0.0148
0.0148121
0.014818
0.0141341
0.0141379
0.0141396
0.0141479
0.0141236
0.014131
0.0141302
0.0141328
0.014145
0.0141672
0.0141376
0.0141437
0.0141482
0.0141527
0.0141542
0.0141563
0.0141539
0.0141416
0.0141509
0.01416
0.0141673
0.0141723
0.0141765
0.0141791
0.0141811
0.0141468
0.0141522
0.0141637
0.0141732
0.0141822
0.0141908
0.0141984
0.0142049
0.0142095
0.0142122
0.0141468
0.0141573
0.0141708
0.0141825
0.0141941
0.0142065
0.0142191
0.0142308
0.0142408
0.014248
0.0142518
0.0141539
0.0141522
0.0141708
0.014186
0.0142009
0.0142175
0.0142354
0.0142534
0.0142697
0.0142831
0.0142926
0.0142976
0.014145
0.0141416
0.0141637
0.0141825
0.0142009
0.0142215
0.0142445
0.0142685
0.0142916
0.0143119
0.014328
0.0143392
0.0143449
0.0141673
0.014151
0.0141733
0.0141941
0.0142175
0.0142445
0.0142739
0.0143033
0.0143304
0.0143535
0.0143714
0.0143836
0.0143897
0.0141397
0.0141377
0.0141601
0.0141823
0.0142065
0.0142354
0.0142685
0.0143033
0.0143367
0.0143666
0.0143913
0.0144102
0.0144229
0.0144292
0.014148
0.0141438
0.0141674
0.0141909
0.0142191
0.0142534
0.0142916
0.0143304
0.0143666
0.0143981
0.0144237
0.0144429
0.0144557
0.0144621
0.0141238
0.0141483
0.0141724
0.0141985
0.0142308
0.0142697
0.0143119
0.0143535
0.0143913
0.0144237
0.0144496
0.0144689
0.0144817
0.014488
0.0141312
0.0141529
0.0141766
0.014205
0.0142408
0.0142832
0.0143281
0.0143714
0.0144102
0.0144429
0.0144689
0.0144882
0.0145008
0.0145071
0.0141343
0.0141304
0.0141543
0.0141793
0.0142096
0.014248
0.0142927
0.0143392
0.0143836
0.0144229
0.0144557
0.0144817
0.0145008
0.0145134
0.0145196
0.0141382
0.014133
0.0141565
0.0141812
0.0142123
0.0142519
0.0142976
0.014345
0.0143897
0.0144292
0.0144621
0.014488
0.0145071
0.0145196
0.0145257
0.0138947
0.0138993
0.013902
0.013912
0.0138944
0.0138978
0.0138943
0.013897
0.0139077
0.0139308
0.0139035
0.0139073
0.0139091
0.0139108
0.0139105
0.0139123
0.0139185
0.0139076
0.0139137
0.013919
0.0139227
0.0139244
0.0139257
0.0139264
0.0139275
0.0139382
0.0139187
0.0139248
0.0139289
0.0139328
0.013937
0.0139409
0.0139445
0.0139472
0.013949
0.0139382
0.0139253
0.0139309
0.0139361
0.0139414
0.0139483
0.0139562
0.0139643
0.0139716
0.013977
0.01398
0.0139185
0.0139188
0.0139309
0.0139389
0.0139465
0.0139565
0.013969
0.0139826
0.0139955
0.0140066
0.0140146
0.0140188
0.0139077
0.0139076
0.0139248
0.0139361
0.0139465
0.0139596
0.0139763
0.0139952
0.0140144
0.0140319
0.0140461
0.0140562
0.0140613
0.0139308
0.0139137
0.0139289
0.0139414
0.0139565
0.0139763
0.0139998
0.0140247
0.0140485
0.0140694
0.0140859
0.0140973
0.0141031
0.0139021
0.0139036
0.013919
0.0139328
0.0139483
0.013969
0.0139953
0.0140247
0.0140543
0.0140816
0.0141047
0.0141226
0.0141348
0.0141409
0.0139121
0.0139074
0.0139227
0.013937
0.0139563
0.0139826
0.0140144
0.0140485
0.0140816
0.0141111
0.0141356
0.0141543
0.0141668
0.0141731
0.0138946
0.0139093
0.0139245
0.013941
0.0139643
0.0139956
0.0140319
0.0140694
0.0141047
0.0141356
0.0141608
0.0141799
0.0141925
0.0141989
0.013898
0.013911
0.0139259
0.0139446
0.0139716
0.0140067
0.0140462
0.0140859
0.0141226
0.0141543
0.0141799
0.014199
0.0142117
0.0142181
0.013895
0.0138946
0.0139107
0.0139265
0.0139473
0.013977
0.0140147
0.0140562
0.0140973
0.0141348
0.0141668
0.0141925
0.0142117
0.0142244
0.0142307
0.0138997
0.0138973
0.0139125
0.0139277
0.0139491
0.0139801
0.0140189
0.0140614
0.0141031
0.0141409
0.0141731
0.0141989
0.0142181
0.0142307
0.014237
0.0136524
0.0136596
0.0136638
0.013679
0.013681
0.0136732
0.013665
0.0136686
0.0136703
0.0137008
0.0136784
0.0136779
0.0136758
0.0136727
0.01367
0.0136715
0.0136862
0.0136805
0.0136827
0.0136817
0.0136803
0.013678
0.0136762
0.0136748
0.0136753
0.0137816
0.0136959
0.0136891
0.0136867
0.0136848
0.013684
0.0136842
0.0136852
0.0136863
0.0136873
0.0137816
0.0137103
0.0136949
0.0136908
0.0136895
0.0136909
0.0136946
0.0136994
0.0137045
0.0137085
0.0137108
0.0136862
0.0136959
0.0136948
0.0136926
0.0136925
0.0136965
0.0137042
0.013714
0.0137243
0.0137334
0.0137403
0.0137439
0.0136702