/*--------------------------------*- C++ -*----------------------------------*\
| =========                 |                                                 |
| \\      /  F ield         | OpenFOAM: The Open Source CFD Toolbox           |
|  \\    /   O peration     | Version:  2.1.1                                 |
|   \\  /    A nd           | Web:      www.OpenFOAM.org                      |
|    \\/     M anipulation  |                                                 |
\*---------------------------------------------------------------------------*/
FoamFile
{
    version     2.0;
    format      ascii;
    class       volScalarField;
    location    "0.0035";
    object      p;
}
// * * * * * * * * * * * * * * * * * * * * * * * * * * * * * * * * * * * * * //

dimensions      [0 2 -2 0 0 0 0];

internalField   nonuniform List<scalar> 
10339
(
0.0294134
0.0294136
0.0196469
0.0196568
0.0196666
0.0196945
0.0197085
0.0197526
0.0197615
0.0198222
0.0198108
0.0198949
0.0198376
0.0199694
0.0198239
0.0200547
0.0307936
0.0196568
0.0196665
0.0196759
0.019703
0.0197167
0.0197592
0.0197678
0.0198276
0.0198173
0.0198996
0.0198409
0.019971
0.0198281
0.020085
0.0311268
0.0196666
0.0196759
0.0196853
0.0197116
0.0197253
0.0197662
0.0197759
0.0198309
0.0198255
0.0198942
0.0198568
0.019947
0.0198655
0.0199699
0.0292534
0.0196945
0.019703
0.0197116
0.0197356
0.0197487
0.0197858
0.0197961
0.0198452
0.0198406
0.0199062
0.0198644
0.0199781
0.0198238
0.0201579
0.0320084
0.0197084
0.0197165
0.0197252
0.0197486
0.0197615
0.0197974
0.0198071
0.0198515
0.0198495
0.0198975
0.0198876
0.0199128
0.0199396
0.036149
0.0262641
0.0197523
0.0197591
0.019766
0.0197854
0.0197971
0.0198255
0.0198385
0.0198692
0.0198757
0.0199054
0.0199233
0.019902
0.0200753
0.0293998
0.0197607
0.019768
0.0197755
0.0197954
0.0198061
0.0198375
0.0198418
0.019885
0.0198729
0.0199363
0.0198631
0.0199882
0.0376673
0.0253311
0.0198218
0.0198273
0.0198303
0.0198444
0.0198507
0.019868
0.0198803
0.019898
0.019906
0.0199206
0.0198951
0.0200883
0.0304944
0.0198104
0.0198167
0.0198248
0.0198401
0.0198505
0.019879
0.0198691
0.0199042
0.0199147
0.0199551
0.0199366
0.0378725
0.0269333
0.0198945
0.0198991
0.0198934
0.0199052
0.0198969
0.0199054
0.0199354
0.0199199
0.0199551
0.0197835
0.0201626
0.0334484
0.0198373
0.0198404
0.0198559
0.0198637
0.0198902
0.0199227
0.0198618
0.0198949
0.0199373
0.0201856
0.0414665
0.0199691
0.0199704
0.0199459
0.0199761
0.0199054
0.0198993
0.0199866
0.0200864
0.0378717
0.0334418
0.0198236
0.0198275
0.0198645
0.0198225
0.0199366
0.0200732
0.0376655
0.0304927
0.0269306
0.0200544
0.0200844
0.0199689
0.0201561
0.036147
0.0293979
0.0253293
0.0307942
0.0311267
0.0292529
0.0320072
0.0262625
0.0185318
0.0185437
0.018557
0.0185904
0.0186102
0.0186617
0.018677
0.0187458
0.0187412
0.0188318
0.0187794
0.0189166
0.0187714
0.0190056
0.0297464
0.0185437
0.0185552
0.0185681
0.0186005
0.0186199
0.0186698
0.0186854
0.018753
0.01875
0.0188381
0.0187844
0.018926
0.018769
0.0190346
0.0300796
0.0185569
0.0185681
0.0185807
0.0186119
0.0186311
0.018679
0.0186953
0.0187582
0.0187604
0.0188337
0.0188007
0.0188942
0.0188141
0.0189213
0.0282061
0.0185903
0.0186004
0.0186119
0.0186405
0.0186585
0.0187018
0.0187181
0.0187746
0.0187771
0.0188475
0.018808
0.0189268
0.0187708
0.0191109
0.0309614
0.01861
0.0186197
0.018631
0.0186583
0.0186756
0.0187171
0.0187319
0.0187827
0.0187862
0.0188409
0.0188354
0.0188589
0.0188901
0.0351026
0.0252168
0.0186614
0.0186696
0.0186788
0.0187016
0.0187169
0.0187498
0.0187669
0.018802
0.0188101
0.0188474
0.0188698
0.0188511
0.0190269
0.0283523
0.0186766
0.0186851
0.0186949
0.0187176
0.0187313
0.0187664
0.0187742
0.0188207
0.0188112
0.0188814
0.0188103
0.0189384
0.0366205
0.0242836
0.0187454
0.0187526
0.0187576
0.018774
0.0187821
0.0188013
0.0188197
0.0188388
0.0188508
0.0188665
0.0188449
0.0190414
0.0294472
0.0187408
0.0187494
0.0187598
0.0187764
0.0187857
0.0188097
0.0188101
0.0188501
0.018861
0.0189083
0.0188907
0.0368276
0.0258863
0.0188314
0.0188376
0.018833
0.0188467
0.0188401
0.0188466
0.0188804
0.018866
0.0189059
0.0187337
0.0191431
0.032407
0.0187791
0.0187839
0.0187999
0.0188071
0.0188344
0.0188688
0.0188092
0.0188439
0.0188861
0.0191127
0.0404262
0.0189163
0.0189255
0.0188934
0.0189255
0.0188567
0.0188494
0.0189371
0.0190398
0.0368292
0.0324037
0.0187711
0.0187685
0.0188133
0.0187695
0.0188883
0.0190253
0.036619
0.0294459
0.0258846
0.0190053
0.0190341
0.0189204
0.0191097
0.035101
0.0283507
0.024282
0.0297471
0.0300795
0.0282056
0.0309604
0.0252153
0.0174074
0.0174216
0.0174391
0.017479
0.0175055
0.0175658
0.0175886
0.017666
0.0176656
0.017768
0.017722
0.0178659
0.0177227
0.0179615
0.0287028
0.0174216
0.0174355
0.0174523
0.017491
0.0175169
0.0175755
0.0175983
0.0176741
0.0176751
0.0177752
0.0177271
0.0178755
0.0177215
0.0179904
0.0290364
0.017439
0.0174523
0.0174687
0.0175058
0.0175313
0.0175874
0.0176108
0.0176818
0.0176886
0.017772
0.0177454
0.0178433
0.0177676
0.0178767
0.0271628
0.0174789
0.0174909
0.0175057
0.0175397
0.0175634
0.0176144
0.0176374
0.0177022
0.0177094
0.0177893
0.0177532
0.0178799
0.017722
0.0180668
0.0299192
0.0175053
0.0175167
0.0175312
0.0175633
0.0175859
0.0176342
0.0176555
0.0177154
0.0177287
0.0177867
0.0177844
0.0178104
0.0178451
0.0340611
0.0241744
0.0175655
0.0175753
0.0175871
0.0176142
0.017634
0.0176729
0.0176957
0.0177394
0.0177584
0.0177968
0.0178195
0.0178046
0.0179825
0.0273095
0.0175882
0.017598
0.0176104
0.0176369
0.0176549
0.0176953
0.017708
0.017761
0.0177567
0.0178306
0.0177616
0.0178927
0.0355784
0.0232409
0.0176656
0.0176738
0.0176813
0.0177015
0.0177145
0.0177385
0.0177602
0.0177825
0.0177989
0.0178163
0.0177973
0.0179983
0.0284043
0.0176653
0.0176747
0.017688
0.0177085
0.0177274
0.0177571
0.0177558
0.0177985
0.0178103
0.0178615
0.0178416
0.0357863
0.0248438
0.0177678
0.0177748
0.0177714
0.0177883
0.0177851
0.0177943
0.0178308
0.0178162
0.0178624
0.0176866
0.0180695
0.0313623
0.0177218
0.0177267
0.0177448
0.0177522
0.0177829
0.0178183
0.0177608
0.0177971
0.0178443
0.0180951
0.0393834
0.0178658
0.0178752
0.0178426
0.0178789
0.0178091
0.0178034
0.0178917
0.0179975
0.0357906
0.0313684
0.0177226
0.0177212
0.017767
0.0177212
0.0178439
0.0179813
0.0355774
0.0284035
0.0248433
0.0179614
0.01799
0.0178761
0.018066
0.0340599
0.0273083
0.0232397
0.0287036
0.0290364
0.0271625
0.0299185
0.0241734
0.0162721
0.0162894
0.0163119
0.0163594
0.0163938
0.0164644
0.0164961
0.0165857
0.0165953
0.0167071
0.0166665
0.0168188
0.0166781
0.016922
0.027665
0.0162894
0.016306
0.0163276
0.0163738
0.0164072
0.0164759
0.0165074
0.0165948
0.0166045
0.0167147
0.0166718
0.0168293
0.0166769
0.016951
0.0279986
0.0163118
0.0163275
0.0163485
0.0163924
0.0164252
0.0164909
0.0165227
0.0166043
0.0166191
0.0167121
0.0166921
0.0167963
0.0167252
0.0168367
0.0261249
0.0163593
0.0163737
0.0163923
0.0164328
0.016463
0.016523
0.0165537
0.0166284
0.0166423
0.0167322
0.0166998
0.0168365
0.0166771
0.017028
0.0288821
0.0163936
0.016407
0.0164251
0.0164629
0.0164916
0.0165482
0.0165768
0.0166455
0.016663
0.0167312
0.0167342
0.0167656
0.0168039
0.0330248
0.0231372
0.0164642
0.0164757
0.0164907
0.0165228
0.0165479
0.0165942
0.0166237
0.0166757
0.0167008
0.0167458
0.0167736
0.016763
0.0169428
0.0262718
0.0164959
0.0165071
0.0165223
0.0165531
0.0165761
0.016623
0.0166417
0.0167024
0.0167042
0.0167847
0.0167174
0.0168514
0.0345414
0.0222032
0.0165855
0.0165946
0.0166039
0.0166277
0.0166443
0.0166741
0.0167007
0.0167286
0.0167509
0.0167716
0.0167553
0.0169594
0.0273664
0.0165952
0.0166042
0.0166187
0.0166414
0.0166615
0.0166985
0.0167013
0.0167483
0.0167631
0.0168218
0.0168032
0.0347511
0.0238063
0.0167071
0.0167146
0.0167117
0.0167314
0.0167297
0.0167437
0.0167826
0.0167696
0.0168199
0.0166452
0.0170543
0.030328
0.0166666
0.0166716
0.0166917
0.0166991
0.016733
0.0167724
0.0167162
0.0167541
0.0168006
0.017035
0.0383506
0.0168189
0.0168292
0.016796
0.0168359
0.0167648
0.0167622
0.0168507
0.0169589
0.0347554
0.0303316
0.0166783
0.0166768
0.0167248
0.0166765
0.0168032
0.016942
0.0345408
0.027366
0.0238066
0.0169221
0.0169509
0.0168364
0.0170275
0.033024
0.026271
0.0222025
0.0276659
0.0279988
0.0261248
0.0288817
0.0231365
0.0151246
0.0151459
0.0151745
0.0152307
0.0152743
0.015357
0.0153989
0.0155026
0.0155216
0.0156468
0.0156125
0.0157756
0.0156383
0.0158875
0.0266334
0.0151459
0.0151659
0.0151933
0.0152476
0.0152901
0.0153706
0.0154118
0.0155131
0.0155316
0.0156553
0.0156183
0.0157871
0.0156364
0.0159171
0.0269669
0.0151744
0.0151931
0.0152192
0.0152711
0.0153121
0.015389
0.0154305
0.0155245
0.0155488
0.0156535
0.0156412
0.0157535
0.0156875
0.0158021
0.0250929
0.0152306
0.0152475
0.015271
0.0153184
0.0153566
0.0154271
0.0154665
0.0155532
0.0155749
0.0156774
0.0156495
0.0157977
0.0156367
0.015995
0.0278514
0.0152741
0.0152899
0.015312
0.0153565
0.0153923
0.0154585
0.0154955
0.0155751
0.0156004
0.0156784
0.0156895
0.0157256
0.015768
0.0319946
0.0221061
0.0153569
0.0153704
0.0153888
0.0154268
0.0154581
0.0155131
0.0155501
0.0156121
0.0156452
0.0156975
0.0157288
0.0157255
0.0159075
0.0252399
0.0153988
0.0154117
0.0154302
0.015466
0.0154947
0.0155491
0.0155746
0.0156454
0.0156585
0.0157416
0.0156764
0.0158142
0.0335099
0.0211715
0.0155026
0.0155131
0.0155242
0.0155525
0.0155736
0.0156092
0.0156409
0.0156769
0.0157096
0.0157308
0.0157168
0.0159253
0.0263342
0.0155218
0.0155316
0.0155485
0.0155742
0.0155987
0.0156399
0.0156423
0.0156971
0.0157193
0.0157842
0.0157642
0.0337215
0.0227747
0.0156472
0.0156555
0.0156533
0.0156768
0.015677
0.0156946
0.0157367
0.0157273
0.015784
0.0156078
0.0160017
0.0292965
0.015613
0.0156185
0.0156411
0.015649
0.0156888
0.0157278
0.0156753
0.0157162
0.0157662
0.0160185
0.0373199
0.0157761
0.0157874
0.0157535
0.0157975
0.0157251
0.0157251
0.015814
0.0159255
0.0337268
0.029303
0.0156388
0.0156366
0.0156875
0.0156365
0.0157676
0.0159071
0.0335097
0.0263344
0.0227756
0.0158878
0.0159173
0.0158021
0.0159948
0.0319942
0.0252394
0.0211712
0.0266346
0.0269673
0.025093
0.0278513
0.0221058
0.0139655
0.0139916
0.0140274
0.014093
0.0141469
0.0142422
0.0142966
0.0144152
0.0144456
0.0145864
0.01456
0.0147361
0.0146034
0.0148591
0.025608
0.0139915
0.0140154
0.0140494
0.0141126
0.0141652
0.014258
0.0143114
0.0144277
0.0144566
0.0145969
0.0145661
0.0147492
0.0146005
0.0148895
0.0259419
0.0140273
0.0140492
0.014081
0.0141413
0.0141918
0.0142805
0.0143337
0.0144416
0.0144773
0.0145959
0.0145928
0.0147148
0.0146555
0.0147735
0.0240675
0.0140929
0.0141126
0.0141412
0.0141963
0.0142434
0.014325
0.0143754
0.0144759
0.014507
0.0146248
0.014601
0.0147635
0.0146017
0.014969
0.0268277
0.0141468
0.014165
0.0141917
0.0142433
0.0142871
0.0143639
0.0144108
0.0145023
0.0145379
0.0146271
0.0146473
0.01469
0.014738
0.0309718
0.0210823
0.0142421
0.0142579
0.0142803
0.0143248
0.0143637
0.0144279
0.0144742
0.0145466
0.0145875
0.0146505
0.0146889
0.0146933
0.0148775
0.0242148
0.0142966
0.0143113
0.0143334
0.0143749
0.0144103
0.0144738
0.0145063
0.0145852
0.0145986
0.0146976
0.0146388
0.0147816
0.0324855
0.0201468
0.0144154
0.0144278
0.0144414
0.0144754
0.0145015
0.0145458
0.0145856
0.0146273
0.0146535
0.0146905
0.0146822
0.0148972
0.0253085
0.0144463
0.0144568
0.0144772
0.0145064
0.0145369
0.0145863
0.0145999
0.0146668
0.0146791
0.0147522
0.0147338
0.032699
0.0217498
0.0145875
0.0145975
0.014596
0.0146245
0.0146265
0.0146499
0.0146984
0.0146941
0.0147528
0.0145757
0.0149935
0.0282746
0.0145611
0.0145667
0.014593
0.014601
0.0146471
0.0146889
0.0146399
0.0146832
0.0147331
0.0149741
0.0362992
0.0147373
0.0147499
0.0147151
0.0147635
0.0146899
0.0146934
0.0147823
0.0148983
0.0327049
0.0282785
0.0146044
0.0146011
0.0146558
0.0146017
0.0147379
0.0148775
0.0324858
0.0253092
0.0217515
0.0148597
0.0148898
0.0147736
0.014969
0.0309716
0.0242146
0.0201468
0.0256091
0.0259424
0.0240678
0.0268278
0.0210822
0.0127981
0.012828
0.0128716
0.0129468
0.0130118
0.0131201
0.0131883
0.0133225
0.0133676
0.0135237
0.0135052
0.0136995
0.013574
0.0138376
0.0245913
0.0128279
0.0128557
0.0128968
0.0129694
0.0130326
0.0131384
0.0132052
0.0133372
0.01338
0.0135369
0.0135125
0.0137151
0.0135699
0.0138689
0.0249251
0.0128715
0.0128966
0.0129346
0.0130034
0.0130642
0.0131653
0.0132314
0.0133542
0.0134042
0.0135376
0.0135473
0.0136804
0.0136296
0.0137511
0.0230503
0.0129467
0.0129693
0.0130033
0.0130665
0.0131232
0.0132167
0.0132795
0.0133945
0.0134384
0.0135737
0.01356
0.0137363
0.0135705
0.0139508
0.0258125
0.0130117
0.0130325
0.0130641
0.0131231
0.0131757
0.0132637
0.013322
0.0134268
0.013475
0.0135782
0.013611
0.0136602
0.013714
0.0299568
0.0200666
0.0131201
0.0131384
0.0131651
0.0132166
0.0132636
0.0133381
0.0133956
0.0134797
0.0135325
0.0136067
0.0136543
0.0136663
0.0138541
0.0231975
0.0131884
0.0132052
0.0132312
0.0132792
0.0133216
0.0133954
0.0134366
0.0135276
0.0135485
0.0136585
0.0136021
0.0137538
0.0314688
0.0191299
0.0133229
0.0133374
0.0133541
0.0133942
0.0134264
0.0134795
0.0135282
0.0135787
0.0136185
0.0136595
0.0136555
0.0138758
0.02429
0.0133686
0.0133805
0.0134042
0.0134381
0.0134746
0.0135324
0.01355
0.0136215
0.0136429
0.0137247
0.0137024
0.031683
0.020732
0.0135259
0.0135379
0.0135378
0.0135735
0.013578
0.0136071
0.0136604
0.0136636
0.0137283
0.013547
0.0139471
0.027255
0.0135087
0.0135138
0.0135477
0.0135598
0.013611
0.0136548
0.0136043
0.0136597
0.0137103
0.013978
0.0352811
0.0137017
0.0137162
0.0136808
0.0137364
0.0136603
0.0136668
0.0137553
0.0138787
0.0316918
0.0272661
0.0135754
0.0135707
0.0136299
0.0135705
0.0137139
0.0138542
0.0314696
0.0242914
0.0207348
0.0138384
0.0138694
0.0137514
0.0139509
0.0299567
0.0231974
0.0191301
0.0245926
0.0249258
0.0230507
0.0258127
0.0200665
0.0116304
0.0116604
0.0117092
0.0117936
0.0118696
0.0119909
0.0120737
0.0122242
0.0122866
0.0124612
0.0124622
0.0126691
0.0125517
0.0128231
0.0235846
0.0116606
0.01169
0.0117373
0.011819
0.011893
0.0120118
0.0120929
0.0122413
0.0123008
0.012476
0.0124685
0.0126865
0.0125459
0.0128557
0.0239178
0.0117092
0.0117369
0.0117809
0.0118583
0.0119294
0.0120431
0.0121232
0.012262
0.012328
0.0124771
0.0125008
0.0126491
0.0126102
0.0127359
0.0220423
0.0117935
0.0118188
0.0118581
0.0119294
0.011996
0.0121019
0.0121782
0.0123089
0.0123684
0.0125179
0.0125085
0.0127097
0.0125477
0.0129396
0.0248073
0.0118695
0.0118928
0.0119293
0.0119959
0.0120577
0.0121575
0.0122283
0.0123481
0.0124099
0.0125297
0.0125796
0.0126357
0.0126962
0.0289511
0.0190601
0.0119909
0.0120118
0.012043
0.0121018
0.0121575
0.0122434
0.0123127
0.0124108
0.0124767
0.0125664
0.0126253
0.0126481
0.0128388
0.0221886
0.0120739
0.012093
0.0121231
0.012178
0.012228
0.0123125
0.0123638
0.0124686
0.0125002
0.0126235
0.0125782
0.0127339
0.0304611
0.0181218
0.0122247
0.0122415
0.0122619
0.0123086
0.0123478
0.0124107
0.012469
0.0125306
0.0125799
0.012629
0.0126254
0.0128595
0.0232799
0.0122876
0.0123013
0.012328
0.012368
0.0124094
0.0124765
0.0125015
0.0125826
0.0126089
0.0126849
0.012677
0.0306758
0.0197225
0.012463
0.012477
0.0124773
0.0125176
0.0125292
0.0125665
0.0126251
0.0126351
0.0127262
0.0125228
0.0129749
0.0262511
0.0124645
0.0124697
0.0125012
0.0125084
0.0125791
0.0126256
0.012582
0.012638
0.012685
0.0129335
0.0342776
0.012671
0.0126876
0.0126495
0.0127097
0.0126356
0.0126485
0.0127356
0.0128642
0.0306857
0.0262541
0.0125531
0.0125467
0.0126105
0.0125476
0.012696
0.0128386
0.0304617
0.0232813
0.0197258
0.012824
0.0128563
0.0127361
0.0129396
0.0289509
0.0221883
0.0181217
0.023586
0.0239185
0.0220427
0.0248075
0.0190599
0.010469
0.0104983
0.0105464
0.010636
0.0107218
0.0108554
0.0109527
0.01112
0.0112012
0.0113955
0.0114172
0.0116411
0.0115373
0.011816
0.0225883
0.0104983
0.0105278
0.0105753
0.0106637
0.0107475
0.0108787
0.0109743
0.0111394
0.0112176
0.0114128
0.0114247
0.0116612
0.0115298
0.0118505
0.0229216
0.0105463
0.0105749
0.0106221
0.0107076
0.0107882
0.0109142
0.0110085
0.0111639
0.0112478
0.0114165
0.0114601
0.0116226
0.011598
0.011728
0.0210441
0.0106359
0.0106636
0.0107072
0.0107861
0.0108622
0.0109804
0.0110707
0.0112179
0.0112948
0.0114641
0.0114773
0.0116906
0.0115326
0.0119362
0.0238132
0.0107218
0.0107474
0.0107881
0.010862
0.0109327
0.0110447
0.0111286
0.0112647
0.0113422
0.0114785
0.0115368
0.0116133
0.0116839
0.0279559
0.018064
0.0108554
0.0108787
0.0109141
0.0109803
0.0110447
0.0111426
0.0112247
0.0113387
0.0114197
0.0115261
0.011599
0.0116316
0.0118302
0.0211899
0.0109529
0.0109743
0.0110084
0.0110704
0.0111283
0.0112243
0.0112872
0.0114062
0.0114526
0.011589
0.0115578
0.0117183
0.0294628
0.0171238
0.0111205
0.0111397
0.0111638
0.0112175
0.0112643
0.0113382
0.0114062
0.0114821
0.0115437
0.0116062
0.0116133
0.0118527
0.0222793
0.0112021
0.011218
0.0112478
0.0112943
0.0113414
0.0114189
0.0114527
0.0115446
0.0115759
0.0116849
0.0116542
0.0296788
0.0187229
0.0113969
0.0114135
0.0114166
0.0114636
0.0114776
0.011525
0.0115889
0.0116095
0.0116943
0.0115017
0.0119125
0.0252454
0.0114188
0.0114255
0.0114603
0.0114768
0.0115359
0.0115979
0.0115575
0.0116157
0.0116664
0.0119825
0.0332735
0.0116426
0.0116621
0.0116228
0.0116903
0.0116126
0.0116309
0.0117172
0.0118535
0.0296882
0.0252612
0.0115384
0.0115305
0.0115981
0.0115323
0.0116832
0.011829
0.0294622
0.0222793
0.0187248
0.0118169
0.011851
0.0117281
0.0119359
0.0279554
0.021189
0.0171228
0.0225898
0.0229223
0.0210445
0.0238132
0.0180635
0.00932167
0.00934889
0.00939421
0.00948098
0.00957126
0.00971484
0.00982539
0.010009
0.01011
0.0103252
0.0103707
0.0106129
0.0105311
0.0108159
0.0216048
0.0093489
0.00937674
0.00942201
0.0095089
0.00959896
0.00974031
0.00984927
0.0100308
0.0101286
0.0103451
0.01038
0.0106367
0.010522
0.0108531
0.0219382
0.00939411
0.00942183
0.00946764
0.00955448
0.00964282
0.00977936
0.00988692
0.0100589
0.0101617
0.0103516
0.0104172
0.0105974
0.0105928
0.010727
0.0200574
0.00948086
0.00950872
0.00955402
0.00963839
0.00972289
0.0098524
0.00995626
0.0101203
0.0102162
0.0104064
0.010441
0.0106744
0.0105246
0.0109413
0.0228319
0.00957122
0.00959884
0.00964265
0.00972263
0.00980128
0.00992475
0.0100215
0.0101747
0.0102691
0.0104261
0.0104992
0.0105975
0.0106769
0.0269724
0.0170796
0.00971493
0.00974036
0.00977929
0.00985229
0.00992473
0.0100347
0.0101298
0.010261
0.0103596
0.0104845
0.0105769
0.0106222
0.0108301
0.0202016
0.00982555
0.0098493
0.00988673
0.00995581
0.0100211
0.0101293
0.0102038
0.0103394
0.0104004
0.0105551
0.0105385
0.010707
0.0284746
0.0161363
0.0100094
0.010031
0.0100588
0.0101198
0.010174
0.0102601
0.0103389
0.010431
0.0105089
0.010588
0.010605
0.0108519
0.0212886
0.0101106
0.0101289
0.0101615
0.0102154
0.0102678
0.0103577
0.0103986
0.0105074
0.0105437
0.0106793
0.010653
0.0286963
0.0177341
0.0103262
0.0103456
0.0103515
0.0104056
0.0104246
0.0104818
0.0105516
0.0105845
0.010674
0.0104962
0.0110085
0.0242728
0.0103718
0.0103806
0.0104172
0.0104401
0.0104974
0.0105733
0.0105341
0.0106029
0.0106359
0.0108943
0.0322941
0.0106141
0.0106373
0.0105974
0.0106737
0.0105958
0.0106191
0.0107029
0.0108481
0.0286969
0.0242601
0.0105321
0.0105226
0.0105927
0.010524
0.0106754
0.0108275
0.028472
0.0212861
0.0177327
0.0108168
0.0108536
0.010727
0.0109409
0.0269713
0.0201998
0.016134
0.0216063
0.021939
0.0200577
0.0228318
0.0170788
0.00819662
0.00822125
0.0082615
0.00834203
0.00842616
0.00857252
0.00869279
0.00889062
0.00901065
0.00924788
0.00931977
0.00958435
0.00952991
0.00982271
0.0206351
0.00822126
0.00824665
0.0082869
0.00836836
0.00845327
0.00859959
0.00871872
0.00891487
0.00903185
0.00927035
0.00933158
0.00961104
0.00952095
0.0098632
0.0209689
0.00826142
0.0082868
0.00832856
0.0084108
0.00849715
0.00864085
0.00875872
0.00894601
0.00906718
0.00927972
0.00936942
0.00957221
0.00959155
0.0097321
0.0190828
0.00834197
0.00836827
0.0084107
0.00849343
0.00858095
0.00871931
0.00883458
0.00901464
0.00913
0.00934231
0.009403
0.00965879
0.00952411
0.00995538
0.0218655
0.0084261
0.00845312
0.00849687
0.00858034
0.00866447
0.00879783
0.00890583
0.00907601
0.00918737
0.00936849
0.00945793
0.00958459
0.00967297
0.0260024
0.0161086
0.00857259
0.00859963
0.0086408
0.00871913
0.00879784
0.00891897
0.00902642
0.0091752
0.00929292
0.00943909
0.00955693
0.00961491
0.00983759
0.0192246
0.00869289
0.00871868
0.00875844
0.00883397
0.00890528
0.00902565
0.00911109
0.00926494
0.00934115
0.00951969
0.00952245
0.00970149
0.0274971
0.0151608
0.00889095
0.00891497
0.00894578
0.00901398
0.00907513
0.00917392
0.00926421
0.00937452
0.009468
0.00957111
0.00961899
0.00985826
0.020308
0.0090111
0.00903197
0.00906679
0.00912896
0.00918571
0.00929008
0.00933794
0.00946584
0.00951107
0.00966001
0.00960688
0.0277166
0.0167556
0.00924863
0.00927067
0.00927948
0.00934123
0.00936642
0.00943428
0.00951021
0.00955937
0.00966835
0.00949381
0.0098871
0.0232826
0.00932062
0.009332
0.0093692
0.00940181
0.00945554
0.00955017
0.00950407
0.00957698
0.00964941
0.0100043
0.0313017
0.00958536
0.0096116
0.00957222
0.00965778
0.00958206
0.00960928
0.00969174
0.00984442
0.027726
0.0232973
0.00953085
0.00952156
0.00959158
0.00952316
0.00967059
0.00983346
0.027492
0.0203029
0.0167525
0.00982363
0.00986376
0.00973219
0.00995472
0.0260007
0.0192218
0.0151571
0.0206366
0.0209697
0.0190831
0.0218652
0.0161072
0.00710389
0.00712521
0.00715888
0.00722972
0.00730262
0.00743829
0.00755844
0.00776615
0.00790185
0.00816114
0.00826091
0.00855257
0.00853107
0.00883496
0.019681
0.00712522
0.00714757
0.00718114
0.00725317
0.00732733
0.00746415
0.00758572
0.00779233
0.00792569
0.00818623
0.00827569
0.00858228
0.00852279
0.00887961
0.0200155
0.00715881
0.00718109
0.00721628
0.00728982
0.00736636
0.00750401
0.00762646
0.00782542
0.00796227
0.00819815
0.00831296
0.00854436
0.00859098
0.00874315
0.0181214
0.00722969
0.00725314
0.00728976
0.00736576
0.00744579
0.00758453
0.00770714
0.00790028
0.00803349
0.00826854
0.00835749
0.00863861
0.00853117
0.00897536
0.0209159
0.00730253
0.0073272
0.0073661
0.0074454
0.00752684
0.00766633
0.00778181
0.00796721
0.00809417
0.00830131
0.00841095
0.00857093
0.00866804
0.0250477
0.0151529
0.00743833
0.00746414
0.00750389
0.0075843
0.00766633
0.00779595
0.00791336
0.00807901
0.00821524
0.00838442
0.00852918
0.00860693
0.00885006
0.0182603
0.00755846
0.0075856
0.00762609
0.00770642
0.00778118
0.00791239
0.00800686
0.0081793
0.00827031
0.0084723
0.00849063
0.00869143
0.0265302
0.014198
0.00776638
0.00779232
0.00782507
0.00789947
0.00796625
0.00807757
0.0081785
0.00830889
0.00841878
0.00854396
0.00859369
0.00885776
0.0193351
0.00790213
0.00792563
0.0079617
0.00803221
0.00809237
0.00821236
0.00826731
0.00841562
0.00846748
0.00865842
0.00862136
0.0267588
0.0157879
0.00816171
0.00818637
0.00819777
0.0082672
0.00829905
0.00838033
0.00846655
0.00853649
0.00864998
0.00850071
0.00904426
0.0223378
0.00826156
0.00827599
0.00831269
0.00835607
0.00840792
0.00852357
0.00848249
0.0085837
0.00860321
0.00887101
0.0303475
0.00855351
0.00858291
0.00854472
0.00863774
0.00856767
0.00860134
0.00868462
0.00885045
0.0267593
0.0223168
0.00853198
0.00852366
0.00859169
0.00853064
0.00866449
0.00884465
0.0265244
0.0193295
0.0157839
0.00883595
0.00888035
0.00874362
0.00897487
0.0250452
0.0182563
0.0141932
0.0196825
0.0200163
0.0181218
0.0209156
0.015151
0.0060509
0.00606826
0.00609371
0.00615245
0.00620904
0.00632731
0.00642986
0.00663519
0.00678025
0.00705953
0.00718589
0.00750999
0.00752627
0.00784861
0.0187436
0.00606826
0.00608662
0.00611202
0.00617207
0.00623019
0.00635018
0.00645532
0.00666262
0.00680625
0.00708696
0.00720397
0.00754261
0.00752063
0.00789744
0.01908
0.00609364
0.00611198
0.00613891
0.0062007
0.00626138
0.00638362
0.00649218
0.00669577
0.00684227
0.00710038
0.00723917
0.00750551
0.0075806
0.00775639
0.0171735
0.00615241
0.00617206
0.00620067
0.00626555
0.00633145
0.00645734
0.00657359
0.0067748
0.006921
0.00717805
0.00729553
0.00760493
0.00753367
0.0079945
0.0199858
0.00620893
0.00623007
0.00626117
0.00633115
0.00640038
0.006533
0.00664806
0.00684428
0.00698292
0.00721588
0.00734698
0.00754794
0.00765756
0.0241127
0.0142148
0.00632731
0.00635013
0.00638346
0.00645706
0.00653305
0.00666483
0.0067875
0.0069671
0.00711929
0.00731295
0.0074833
0.00759182
0.00786148
0.0173096
0.00642981
0.00645512
0.00649172
0.00657277
0.00664743
0.00678636
0.00688575
0.00707555
0.00717934
0.00740846
0.00744951
0.00767342
0.0255754
0.0132473
0.00663532
0.0066625
0.00669532
0.00677387
0.00684333
0.00696567
0.00707502
0.00722529
0.00735163
0.00749949
0.00757374
0.00785071
0.0183697
0.00678038
0.00680602
0.00684152
0.00691951
0.0069811
0.00711657
0.00717723
0.00734982
0.00740451
0.00762664
0.0075777
0.0258078
0.0148302
0.00705995
0.00708694
0.00709983
0.0071765
0.00721375
0.00730961
0.00740504
0.00749759
0.00763432
0.00749554
0.00786528
0.0213664
0.00718639
0.00720412
0.00723884
0.00729393
0.00734393
0.00747853
0.00744405
0.0075681
0.0075904
0.00803214
0.0293719
0.00751086
0.00754331
0.00750676
0.00760564
0.00754295
0.00758602
0.00766842
0.00784637
0.0258119
0.0213863
0.00752712
0.00752179
0.00758411
0.0075424
0.00764441
0.00785342
0.0255695
0.0183647
0.0148272
0.00784962
0.00789828
0.00775777
0.00799552
0.0241079
0.0173036
0.013242
0.0187451
0.0190808
0.017174
0.0199859
0.0142126
0.00505828
0.00507101
0.00508713
0.00513195
0.00516905
0.00526324
0.005338
0.00551775
0.00565268
0.00594608
0.00609296
0.0064558
0.00651272
0.00686076
0.0178337
0.00507101
0.00508477
0.00510076
0.00514692
0.0051856
0.00528154
0.00535952
0.0055422
0.00568019
0.00597518
0.00611446
0.00649171
0.00651083
0.00691626
0.0181749
0.00508706
0.00510073
0.00511813
0.0051659
0.0052065
0.00530497
0.00538654
0.00556873
0.0057127
0.00598719
0.00614499
0.00645443
0.00655925
0.00676959
0.0162483
0.00513191
0.00514692
0.00516589
0.00521687
0.00526286
0.00536689
0.00545886
0.00564672
0.00579702
0.00607081
0.0062148
0.00655944
0.00653588
0.00701319
0.0190859
0.00516892
0.00518547
0.0052063
0.00526258
0.00531197
0.00542538
0.00551979
0.00571359
0.0058555
0.00611029
0.00625992
0.00650788
0.00662157
0.0232096
0.0133028
0.0052632
0.00528146
0.00530478
0.00536656
0.00542539
0.00554453
0.00565786
0.00584454
0.00600647
0.0062218
0.00641967
0.00655591
0.0068615
0.0163774
0.00533787
0.00535924
0.00538602
0.00545798
0.00551913
0.00565676
0.00575321
0.00595591
0.00606754
0.00632345
0.00638788
0.00663752
0.0246434
0.0123106
0.00551779
0.00554198
0.00556819
0.00564569
0.00571263
0.0058431
0.0059555
0.00612422
0.00626684
0.00644015
0.00653734
0.0068231
0.0174171
0.00565268
0.00567979
0.0057118
0.00579534
0.00585364
0.00600372
0.00606557
0.00626377
0.00631977
0.00659611
0.00654784
0.0248845
0.0138865
0.00594637
0.00597495
0.00598648
0.00606912
0.00610826
0.00621906
0.00632151
0.00643663
0.00658608
0.00649433
0.00703099
0.0204552
0.00609327
0.00611426
0.00614426
0.00621283
0.00625697
0.00641575
0.00638587
0.00653794
0.00652786
0.00687015
0.0284423
0.0064565
0.00649188
0.00645453
0.00655833
0.00650471
0.00655179
0.00663463
0.00682127
0.0248852
0.0204424
0.00651341
0.00651125
0.00655977
0.00653546
0.00661717
0.00685615
0.0246386
0.017413
0.0138848
0.00686167
0.00691653
0.00676981
0.00701229
0.0232058
0.0163722
0.0123058
0.0178352
0.0181753
0.0162484
0.0190854
0.0133004
0.00413816
0.00414593
0.00415246
0.00418292
0.00420026
0.00427035
0.00431403
0.00446266
0.00456087
0.00485043
0.0050015
0.00540285
0.00548207
0.00585231
0.0169603
0.00414593
0.00415501
0.00416139
0.00419317
0.00421208
0.00428393
0.00433059
0.00448226
0.00458477
0.00488056
0.00502614
0.0054438
0.00548497
0.00592144
0.0173103
0.00415239
0.00416136
0.00416892
0.0042022
0.00422254
0.00429656
0.00434542
0.00449675
0.00460523
0.00488701
0.0050477
0.00540083
0.00551938
0.00576449
0.0153536
0.00418288
0.00419317
0.00420221
0.00423913
0.00426497
0.00434481
0.00440555
0.00456428
0.00468998
0.00497383
0.00513072
0.00551029
0.0055129
0.0060024
0.0182251
0.00420012
0.00421194
0.00422233
0.00426468
0.00429244
0.0043818
0.00444435
0.0046127
0.00473734
0.00500492
0.00515786
0.00545035
0.00554544
0.0223622
0.012423
0.00427029
0.00428382
0.00429635
0.00434446
0.00438183
0.00448072
0.00456678
0.00474071
0.00490078
0.00512645
0.00534462
0.00549165
0.00581808
0.0154687
0.00431385
0.00433025
0.00434482
0.00440458
0.0044436
0.00456564
0.00463993
0.004844
0.00494931
0.00522233
0.00530095
0.00554689
0.0237565
0.0113815
0.00446263
0.00448195
0.00449614
0.00456317
0.0046117
0.00473922
0.00484372
0.00502448
0.00517024
0.00536253
0.00547317
0.00573429
0.0164765
0.00456075
0.0045842
0.00460418
0.00468806
0.00473526
0.00489757
0.00494724
0.00516711
0.00520408
0.00552395
0.00542718
0.0239941
0.0129508
0.00485059
0.00488013
0.00488614
0.00497196
0.0050028
0.00512343
0.0052201
0.00536061
0.00552895
0.00545186
0.00586802
0.0195403
0.00500161
0.00502557
0.00504657
0.00512835
0.00515477
0.00534018
0.00529685
0.00546829
0.00543734
0.00595002
0.027501
0.00540336
0.00544338
0.00540017
0.00550847
0.00544761
0.00548794
0.00554384
0.00573272
0.0240024
0.0195548
0.00548251
0.00548461
0.00551856
0.00551091
0.00554207
0.00581357
0.0237521
0.0164728
0.0129518
0.00585316
0.00592095
0.00576379
0.0060006
0.0223593
0.0154645
0.0113774
0.0169618
0.0173103
0.0153531
0.0182237
0.0124204
0.00306519
0.00306841
0.00306605
0.00308232
0.00307919
0.00312093
0.0031266
0.00322954
0.00327182
0.00351635
0.00363926
0.00408656
0.00418814
0.00463562
0.0161223
0.00306841
0.00307307
0.00307059
0.00308775
0.0030858
0.00312891
0.00313693
0.00324154
0.00328824
0.0035373
0.00366275
0.00412822
0.00418855
0.00472879
0.0164894
0.00306598
0.00307057
0.00306843
0.00308661
0.00308473
0.00312875
0.00313655
0.00323857
0.00328826
0.00352166
0.00366682
0.00406389
0.0041954
0.0045411
0.0144281
0.00308228
0.00308775
0.00308662
0.00310785
0.00311036
0.00315972
0.0031788
0.00328873
0.00335963
0.00360248
0.00376025
0.0041775
0.00420081
0.00482344
0.0173846
0.00307904
0.00308566
0.00308453
0.00311006
0.00311213
0.00316974
0.00318687
0.0033077
0.003374
0.00361811
0.00375994
0.00409445
0.00419635
0.0216365
0.011599
0.00312086
0.00312879
0.00312854
0.00315937
0.00316977
0.00323794
0.00328187
0.00341494
0.00353798
0.00375428
0.00398957
0.00413288
0.0045713
0.014591
0.00312639
0.00313655
0.00313593
0.00317777
0.00318604
0.00328059
0.00331164
0.00348734
0.00356411
0.00384316
0.00392604
0.00417732
0.0229885
0.0104387
0.00322947
0.00324117
0.00323793