/*--------------------------------*- C++ -*----------------------------------*\
| =========                 |                                                 |
| \\      /  F ield         | OpenFOAM: The Open Source CFD Toolbox           |
|  \\    /   O peration     | Version:  2.1.1                                 |
|   \\  /    A nd           | Web:      www.OpenFOAM.org                      |
|    \\/     M anipulation  |                                                 |
\*---------------------------------------------------------------------------*/
FoamFile
{
    version     2.0;
    format      ascii;
    class       surfaceScalarField;
    location    "0.0035";
    object      phi;
}
// * * * * * * * * * * * * * * * * * * * * * * * * * * * * * * * * * * * * * //

dimensions      [0 3 -1 0 0 0 0];

internalField   nonuniform List<scalar> 
29654
(
-3.62556e-14
-4.54793e-14
1.14554e-09
-4.57265e-14
-3.58998e-14
1.14564e-09
1.59779e-14
1.61204e-14
1.14823e-09
-1.14828e-09
3.35362e-14
1.73519e-14
1.14735e-09
-1.14739e-09
4.85817e-14
8.52013e-15
1.14623e-09
-1.14626e-09
4.66902e-14
1.52105e-14
1.14508e-09
-1.1451e-09
4.85069e-14
-1.13332e-14
1.14399e-09
-1.14398e-09
2.31197e-14
1.08336e-14
1.14287e-09
-1.14285e-09
3.42716e-14
-4.40243e-14
1.14175e-09
-1.14171e-09
-1.75437e-14
2.29703e-14
1.14037e-09
-1.14034e-09
2.9723e-14
-8.18759e-14
1.13859e-09
-1.13855e-09
-1.0131e-13
1.07674e-13
1.13553e-09
-1.13551e-09
4.01212e-14
-1.66014e-13
1.13053e-09
-1.1305e-09
-1.87282e-13
2.26913e-13
1.12899e-09
-1.12899e-09
1.23512e-13
-3.15409e-13
1.12571e-09
-1.1257e-09
6.20177e-11
1.89183e-13
8.72268e-10
6.28599e-11
-6.20265e-11
-6.28706e-11
-8.72315e-10
1.43446e-11
-1.0731e-12
9.87743e-11
-5.00191e-11
1.79232e-14
3.38868e-14
1.14737e-09
-1.14741e-09
3.7014e-14
3.67734e-14
1.14682e-09
-1.14686e-09
5.21217e-14
1.85812e-14
1.14583e-09
-1.14585e-09
5.10668e-14
3.19031e-14
1.14475e-09
-1.14476e-09
5.16755e-14
-1.69078e-14
1.14366e-09
-1.14365e-09
2.43828e-14
3.00252e-14
1.14253e-09
-1.14252e-09
2.83874e-14
-7.73967e-14
1.14148e-09
-1.14145e-09
-2.74361e-14
5.94461e-14
1.14036e-09
-1.14034e-09
1.13241e-14
-1.47255e-13
1.13925e-09
-1.13922e-09
-1.29593e-13
2.39693e-13
1.13754e-09
-1.13753e-09
1.88973e-16
-3.07291e-13
1.1349e-09
-1.13489e-09
-3.33817e-13
5.98054e-13
1.13723e-09
-1.13726e-09
7.84043e-15
-6.5393e-13
1.13982e-09
-1.13982e-09
6.47542e-11
2.54439e-15
8.78602e-10
6.61107e-11
-6.46028e-11
-6.60196e-11
-8.78648e-10
9.47226e-13
1.4192e-11
1.5065e-12
9.66022e-11
-4.84931e-11
8.53072e-15
4.88275e-14
1.14625e-09
-1.14628e-09
1.85882e-14
5.18914e-14
1.14593e-09
-1.14595e-09
2.55994e-14
2.54942e-14
1.14514e-09
-1.14516e-09
2.32903e-14
3.93202e-14
1.14409e-09
-1.14409e-09
1.92987e-14
-2.50899e-14
1.14304e-09
-1.14303e-09
5.96932e-15
2.80899e-14
1.14197e-09
-1.14196e-09
3.06084e-15
-1.05713e-13
1.14105e-09
-1.14102e-09
-1.02582e-14
5.24165e-14
1.14028e-09
-1.14025e-09
1.0553e-14
-1.94313e-13
1.13996e-09
-1.13993e-09
-1.63304e-14
2.5223e-13
1.13973e-09
-1.13972e-09
1.04715e-13
-4.34524e-13
1.14052e-09
-1.14052e-09
-2.61416e-14
7.30228e-13
1.15474e-09
-1.15473e-09
2.42689e-13
-8.93152e-13
1.18673e-09
-1.18676e-09
5.75142e-11
8.9125e-13
9.74427e-10
4.01313e-11
-5.74605e-11
-4.07897e-11
-9.74467e-10
-4.36166e-12
8.45446e-12
1.00298e-12
1.11841e-10
-5.94218e-11
1.48448e-14
4.68312e-14
1.1451e-09
-1.14511e-09
3.16874e-14
5.10088e-14
1.14479e-09
-1.14481e-09
3.95811e-14
2.3389e-14
1.14419e-09
-1.1442e-09
3.97287e-14
3.95949e-14
1.14323e-09
-1.14322e-09
3.01434e-14
-3.12195e-14
1.14204e-09
-1.14202e-09
1.10143e-14
3.05389e-14
1.14089e-09
-1.14087e-09
3.12231e-15
-1.27753e-13
1.13997e-09
-1.13993e-09
-2.78396e-14
6.43702e-14
1.1393e-09
-1.13928e-09
-5.73614e-15
-2.42451e-13
1.13926e-09
-1.13924e-09
-9.12676e-14
3.34094e-13
1.13953e-09
-1.13953e-09
1.44002e-13
-6.64125e-13
1.14436e-09
-1.14436e-09
-9.82543e-13
1.88823e-12
1.16966e-09
-1.16969e-09
2.29344e-13
-2.096e-12
1.16283e-09
-1.16284e-09
4.27247e-11
4.45106e-11
7.61896e-10
4.83471e-11
-4.23912e-11
-4.82443e-11
5.78494e-11
-4.49204e-11
-5.67014e-11
-7.61947e-10
7.70323e-12
-6.95444e-12
7.90601e-11
-3.70832e-11
-1.15505e-14
4.86949e-14
1.144e-09
-1.14399e-09
-1.69064e-14
5.17383e-14
1.14367e-09
-1.14366e-09
-2.50444e-14
1.94106e-14
1.14307e-09
-1.14306e-09
-3.11776e-14
3.00577e-14
1.14212e-09
-1.1421e-09
-4.42588e-14
-4.41317e-14
1.14086e-09
-1.14083e-09
-4.00124e-14
8.78761e-16
1.13944e-09
-1.13942e-09
-6.404e-14
-1.35299e-13
1.13815e-09
-1.13811e-09
-1.09251e-14
-9.27163e-15
1.13716e-09
-1.13713e-09
-6.17646e-14
-2.10128e-13
1.1366e-09
-1.13658e-09
3.56921e-13
-9.24514e-14
1.13683e-09
-1.13682e-09
-1.26594e-13
-1.68293e-13
1.14703e-09
-1.14704e-09
1.32061e-12
4.56106e-13
1.15659e-09
-1.15661e-09
4.66179e-11
7.62483e-13
9.0158e-10
5.50701e-11
-4.79618e-11
-5.52268e-11
-9.01615e-10
1.35232e-11
7.02949e-12
1.34823e-10
-6.42462e-11
-3.43439e-12
-6.50756e-12
2.02355e-11
-1.02935e-11
1.04835e-14
2.36776e-14
1.14287e-09
-1.14286e-09
2.99756e-14
2.40408e-14
1.14254e-09
-1.14253e-09
2.80653e-14
6.06797e-15
1.14198e-09
-1.14197e-09
3.04785e-14
1.09642e-14
1.14091e-09
-1.14089e-09
7.78412e-16
-3.97918e-14
1.13946e-09
-1.13943e-09
-1.05309e-14
-1.01455e-14
1.13774e-09
-1.13772e-09
-3.96578e-14
-1.30274e-13
1.13584e-09
-1.13581e-09
-1.84452e-14
-4.78048e-14
1.13399e-09
-1.13397e-09
-1.10748e-13
-1.47268e-13
1.13233e-09
-1.1323e-09
3.06133e-14
-2.20059e-13
1.13456e-09
-1.13457e-09
-1.04954e-12
9.22564e-13
1.15504e-09
-1.15505e-09
1.70546e-13
-7.29884e-13
1.13169e-09
-1.13173e-09
5.79706e-11
4.47504e-11
7.2201e-10
6.165e-11
-5.75323e-11
-6.09081e-11
6.50535e-11
-4.53106e-11
-6.46819e-11
-7.22065e-10
-5.83944e-12
9.66687e-12
8.42557e-12
1.02948e-10
-5.72297e-11
-4.23241e-14
3.39059e-14
1.14175e-09
-1.14171e-09
-7.67715e-14
2.87593e-14
1.1415e-09
-1.14147e-09
-1.05483e-13
3.3149e-15
1.14107e-09
-1.14104e-09
-1.27709e-13
2.87765e-15
1.14e-09
-1.13997e-09
-1.35493e-13
-6.41362e-14
1.13818e-09
-1.13815e-09
-1.30229e-13
-3.98785e-14
1.1359e-09
-1.13587e-09
-1.47132e-13
-1.36798e-13
1.13325e-09
-1.13322e-09
-2.04656e-13
-1.24499e-14
1.12995e-09
-1.12992e-09
1.19518e-13
-4.69974e-13
1.1277e-09
-1.12771e-09
-3.78549e-14
-6.75471e-14
1.13633e-09
-1.13633e-09
1.33911e-12
-4.1718e-13
1.14608e-09
-1.14612e-09
4.70247e-11
1.75963e-12
8.81995e-10
5.89524e-11
-4.81815e-11
-5.89469e-11
-8.81993e-10
1.44706e-11
6.97459e-12
1.25721e-10
-5.53906e-11
-1.14186e-11
-1.63075e-11
4.89934e-12
5.45746e-11
-3.17478e-11
2.28029e-14
-1.75509e-14
1.14037e-09
-1.14034e-09
5.95984e-14
-2.73802e-14
1.14038e-09
-1.14036e-09
5.22578e-14
-1.03511e-14
1.14031e-09
-1.14029e-09
6.37782e-14
-2.87358e-14
1.13935e-09
-1.13933e-09
-1.02368e-14
-1.30247e-14
1.13723e-09
-1.1372e-09
-4.57538e-14
-2.47117e-14
1.13408e-09
-1.13406e-09
-1.56701e-14
-1.86448e-13
1.13014e-09
-1.13011e-09
-1.90646e-14
-3.27271e-14
1.12504e-09
-1.12502e-09
8.47928e-14
-5.83806e-13
1.12366e-09
-1.12365e-09
-1.23361e-12
1.26517e-12
1.14397e-09
-1.14399e-09
1.66137e-13
-1.78883e-12
1.13602e-09
-1.13606e-09
5.84863e-11
4.38426e-11
7.46632e-10
6.2863e-11
-5.79641e-11
-6.1947e-11
5.84217e-11
-4.44618e-11
-5.72559e-11
-7.46691e-10
-5.5378e-12
1.13154e-11
4.4733e-12
1.02887e-10
-5.46528e-11
-8.13846e-14
2.97537e-14
1.1386e-09
-1.13856e-09
-1.46716e-13
1.1069e-14
1.13927e-09
-1.13924e-09
-1.94175e-13
1.02295e-14
1.14e-09
-1.13997e-09
-2.44637e-13
-6.03276e-15
1.13933e-09
-1.1393e-09
-2.20791e-13
-6.10015e-14
1.1367e-09
-1.13667e-09
-1.73514e-13
-1.12496e-13
1.13247e-09
-1.13243e-09
-4.78248e-13
1.05776e-13
1.12792e-09
-1.1279e-09
-5.91664e-13
4.48851e-14
1.12404e-09
-1.124e-09
-5.94808e-13
-6.01964e-13
1.12702e-09
-1.127e-09
1.73622e-12
-1.01769e-12
1.13167e-09
-1.13172e-09
4.52794e-11
1.23332e-12
8.80948e-10
5.28469e-11
-4.63237e-11
-5.30361e-11
-8.80999e-10
1.4385e-11
-2.82347e-13
1.37691e-10
-6.26708e-11
-5.81714e-12
-1.14636e-11
3.43228e-11
-1.70421e-11
1.07726e-13
-1.01271e-13
1.13553e-09
-1.13551e-09
2.39534e-13
-1.29761e-13
1.13757e-09
-1.13756e-09
2.51569e-13
-1.64725e-14
1.13977e-09
-1.13975e-09
3.3233e-13
-9.22373e-14
1.13959e-09
-1.13958e-09
-9.41357e-14
3.51501e-13
1.13694e-09
-1.13693e-09
-2.32652e-13
2.51473e-14
1.13468e-09
-1.13468e-09
-9.74706e-14
-5.30782e-14
1.13657e-09
-1.13654e-09
1.06953e-12
-1.31972e-12
1.14437e-09
-1.14417e-09
-1.09073e-12
1.56125e-12
1.13222e-09
-1.13222e-09
-9.99332e-13
-1.03268e-12
1.12283e-09
-1.1229e-09
5.68157e-11
3.3864e-11
7.1939e-10
5.05857e-11
-5.6339e-11
-5.08214e-11
4.33392e-11
-3.48029e-11
-4.23431e-11
-7.19454e-10
6.94813e-12
1.23417e-11
-1.89178e-11
1.02179e-10
-4.57367e-11
-1.65496e-13
3.99329e-14
1.13052e-09
-1.13049e-09
-3.06667e-13
4.39987e-17
1.13494e-09
-1.13492e-09
-4.33867e-13
1.04494e-13
1.14054e-09
-1.14053e-09
-6.66293e-13
1.44388e-13
1.14438e-09
-1.14438e-09
-1.65734e-13
-1.42575e-13
1.14712e-09
-1.14713e-09
9.12151e-13
-1.05014e-12
1.15513e-09
-1.15513e-09
-4.36155e-13
1.31087e-12
1.14623e-09
-1.14625e-09
-1.93755e-12
1.51904e-13
1.13626e-09
-1.13623e-09
9.76374e-13
4.52759e-11
8.81421e-10
5.28497e-11
-4.63625e-11
-5.32024e-11
-8.81333e-10
3.37471e-11
5.68184e-11
7.20212e-10
4.32959e-11
-3.47247e-11
-4.2368e-11
5.06345e-11
-5.63715e-11
-5.08197e-11
-7.20479e-10
-1.0667e-11
-1.06579e-11
1.45952e-10
-5.7017e-11
2.27212e-13
-1.87405e-13
1.12898e-09
-1.12898e-09
5.98287e-13
-3.33734e-13
1.13726e-09
-1.1373e-09
7.30115e-13
-2.60886e-14
1.15473e-09
-1.15473e-09
1.89078e-12
-9.8395e-13
1.16967e-09
-1.1697e-09
4.53362e-13
1.31651e-12
1.15662e-09
-1.15665e-09
-7.27871e-13
1.69814e-13
1.13173e-09
-1.13177e-09
1.74688e-12
4.7021e-11
8.82049e-10
5.89512e-11
-4.81783e-11
-5.89465e-11
-8.82059e-10
4.38374e-11
5.84843e-11
7.46692e-10
5.84344e-11
-4.44568e-11
-5.72452e-11
6.28633e-11
-5.79609e-11
-6.19454e-11
-7.46803e-10
-2.87155e-13
1.43784e-11
1.37716e-10
-6.26932e-11
6.95776e-12
-1.89303e-11
1.2329e-11
1.02288e-10
-4.58269e-11
-3.1483e-13
1.23589e-13
1.1257e-09
-1.12569e-09
-6.53112e-13
7.71029e-15
1.13982e-09
-1.13982e-09
-8.9241e-13
2.42916e-13
1.18672e-09
-1.18674e-09
-2.09461e-12
2.27589e-13
1.16283e-09
-1.16284e-09
7.62311e-13
4.66168e-11
9.01586e-10
5.50698e-11
-4.79612e-11
-5.52266e-11
-9.01623e-10
4.47537e-11
5.797e-11
7.22011e-10
6.50545e-11
-4.53139e-11
-6.46832e-11
6.16499e-11
-5.75319e-11
-6.0908e-11
-7.22067e-10
6.97555e-12
1.44695e-11
1.25721e-10
-5.53906e-11
-5.53948e-12
4.47386e-12
1.1315e-11
1.02887e-10
-5.46528e-11
-1.14606e-11
-5.81888e-12
3.43254e-11
-1.70459e-11
1.89759e-13
6.20138e-11
8.7224e-10
6.28567e-11
-6.20225e-11
-6.28672e-11
-8.72287e-10
2.74193e-15
6.47531e-11
8.78581e-10
6.61109e-11
-6.46018e-11
-6.60197e-11
-8.78626e-10
8.91493e-13
5.75147e-11
9.74412e-10
4.01321e-11
-5.74606e-11
-4.07904e-11
-9.74453e-10
4.45114e-11
4.27244e-11
7.61895e-10
5.78496e-11
-4.49214e-11
-5.67017e-11
4.8347e-11
-4.23912e-11
-4.82443e-11
-7.61947e-10
7.02964e-12
1.3523e-11
1.34823e-10
-6.42463e-11
-5.83976e-12
8.42562e-12
9.66675e-12
1.02948e-10
-5.72297e-11
-1.63071e-11
-1.14186e-11
4.89931e-12
5.45743e-11
-3.17479e-11
-1.07378e-12
1.43435e-11
9.87608e-11
-5.00093e-11
9.47511e-13
1.50554e-12
1.41921e-11
9.65998e-11
-4.84912e-11
-4.36194e-12
1.00407e-12
8.45431e-12
1.11838e-10
-5.94193e-11
7.70165e-12
-6.95398e-12
7.90613e-11
-3.70835e-11
-6.50741e-12
-3.43455e-12
2.02355e-11
-1.02936e-11
5.71639e-14
5.77906e-14
1.14809e-09
1.08341e-13
5.64067e-14
1.14723e-09
1.50853e-13
4.31583e-14
1.14614e-09
1.6843e-13
4.712e-14
1.14501e-09
1.78639e-13
1.70866e-14
1.14396e-09
1.52605e-13
3.63145e-14
1.14286e-09
1.52366e-13
-2.39395e-14
1.14177e-09
8.64579e-14
3.90998e-14
1.14039e-09
1.1451e-13
-8.13876e-14
1.13864e-09
-3.53088e-14
1.16927e-13
1.13556e-09
8.23277e-14
-1.60906e-13
1.13057e-09
-1.65356e-13
2.44723e-13
1.12899e-09
1.23011e-13
-3.06547e-13
1.12573e-09
6.20321e-11
1.92093e-13
8.72213e-10
6.28732e-11
-6.2038e-11
-6.28812e-11
-5.00278e-11
1.43498e-11
-1.07201e-12
9.87937e-11
5.64221e-14
1.08732e-13
1.14725e-09
1.10964e-13
1.10551e-13
1.14671e-09
1.52228e-13
8.58307e-14
1.14575e-09
1.69479e-13
9.37787e-14
1.14469e-09
1.77044e-13
3.58952e-14
1.14363e-09
1.48759e-13
7.5469e-14
1.14252e-09
1.42953e-13
-4.18376e-14
1.14151e-09
7.10382e-14
8.80882e-14
1.14039e-09
9.26217e-14
-1.51486e-13
1.1393e-09
-7.2706e-14
2.57352e-13
1.13757e-09
2.87019e-14
-2.95932e-13
1.13494e-09
-3.4625e-13
6.17466e-13
1.13723e-09
1.19303e-14
-6.57147e-13
1.13981e-09
6.47689e-11
1.65693e-15
8.78561e-10
6.61236e-11
-6.4615e-11
-6.60333e-11
-4.85019e-11
9.47215e-13
1.41964e-11
1.50657e-12
9.66216e-11
4.27867e-14
1.50875e-13
1.14615e-09
8.58479e-14
1.51797e-13
1.14585e-09
1.17814e-13
1.17644e-13
1.14508e-09
1.32277e-13
1.2362e-13
1.14405e-09
1.34846e-13
4.73052e-14
1.14303e-09
1.20905e-13
9.04501e-14
1.14197e-09
1.07296e-13
-5.651e-14
1.14108e-09
7.86809e-14
9.07371e-14
1.1403e-09
8.19783e-14
-2.03099e-13
1.14001e-09
4.17709e-14
2.70073e-13
1.13976e-09
1.39096e-13
-4.20775e-13
1.14056e-09
-1.77171e-14
7.59939e-13
1.15475e-09
2.43743e-13
-8.96731e-13
1.18671e-09
5.7524e-11
8.93669e-13
9.74387e-10
4.0141e-11
-5.74735e-11
-4.07963e-11
-5.94304e-11
-4.36207e-12
8.4555e-12
1.0019e-12
1.11861e-10
4.68689e-14
1.68489e-13
1.14502e-09
9.39001e-14
1.69408e-13
1.14473e-09
1.24148e-13
1.32258e-13
1.14415e-09
1.40276e-13
1.39941e-13
1.1432e-09
1.36778e-13
5.40688e-14
1.14204e-09
1.16642e-13
1.04778e-13
1.1409e-09
9.89354e-14
-7.02516e-14
1.14e-09
5.19062e-14
1.11492e-13
1.13933e-09
6.23045e-14
-2.58261e-13
1.13931e-09
-4.4848e-14
3.6106e-13
1.13955e-09
1.65716e-13
-6.54915e-13
1.14438e-09
-9.60723e-13
1.92409e-12
1.16962e-09
2.34009e-13
-2.09983e-12
1.16284e-09
4.27329e-11
4.45222e-11
7.61854e-10
4.83577e-11
-4.23998e-11
-4.82529e-11
5.78587e-11
-4.49276e-11
-5.67154e-11
-3.70883e-11
7.7041e-12
-6.95584e-12
7.90742e-11
1.68896e-14
1.78715e-13
1.14397e-09
3.59275e-14
1.77023e-13
1.14365e-09
4.73154e-14
1.3475e-13
1.14306e-09
5.42196e-14
1.36424e-13
1.14211e-09
4.58839e-14
4.57984e-14
1.14088e-09
4.8158e-14
7.98121e-14
1.13947e-09
1.37577e-14
-7.44784e-14
1.13819e-09
5.17193e-14
4.07073e-14
1.13719e-09
-2.06775e-14
-2.21443e-13
1.13664e-09
3.87537e-13
-7.26464e-14
1.13685e-09
-1.28072e-13
-1.507e-13
1.14705e-09
1.33972e-12
4.77276e-13
1.15657e-09
4.66299e-11
7.61186e-13
9.01548e-10
5.50839e-11
-4.79663e-11
-5.52324e-11
-6.42555e-11
1.35303e-11
7.03219e-12
1.34846e-10
-1.02955e-11
-3.4342e-12
-6.50992e-12
2.02396e-11
3.62856e-14
1.52757e-13
1.14286e-09
7.55235e-14
1.48692e-13
1.14253e-09
9.05061e-14
1.20882e-13
1.14199e-09
1.04896e-13
1.16316e-13
1.14092e-09
8.00131e-14
4.81078e-14
1.13949e-09
6.82016e-14
6.79075e-14
1.13777e-09
3.01511e-14
-7.41115e-14
1.13588e-09
4.17782e-14
2.28567e-15
1.13402e-09
-6.76366e-14
-1.4687e-13
1.13237e-09
6.09135e-14
-1.97888e-13
1.13456e-09
-1.04602e-12
9.52788e-13
1.15504e-09
2.1751e-13
-7.29663e-13
1.13164e-09
5.79841e-11
4.47646e-11
7.21976e-10
6.16621e-11
-5.75415e-11
-6.09193e-11
6.50682e-11
-4.53133e-11
-6.46942e-11
-5.72361e-11
-5.84026e-12
9.6704e-12
8.4267e-12
1.02963e-10
-2.3818e-14
1.5241e-13
1.14178e-09
-4.14926e-14
1.42952e-13
1.14152e-09
-5.63178e-14
1.07232e-13
1.14111e-09
-7.02758e-14
9.84128e-14
1.14004e-09
-7.48526e-14
1.34349e-14
1.13823e-09
-7.47009e-14
2.89431e-14
1.13594e-09
-9.55741e-14
-9.49912e-14
1.13329e-09
-1.61814e-13
3.00512e-14
1.12998e-09
1.39134e-13
-4.57392e-13
1.12771e-09
-1.59196e-14
-5.76335e-14
1.13635e-09
1.38799e-12
-4.25859e-13
1.14606e-09
4.70353e-11
1.83368e-12
8.81967e-10
5.89629e-11
-4.81872e-11
-5.89598e-11
-5.53989e-11
1.4477e-11
6.97878e-12
1.25742e-10
-3.1751e-11
-1.14181e-11
-1.63133e-11
4.89998e-12
5.45825e-11
3.92999e-14
8.65014e-14
1.1404e-09
8.82157e-14
7.09024e-14
1.1404e-09
9.06766e-14
7.83363e-14
1.14034e-09
1.11187e-13
5.09964e-14
1.13938e-09
4.03438e-14
5.05929e-14
1.13726e-09
1.99839e-15
3.81432e-14
1.13412e-09
2.99831e-14
-1.6404e-13
1.13018e-09
2.17856e-14
1.03306e-14
1.12507e-09
1.18991e-13
-5.79077e-13
1.12368e-09
-1.25587e-12
1.34382e-12
1.14394e-09
1.32568e-13
-1.79843e-12
1.13601e-09
5.84996e-11
4.3855e-11
7.46598e-10
6.28759e-11
-5.79725e-11
-6.19588e-11
5.84332e-11
-4.44661e-11
-5.7267e-11
-5.4659e-11
-5.53826e-12
1.13185e-11
4.47452e-12
1.02903e-10
-8.09666e-14
1.14441e-13
1.13865e-09
-1.5103e-13
9.21467e-14
1.13932e-09
-2.02725e-13
8.147e-14
1.14005e-09
-2.58599e-13
6.12675e-14
1.13937e-09
-2.2275e-13
-2.21076e-14
1.13674e-09
-1.49998e-13
-7.31937e-14
1.13251e-09
-4.63051e-13
1.29521e-13
1.12794e-09
-5.91376e-13
9.48193e-14
1.12408e-09
-6.02351e-13
-5.84375e-13
1.12704e-09
1.75945e-12
-1.0119e-12
1.13167e-09
4.5292e-11
1.21491e-12
8.80917e-10
5.28583e-11
-4.63276e-11
-5.30445e-11
-6.26789e-11
1.43899e-11
-2.77779e-13
1.37713e-10
-1.70441e-11
-5.81768e-12
-1.14667e-11
3.43285e-11
1.17095e-13
-3.54686e-14
1.13556e-09
2.5737e-13
-7.2986e-14
1.13759e-09
2.69907e-13
4.14287e-14
1.1398e-09
3.59792e-13
-4.57747e-14
1.13961e-09
-7.34519e-14
3.84281e-13
1.13697e-09
-2.04785e-13
5.4429e-14
1.13469e-09
-6.80063e-14
-3.02294e-14
1.13659e-09
1.30474e-12
-1.2756e-12
1.14436e-09
-1.0326e-12
1.7572e-12
1.13222e-09
-1.01191e-12
-9.75226e-13
1.12277e-09
5.68304e-11
3.38566e-11
7.19384e-10
5.06026e-11
-5.63472e-11
-5.08243e-11
4.33118e-11
-3.48241e-11
-4.23946e-11
-4.57405e-11
6.94716e-12
1.23442e-11
-1.89198e-11
1.02198e-10
-1.6031e-13
8.20535e-14
1.13056e-09
-2.95362e-13
2.84628e-14
1.13497e-09
-4.20214e-13
1.3851e-13
1.14057e-09
-6.55296e-13
1.6509e-13
1.14441e-09
-1.51026e-13
-1.29917e-13
1.14713e-09
9.45843e-13
-1.04845e-12
1.15514e-09
-4.29602e-13
1.3676e-12
1.14621e-09
-1.82036e-12
1.27822e-13
1.13625e-09
1.19193e-12
4.53106e-11
8.81405e-10
5.30012e-11
-4.63574e-11
-5.31927e-11
3.37744e-11
5.68466e-11
7.20122e-10
4.33431e-11
-3.47172e-11
-4.23353e-11
5.06142e-11
-5.63708e-11
-5.0847e-11
-5.70144e-11
-1.07169e-11
-1.06181e-11
1.45979e-10
2.45473e-13
-1.65611e-13
1.12898e-09
6.17936e-13
-3.46294e-13
1.13727e-09
7.59632e-13
-1.7818e-14
1.15475e-09
1.92439e-12
-9.61399e-13
1.16963e-09
4.78355e-13
1.33768e-12
1.1566e-09
-7.25839e-13
2.15875e-13
1.13167e-09
1.83238e-12
4.70318e-11
8.82009e-10
5.89619e-11
-4.81845e-11
-5.89605e-11
4.38332e-11
5.84981e-11
7.46644e-10
5.84333e-11
-4.44508e-11
-5.72553e-11
6.28765e-11
-5.79706e-11
-6.19585e-11
-6.26786e-11
-2.93522e-13
1.43832e-11
1.37732e-10
-4.57634e-11
6.88738e-12
-1.89193e-11
1.23538e-11
1.02287e-10
-3.05817e-13
1.22982e-13
1.12572e-09
-6.56341e-13
1.16651e-14
1.13981e-09
-8.95897e-13
2.43862e-13
1.18669e-09
-2.09902e-12
2.33928e-13
1.16284e-09
7.61457e-13
4.66289e-11
9.01553e-10
5.50838e-11
-4.79657e-11
-5.52323e-11
4.47677e-11
5.79837e-11
7.21975e-10
6.50695e-11
-4.53163e-11
-6.46951e-11
6.16621e-11
-5.75411e-11
-6.09192e-11
-5.53987e-11
6.97902e-12
1.44761e-11
1.25742e-10
-5.46583e-11
-5.53896e-12
4.47367e-12
1.13183e-11
1.02903e-10
-1.7045e-11
-1.14693e-11
-5.81667e-12
3.4331e-11
1.9274e-13
6.20282e-11
8.72185e-10
6.28699e-11
-6.20341e-11
-6.28779e-11
1.89169e-15
6.47677e-11
8.7854e-10
6.61237e-11
-6.46141e-11
-6.60333e-11
8.93747e-13
5.75245e-11
9.74372e-10
4.01419e-11
-5.74736e-11
-4.07971e-11
4.45231e-11
4.27327e-11
7.61853e-10
5.7859e-11
-4.49284e-11
-5.67156e-11
4.83578e-11
-4.23997e-11
-4.82528e-11
-6.42554e-11
7.03234e-12
1.353e-11
1.34846e-10
-5.7236e-11
-5.84054e-12
8.42675e-12
9.67032e-12
1.02962e-10
-3.1751e-11
-1.6313e-11
-1.14182e-11
4.9e-12
5.45822e-11
-5.0018e-11
-1.07267e-12
1.43486e-11
9.87802e-11
-4.85e-11
9.47435e-13
1.50565e-12
1.41964e-11
9.66192e-11
-5.9428e-11
-4.36233e-12
1.00293e-12
8.45543e-12
1.11858e-10
-3.70885e-11
7.70257e-12
-6.95537e-12
7.90752e-11
-1.02955e-11
-6.50978e-12
-3.43436e-12
2.02396e-11
1.1942e-13
1.20215e-13
1.14784e-09
2.22677e-13
1.15209e-13
1.147e-09
3.0317e-13
9.69127e-14
1.14596e-09
3.49756e-13
9.60012e-14
1.14487e-09
3.72597e-13
5.86957e-14
1.14388e-09
3.46622e-13
7.15558e-14
1.14281e-09
3.30613e-13
3.72302e-15
1.14178e-09
2.47837e-13
6.17677e-14
1.14041e-09
2.4172e-13
-6.12929e-14
1.1387e-09
6.66444e-14
1.29095e-13
1.13559e-09
1.54186e-13
-1.55599e-13
1.13063e-09
-1.28486e-13
2.67488e-13
1.129e-09
1.75818e-13
-3.14643e-13
1.12574e-09
6.20469e-11
2.01826e-13
8.72191e-10
6.28896e-11
-6.20495e-11
-6.2894e-11
-5.00393e-11
1.43517e-11
-1.07277e-12
9.88157e-11
1.15044e-13
2.23163e-13
1.14702e-09
2.20453e-13
2.19893e-13
1.1465e-09
2.99777e-13
1.86091e-13
1.14558e-09
3.44667e-13
1.85786e-13
1.14455e-09
3.63578e-13
1.13792e-13
1.14356e-09
3.36096e-13
1.43383e-13
1.14248e-09
3.15905e-13
1.08858e-14
1.14153e-09
2.24535e-13
1.32147e-13
1.1404e-09
2.13154e-13
-1.11979e-13
1.13936e-09
1.98692e-14
2.85487e-13
1.13761e-09
8.75421e-14
-2.84385e-13
1.135e-09
-3.0223e-13
6.35517e-13
1.13725e-09
2.43862e-14
-6.55825e-13
1.13982e-09
6.47853e-11
1.03733e-14
8.7853e-10
6.6139e-11
-6.46278e-11
-6.6047e-11
-4.85118e-11
9.47664e-13
1.42002e-11
1.50705e-12
9.66429e-11
9.64971e-14
3.03376e-13
1.14597e-09
1.86284e-13
2.99375e-13
1.14568e-09
2.545e-13
2.54178e-13
1.14495e-09
2.94404e-13
2.48223e-13
1.14395e-09
3.07956e-13
1.54027e-13
1.14298e-09
2.94246e-13
1.83727e-13
1.14195e-09
2.64952e-13
1.63122e-14
1.14111e-09
2.20305e-13
1.48675e-13
1.14033e-09
1.9226e-13
-1.46757e-13
1.14007e-09
1.35054e-13
2.99901e-13
1.13981e-09
2.00262e-13
-4.07676e-13
1.14062e-09
-2.5425e-15
8.41966e-13
1.15475e-09
2.4614e-13
-8.94824e-13
1.1867e-09
5.75383e-11
8.93977e-13
9.74352e-10
4.01533e-11
-5.74857e-11
-4.08029e-11
-5.94403e-11
-4.36246e-12
8.45829e-12
9.99937e-13
1.11883e-10
9.60624e-14
3.49874e-13
1.14488e-09
1.86115e-13
3.44524e-13
1.1446e-09
2.48936e-13
2.9409e-13
1.14405e-09
2.8933e-13
2.88803e-13
1.14312e-09
2.96295e-13
1.81311e-13
1.142e-09
2.75587e-13
2.16153e-13
1.14089e-09
2.43966e-13
1.54205e-14
1.14003e-09
1.78278e-13
1.8191e-13
1.13936e-09
1.62378e-13
-1.9527e-13
1.13938e-09
2.3444e-14
4.00596e-13
1.13959e-09
2.01658e-13
-6.43465e-13
1.14444e-09
-9.24754e-13
1.96441e-12
1.16963e-09
2.29129e-13
-2.05186e-12
1.16285e-09
4.27417e-11
4.45343e-11
7.61813e-10
4.83687e-11
-4.24116e-11
-4.82637e-11
5.78677e-11
-4.49376e-11
-5.6734e-11
-3.70949e-11
7.70638e-12
-6.95924e-12
7.90904e-11
5.87639e-14
3.72682e-13
1.14388e-09
1.13806e-13
3.63325e-13
1.14357e-09
1.54056e-13
3.07624e-13
1.14301e-09
1.81725e-13
2.95774e-13
1.14208e-09
1.8222e-13
1.81922e-13
1.14088e-09
1.82621e-13
1.98488e-13
1.13949e-09
1.32938e-13
1.63295e-14
1.13824e-09
1.50202e-13
1.15895e-13
1.13724e-09
5.47684e-14
-1.72452e-13
1.13671e-09
4.38252e-13
-3.45301e-14
1.1369e-09
-1.01888e-13
-1.39293e-13
1.14708e-09
1.35837e-12
5.06152e-13
1.15657e-09
4.66432e-11
7.5953e-13
9.01562e-10
5.51e-11
-4.79722e-11
-5.52391e-11
-6.42654e-11
1.35385e-11
7.03344e-12
1.34872e-10
-1.0298e-11
-3.4341e-12
-6.51295e-12
2.02451e-11
7.17642e-14
3.46777e-13
1.14281e-09
1.43597e-13
3.35904e-13
1.14249e-09
1.83995e-13
2.9411e-13
1.14196e-09
2.16538e-13
2.75141e-13
1.14091e-09
1.98945e-13
1.82385e-13
1.13951e-09
1.86376e-13
1.85772e-13
1.13779e-09
1.37653e-13
1.29516e-14
1.13593e-09
1.26938e-13
7.9398e-14
1.13406e-09
1.26095e-15
-1.01527e-13
1.13242e-09
1.06965e-13
-1.73374e-13
1.13459e-09
-1.04358e-12
9.9064e-13
1.15506e-09
2.19743e-13
-7.25101e-13
1.1316e-09
5.7997e-11
4.47802e-11
7.21939e-10
6.16742e-11
-5.75541e-11
-6.09345e-11
6.50828e-11
-4.53188e-11
-6.47107e-11
-5.72441e-11
-5.84156e-12
9.6734e-12
8.42765e-12
1.02981e-10
4.14042e-15
3.30643e-13
1.14179e-09
1.13339e-14
3.15676e-13
1.14154e-09
1.66484e-14
2.64747e-13
1.14113e-09
1.54992e-14
2.43379e-13
1.14007e-09
1.60204e-14
1.32541e-13
1.13828e-09
1.2455e-14
1.36347e-13
1.13599e-09
-2.00557e-14
-1.95996e-14
1.13335e-09
-9.89221e-14
9.84085e-14
1.13004e-09
1.85404e-13
-4.35258e-13
1.12776e-09
1.8792e-14
-3.43598e-14
1.13637e-09
1.43589e-12
-4.25862e-13
1.14605e-09
4.70472e-11
1.86499e-12
8.81955e-10
5.89747e-11
-4.81931e-11
-5.89731e-11
-5.54077e-11
1.44836e-11
6.98515e-12
1.25767e-10
-3.1754e-11
-1.14188e-11
-1.63205e-11
4.90162e-12
5.45917e-11
6.21833e-14
2.4773e-13
1.14042e-09
1.32441e-13
2.24207e-13
1.14042e-09
1.48919e-13
2.19954e-13
1.14037e-09
1.81943e-13
1.77535e-13
1.13941e-09
1.1579e-13
1.49522e-13
1.13731e-09
7.91583e-14
1.24309e-13
1.13416e-09
9.8544e-14
-9.95774e-14
1.13023e-09
8.08364e-14
7.60724e-14
1.1251e-09
1.70113e-13
-5.72012e-13
1.12373e-09
-1.26222e-12
1.40169e-12
1.14394e-09
1.35251e-13
-1.80069e-12
1.13598e-09
5.8516e-11
4.38705e-11
7.46588e-10
6.28881e-11
-5.79845e-11
-6.19739e-11
5.84458e-11
-4.44711e-11
-5.72811e-11
-5.46685e-11
-5.54051e-12
1.13234e-11
4.47692e-12
1.02925e-10
-6.09518e-14
2.41535e-13
1.13871e-09
-1.11674e-13
2.1272e-13
1.13938e-09
-1.46345e-13
1.91776e-13
1.14011e-09
-1.94964e-13
1.61247e-13
1.13944e-09
-1.72344e-13
5.36064e-14
1.13681e-09
-1.04569e-13
-1.66515e-15
1.13257e-09
-4.38755e-13
1.8001e-13
1.12799e-09
-5.78833e-13
1.59407e-13
1.12414e-09
-5.99431e-13
-5.94097e-13
1.12708e-09
1.78965e-12
-9.94949e-13
1.13167e-09
4.53055e-11
1.21624e-12
8.80905e-10
5.28694e-11
-4.63331e-11
-5.30564e-11
-6.2689e-11
1.43961e-11
-2.71577e-13
1.3774e-10
-1.70468e-11
-5.81771e-12
-1.14709e-11
3.43355e-11
1.29679e-13
6.64243e-14
1.1356e-09
2.85948e-13
1.96715e-14
1.13763e-09
3.00139e-13
1.3465e-13
1.13984e-09
4.00032e-13
2.25298e-14
1.13965e-09
-3.364e-14
4.35666e-13
1.13702e-09
-1.7068e-13
1.01541e-13
1.13472e-09
-3.54289e-14
1.0906e-14
1.13662e-09
1.39651e-12
-1.27117e-12
1.14436e-09
-1.00541e-12
1.78798e-12
1.13224e-09
-9.72685e-13
-9.91628e-13
1.12273e-09
5.68381e-11
3.38787e-11
7.19328e-10
5.06034e-11
-5.63637e-11
-5.0846e-11
4.33661e-11
-3.48214e-11
-4.23595e-11
-4.57514e-11
6.94482e-12
1.23478e-11
-1.89229e-11
1.02219e-10
-1.5479e-13
1.53959e-13
1.13062e-09
-2.83726e-13
8.7249e-14
1.13504e-09
-4.07145e-13
1.99469e-13
1.14063e-09
-6.43482e-13
2.00687e-13
1.14446e-09
-1.39251e-13
-1.04081e-13
1.14717e-09
9.86538e-13
-1.04527e-12
1.15516e-09
-4.28343e-13
1.42529e-12
1.14621e-09
-1.80736e-12
1.31965e-13
1.13622e-09
1.19721e-12
4.53326e-11
8.81402e-10
5.30207e-11
-4.6362e-11
-5.32045e-11
3.3765e-11
5.68627e-11
7.20106e-10
4.33142e-11
-3.47382e-11
-4.23835e-11
5.0629e-11
-5.63792e-11
-5.08524e-11
-5.70312e-11
-1.06619e-11
-1.0675e-11
1.46011e-10
2.68569e-13
-1.28862e-13
1.12899e-09
6.36114e-13
-3.02369e-13
1.13728e-09
8.41965e-13
-2.77609e-15
1.15474e-09
1.9643e-12
-9.2528e-13
1.16964e-09
5.06472e-13
1.35701e-12
1.1566e-09
-7.24291e-13
2.19911e-13
1.13163e-09
1.86383e-12
4.7044e-11
8.81989e-10
5.89744e-11
-4.81905e-11
-5.89739e-11
4.38491e-11
5.85144e-11
7.46632e-10
5.84399e-11
-4.44541e-11
-5.72723e-11
6.28884e-11
-5.7983e-11
-6.19742e-11
-6.26886e-11
-2.8601e-13
1.43962e-11
1.3776e-10
-4.57735e-11
6.88164e-12
-1.89162e-11
1.23588e-11
1.02311e-10
-3.13694e-13
1.75417e-13
1.12573e-09
-6.54942e-13
2.40754e-14
1.13982e-09
-8.94041e-13
2.46219e-13
1.18669e-09
-2.05187e-12
2.29067e-13
1.16285e-09
7.59558e-13
4.66423e-11
9.01566e-10
5.50999e-11
-4.79715e-11
-5.52391e-11
4.47832e-11
5.79967e-11
7.21938e-10
6.5084e-11
-4.53216e-11
-6.47115e-11
6.16743e-11
-5.75537e-11
-6.09345e-11
-5.54074e-11
6.98545e-12
1.44828e-11
1.25767e-10
-5.46674e-11
-5.54139e-12
4.47552e-12
1.13235e-11
1.02924e-10
-1.70478e-11
-1.14756e-11
-5.8151e-12
3.43386e-11
2.02587e-13
6.2043e-11
8.72163e-10
6.28863e-11
-6.20455e-11
-6.28907e-11
1.06677e-14
6.47841e-11
8.78509e-10
6.61391e-11
-6.46269e-11
-6.6047e-11
8.94037e-13
5.75388e-11
9.74338e-10
4.01542e-11
-5.74859e-11
-4.08036e-11
4.45351e-11
4.27415e-11
7.61812e-10
5.78679e-11
-4.49384e-11
-5.67342e-11
4.83688e-11
-4.24115e-11
-4.82637e-11
-6.42653e-11
7.03358e-12
1.35383e-11
1.34872e-10
-5.72439e-11
-5.84186e-12
8.42773e-12
9.67335e-12
1.02981e-10
-3.17539e-11
-1.63202e-11
-1.14189e-11
4.90162e-12
5.45915e-11
-5.00294e-11
-1.07334e-12
1.43506e-11
9.88022e-11
-4.85099e-11
9.47817e-13
1.50616e-12
1.42002e-11
9.66406e-11
-5.94381e-11
-4.36269e-12
1.00087e-12
8.45824e-12
1.11881e-10
-3.70951e-11
7.70488e-12
-6.95881e-12
7.90915e-11
-1.0298e-11
-6.51283e-12
-3.43426e-12
2.02451e-11
2.1885e-13
2.20736e-13
1.14739e-09
4.01845e-13
2.15376e-13
1.1466e-09
5.52564e-13
1.7571e-13
1.14563e-09
6.12575e-13
1.74403e-13
1.14463e-09
6.56954e-13
1.17164e-13
1.14371e-09
6.29257e-13
1.24488e-13
1.1427e-09
5.93993e-13
4.45701e-14
1.14177e-09
4.82752e-13
1.02727e-13
1.14041e-09
4.37377e-13
-5.29842e-14
1.13879e-09
2.22921e-13
1.5362e-13
1.13565e-09
2.60415e-13
-1.49113e-13
1.13074e-09
-6.7214e-14
2.86091e-13
1.12903e-09
2.15272e-13
-3.18904e-13
1.12577e-09
6.20671e-11
2.1187e-13
8.72198e-10
6.29086e-11
-6.20636e-11
-6.29093e-11
-5.00501e-11
1.43581e-11
-1.07381e-12
9.88405e-11
2.15024e-13
4.03013e-13
1.14662e-09
3.96597e-13
3.95446e-13
1.14615e-09
5.43435e-13
3.30927e-13
1.14528e-09
6.00078e-13
3.29556e-13
1.14434e-09
6.40706e-13
2.26039e-13
1.14341e-09
6.10445e-13
2.44167e-13
1.14239e-09
5.70557e-13
8.77847e-14
1.14152e-09
4.51345e-13
2.13986e-13
1.14041e-09
4.00638e-13
-9.07534e-14
1.13945e-09
1.65128e-13
3.31747e-13
1.13767e-09
1.80221e-13
-2.69891e-13
1.1351e-09
-2.35627e-13
6.57582e-13
1.13729e-09
4.93575e-14
-6.45842e-13
1.13987e-09
6.48053e-11
2.02276e-14
8.78519e-10
6.61583e-11
-6.46422e-11
-6.60642e-11
-4.85237e-11
9.47198e-13
1.42054e-11
1.50805e-12
9.66691e-11
1.75157e-13
5.53442e-13
1.14564e-09
3.3145e-13
5.42344e-13
1.14538e-09
4.53554e-13
4.52589e-13
1.1447e-09
5.30682e-13
4.41695e-13
1.14376e-09
5.61033e-13
3.09983e-13
1.14287e-09
5.48036e-13
3.19906e-13
1.14189e-09
4.99922e-13
1.23266e-13
1.14112e-09
4.33016e-13
2.41281e-13
1.14037e-09
3.63694e-13
-1.10213e-13
1.14017e-09
2.70732e-13
3.52028e-13
1.13988e-09
2.92457e-13
-3.90756e-13
1.14071e-09
3.66946e-14
8.84635e-13
1.15478e-09
2.57255e-13
-8.81001e-13
1.18672e-09
5.7554e-11
8.93926e-13
9.74327e-10
4.01675e-11
-5.75014e-11
-4.08108e-11
-5.94517e-11
-4.36271e-12
8.46076e-12
9.98115e-13
1.1191e-10
1.7505e-13
6.12845e-13
1.14464e-09
3.30284e-13
5.99161e-13
1.14439e-09
4.43192e-13
5.30047e-13
1.14386e-09
5.07261e-13
5.06513e-13
1.14299e-09
5.30148e-13
3.6808e-13
1.14193e-09
5.09465e-13
3.7908e-13
1.14085e-09
4.61012e-13
1.42303e-13
1.14006e-09
3.6994e-13
2.89831e-13
1.13941e-09
3.16944e-13
-1.5366e-13
1.13947e-09
1.3436e-13
4.66714e-13
1.13966e-09
2.74887e-13
-6.28514e-13
1.14454e-09
-8.78113e-13
2.01697e-12
1.16965e-09
2.27187e-13
-2.01037e-12
1.16288e-09
4.27526e-11
4.45496e-11
7.61779e-10
4.83829e-11
-4.2424e-11
-4.82763e-11
5.7879e-11
-4.49489e-11
-5.6757e-11
-3.71035e-11
7.70782e-12
-6.96235e-12
7.91115e-11
1.17484e-13
6.57347e-13