/*--------------------------------*- C++ -*----------------------------------*\
| =========                 |                                                 |
| \\      /  F ield         | OpenFOAM: The Open Source CFD Toolbox           |
|  \\    /   O peration     | Version:  2.1.1                                 |
|   \\  /    A nd           | Web:      www.OpenFOAM.org                      |
|    \\/     M anipulation  |                                                 |
\*---------------------------------------------------------------------------*/
FoamFile
{
    version     2.0;
    format      ascii;
    class       volScalarField;
    location    "0.115";
    object      p;
}
// * * * * * * * * * * * * * * * * * * * * * * * * * * * * * * * * * * * * * //

dimensions      [0 2 -2 0 0 0 0];

internalField   nonuniform List<scalar> 
163952
(
0.0416862
0.0411099
0.0363738
0.0311791
0.0299823
0.027371
0.0267809
0.0264572
0.0366939
0.0323518
0.0273103
0.0248206
0.023577
0.0227981
0.0224838
0.0223426
0.033725
0.0279881
0.0244845
0.0228448
0.0219323
0.0213945
0.0210558
0.0208756
0.0207901
0.0335947
0.0260959
0.0232616
0.0219151
0.0211598
0.0206811
0.0203615
0.0201499
0.0200238
0.0199603
0.033596
0.0255539
0.0227374
0.0214592
0.0207444
0.0202806
0.0199567
0.0197259
0.0195665
0.0194659
0.0194136
0.0337252
0.026096
0.0227374
0.0213157
0.0205532
0.0200644
0.019719
0.0194651
0.0192785
0.0191465
0.019061
0.0190155
0.0366936
0.0279881
0.0232616
0.0214592
0.0205532
0.0199948
0.0196066
0.01932
0.0191043
0.0189438
0.0188289
0.0187534
0.0187129
0.0323519
0.0244845
0.0219151
0.0207444
0.0200645
0.0196066
0.0192731
0.0190214
0.0188301
0.0186868
0.0185837
0.0185155
0.0184787
0.0363739
0.0273104
0.0228449
0.0211599
0.0202807
0.0197191
0.01932
0.0190214
0.0187934
0.0186191
0.0184881
0.0183934
0.0183305
0.0182965
0.0311793
0.0248207
0.0219324
0.0206812
0.0199568
0.0194652
0.0191044
0.0188301
0.0186191
0.0184571
0.018335
0.0182464
0.0181874
0.0181555
0.0299825
0.0235772
0.0213946
0.0203616
0.019726
0.0192786
0.0189438
0.0186869
0.0184881
0.018335
0.0182191
0.018135
0.0180789
0.0180484
0.0273711
0.0227982
0.0210559
0.02015
0.0195666
0.0191466
0.018829
0.0185838
0.0183935
0.0182464
0.018135
0.018054
0.0179998
0.0179704
0.0416863
0.0267811
0.0224839
0.0208757
0.0200239
0.0194661
0.0190611
0.0187535
0.0185156
0.0183306
0.0181875
0.0180789
0.0179998
0.0179469
0.0179182
0.0411101
0.0264574
0.0223428
0.0207902
0.0199604
0.0194137
0.0190157
0.0187131
0.0184788
0.0182966
0.0181555
0.0180484
0.0179704
0.0179182
0.0178898
0.0235122
0.0235691
0.0225069
0.0237161
0.0224472
0.0221331
0.0220883
0.0220675
0.0226116
0.0244255
0.0221127
0.0218006
0.02154
0.0213493
0.0212745
0.0212228
0.0233897
0.0221646
0.0217467
0.0213348
0.0209941
0.0207155
0.0205308
0.0204347
0.0203852
0.0221341
0.0218438
0.0214066
0.0209654
0.0205727
0.0202616
0.0200254
0.0198657
0.0197736
0.0197293
0.0221348
0.0217146
0.0212225
0.0207187
0.0202917
0.0199493
0.0196898
0.0194986
0.0193668
0.0192866
0.019248
0.0233899
0.021844
0.0212225
0.0206386
0.0201498
0.0197719
0.0194827
0.0192649
0.0191042
0.0189919
0.0189216
0.0188876
0.0226117
0.0221647
0.0214067
0.0207187
0.0201498
0.0197133
0.0193839
0.0191336
0.0189443
0.0188039
0.018705
0.0186421
0.0186116
0.0244256
0.0217468
0.0209655
0.0202918
0.0197719
0.0193839
0.0190911
0.018868
0.0186984
0.0185722
0.0184826
0.0184253
0.0183973
0.022507
0.0221128
0.0213349
0.0205728
0.0199494
0.0194828
0.0191336
0.018868
0.0186643
0.0185088
0.0183926
0.0183097
0.0182564
0.0182303
0.0237162
0.0218007
0.0209942
0.0202616
0.0196899
0.019265
0.0189443
0.0186985
0.0185089
0.0183634
0.0182543
0.0181762
0.0181259
0.0181013
0.0224473
0.0215402
0.0207156
0.0200255
0.0194987
0.0191043
0.018804
0.0185723
0.0183926
0.0182543
0.0181502
0.0180756
0.0180275
0.0180039
0.0221333
0.0213494
0.0205309
0.0198658
0.0193669
0.018992
0.0187051
0.0184827
0.0183097
0.0181763
0.0180756
0.0180035
0.0179568
0.0179339
0.0235124
0.0220885
0.0212747
0.0204348
0.0197737
0.0192867
0.0189217
0.0186422
0.0184254
0.0182565
0.018126
0.0180275
0.0179568
0.0179111
0.0178887
0.0235692
0.0220677
0.021223
0.0203854
0.0197294
0.0192482
0.0188877
0.0186117
0.0183974
0.0182304
0.0181013
0.0180039
0.0179339
0.0178887
0.0178665
0.0198686
0.0198829
0.0199476
0.0203295
0.0205531
0.0204374
0.02033
0.0202894
0.0199543
0.0207983
0.0203481
0.0202702
0.0201754
0.0201366
0.0201073
0.0200819
0.0201647
0.0203619
0.0202616
0.0201411
0.0200044
0.01986
0.0197687
0.0197137
0.0196833
0.0205118
0.0202949
0.0201699
0.01999
0.0197981
0.0196324
0.0194926
0.0193926
0.0193303
0.0192991
0.0205126
0.0202497
0.0200969
0.0198753
0.0196505
0.0194479
0.0192818
0.0191506
0.019056
0.018996
0.0189665
0.0201648
0.0202952
0.0200968
0.0198374
0.0195716
0.0193381
0.0191417
0.0189835
0.0188609
0.0187725
0.0187159
0.0186881
0.0199545
0.020362
0.02017
0.0198753
0.0195717
0.0193007
0.0190724
0.0188852
0.0187362
0.0186218
0.0185393
0.0184861
0.01846
0.0207984
0.0202617
0.0199901
0.0196505
0.0193382
0.0190725
0.0188528
0.0186751
0.0185348
0.0184276
0.0183502
0.0183001
0.0182755
0.0199477
0.0203482
0.0201412
0.0197982
0.019448
0.0191418
0.0188852
0.0186751
0.0185063
0.0183734
0.0182719
0.0181987
0.0181512
0.0181278
0.0203296
0.0202703
0.0200045
0.0196325
0.0192819
0.0189836
0.0187362
0.0185348
0.0183734
0.0182464
0.0181495
0.0180794
0.018034
0.0180116
0.0205532
0.0201755
0.0198601
0.0194927
0.0191507
0.018861
0.0186219
0.0184276
0.018272
0.0181495
0.018056
0.0179884
0.0179445
0.0179228
0.0204376
0.0201368
0.0197688
0.0193927
0.0190561
0.0187726
0.0185394
0.0183502
0.0181987
0.0180795
0.0179884
0.0179225
0.0178797
0.0178586
0.0198687
0.0203301
0.0201074
0.0197138
0.0193305
0.0189962
0.018716
0.0184862
0.0183002
0.0181512
0.018034
0.0179445
0.0178797
0.0178376
0.0178168
0.019883
0.0202896
0.0200821
0.0196835
0.0192992
0.0189666
0.0186882
0.0184602
0.0182756
0.0181279
0.0180117
0.0179229
0.0178586
0.0178168
0.0177962
0.0185213
0.0185317
0.0186384
0.0188655
0.0191964
0.0191961
0.0191436
0.0191216
0.0186533
0.0190792
0.0191193
0.0191068
0.0190776
0.0190791
0.0190779
0.0190743
0.0187942
0.0191231
0.0191106
0.0191036
0.019075
0.0190233
0.0189876
0.0189623
0.018948
0.0192264
0.0191264
0.0191204
0.0190703
0.0190042
0.01894
0.0188773
0.0188275
0.0187929
0.0187746
0.019227
0.0191068
0.0191018
0.0190388
0.0189494
0.0188562
0.0187705
0.018696
0.018639
0.0186008
0.0185814
0.0187942
0.0191266
0.0191017
0.0190275
0.0189188
0.0188028
0.0186926
0.0185956
0.0185153
0.0184549
0.0184149
0.0183949
0.0186534
0.0191232
0.0191205
0.0190389
0.0189189
0.0187842
0.0186523
0.0185328
0.0184311
0.0183492
0.0182881
0.0182478
0.0182277
0.0190793
0.0191107
0.0190704
0.0189495
0.0188029
0.0186523
0.0185117
0.0183884
0.0182856
0.018204
0.0181435
0.0181037
0.018084
0.0186385
0.0191194
0.0191037
0.0190043
0.0188563
0.0186926
0.0185329
0.0183884
0.0182644
0.0181622
0.0180818
0.0180224
0.0179834
0.017964
0.0188656
0.0191069
0.0190751
0.0189401
0.0187705
0.0185957
0.0184312
0.0182856
0.0181622
0.0180613
0.0179823
0.0179241
0.0178859
0.0178669
0.0191965
0.0190777
0.0190234
0.0188774
0.0186961
0.0185154
0.0183492
0.018204
0.0180818
0.0179823
0.0179046
0.0178474
0.0178099
0.0177913
0.0191962
0.0190792
0.0189877
0.0188276
0.0186391
0.018455
0.0182882
0.0181436
0.0180225
0.0179241
0.0178474
0.0177911
0.0177541
0.0177358
0.0185215
0.0191438
0.019078
0.0189624
0.018793
0.018601
0.018415
0.0182479
0.0181038
0.0179835
0.0178859
0.0178099
0.0177541
0.0177175
0.0176994
0.0185319
0.0191218
0.0190745
0.0189482
0.0187747
0.0185816
0.018395
0.0182279
0.0180841
0.0179641
0.017867
0.0177914
0.0177359
0.0176994
0.0176814
0.0178033
0.0178115
0.0178643
0.0180129
0.0182294
0.0182729
0.0182633
0.0182617
0.0178892
0.0181216
0.0182295
0.0182486
0.0182541
0.0182665
0.0182748
0.0182793
0.017979
0.0182308
0.0182571
0.0182903
0.0183087
0.0183083
0.0183053
0.0182993
0.018295
0.0182633
0.0182528
0.0182968
0.0183102
0.0183105
0.018303
0.0182877
0.0182717
0.018258
0.0182501
0.0182637
0.0182476
0.0183037
0.0183192
0.0183068
0.0182818
0.0182504
0.0182176
0.0181898
0.0181699
0.0181593
0.0179791
0.018253
0.0183036
0.0183218
0.0183039
0.0182649
0.0182173
0.0181686
0.0181241
0.0180884
0.0180638
0.0180512
0.0178893
0.0182309
0.0182969
0.0183192
0.0183039
0.0182588
0.0181987
0.0181349
0.018075
0.0180234
0.0179832
0.0179558
0.017942
0.0181217
0.0182572
0.0183103
0.0183069
0.0182649
0.0181987
0.0181232
0.0180489
0.0179821
0.0179264
0.0178836
0.0178548
0.0178404
0.0178644
0.0182296
0.0182904
0.0183106
0.0182818
0.0182173
0.0181349
0.0180489
0.017968
0.0178973
0.0178392
0.0177952
0.0177657
0.0177509
0.018013
0.0182487
0.0183089
0.0183031
0.0182504
0.0181687
0.018075
0.0179821
0.0178973
0.0178243
0.0177651
0.0177204
0.0176906
0.0176757
0.0182295
0.0182543
0.0183084
0.0182878
0.0182177
0.0181242
0.0180234
0.0179264
0.0178393
0.0177651
0.0177053
0.0176604
0.0176305
0.0176156
0.0182731
0.0182667
0.0183055
0.0182719
0.01819
0.0180886
0.0179833
0.0178837
0.0177952
0.0177205
0.0176604
0.0176155
0.0175856
0.0175707
0.0178035
0.0182635
0.018275
0.0182995
0.0182582
0.01817
0.018064
0.017956
0.0178549
0.0177658
0.0176907
0.0176306
0.0175856
0.0175557
0.0175408
0.0178117
0.0182619
0.0182795
0.0182952
0.0182502
0.0181595
0.0180514
0.0179422
0.0178405
0.017751
0.0176758
0.0176156
0.0175707
0.0175409
0.017526
0.0172932
0.0172999
0.0173123
0.0174052
0.0175304
0.0175808
0.0175859
0.017592
0.0173344
0.0174784
0.0175604
0.0175914
0.0176128
0.0176322
0.0176428
0.0176489
0.0173893
0.0175607
0.0176023
0.0176464
0.0176804
0.0177011
0.0177151
0.0177208
0.0177227
0.0175612
0.017588
0.0176463
0.0176849
0.0177141
0.017734
0.0177443
0.0177487
0.017749
0.0177483
0.0175615
0.0175923
0.017663
0.017709
0.0177347
0.0177476
0.0177501
0.0177455
0.0177388
0.0177326
0.0177289
0.0173893
0.0175881
0.0176629
0.0177175
0.0177453
0.0177527
0.017747
0.0177334
0.0177165
0.0177009
0.0176891
0.0176828
0.0173345
0.0175608
0.0176463
0.0177091
0.0177453
0.0177542
0.0177435
0.0177217
0.0176953
0.0176693
0.0176473
0.0176316
0.0176234
0.0174785
0.0176023
0.0176849
0.0177347
0.0177527
0.0177435
0.0177172
0.0176829
0.0176472
0.0176146
0.0175882
0.0175698
0.0175604
0.0173124
0.0175605
0.0176465
0.0177142
0.0177477
0.017747
0.0177218
0.0176829
0.0176393
0.017597
0.01756
0.0175307
0.0175106
0.0175004
0.0174053
0.0175915
0.0176805
0.0177341
0.0177502
0.0177334
0.0176954
0.0176472
0.017597
0.0175503
0.0175104
0.0174792
0.0174579
0.0174472
0.0175306
0.0176129
0.0177013
0.0177444
0.0177456
0.0177166
0.0176694
0.0176146
0.01756
0.0175104
0.0174685
0.0174361
0.0174141
0.0174031
0.0175809
0.0176324
0.0177152
0.0177488
0.0177389
0.017701
0.0176474
0.0175883
0.0175308
0.0174792
0.0174361
0.017403
0.0173806
0.0173693
0.0172934
0.0175861
0.017643
0.017721
0.0177491
0.0177327
0.0176893
0.0176317
0.0175699
0.0175107
0.017458
0.0174142
0.0173806
0.0173579
0.0173465
0.0173001
0.0175922
0.0176491
0.0177229
0.0177484
0.0177291
0.017683
0.0176236
0.0175605
0.0175005
0.0174472
0.0174031
0.0173693
0.0173465
0.0173351
0.0168598
0.0168673
0.0168599
0.0169198
0.0169867
0.0170328
0.0170419
0.0170497
0.0168778
0.016979
0.0170263
0.0170577
0.0170829
0.0171059
0.017118
0.0171248
0.0169122
0.0170263
0.0170699
0.017114
0.0171505
0.0171774
0.0171982
0.01721
0.0172153
0.0170133
0.0170518
0.0171105
0.0171563
0.0171956
0.0172271
0.0172497
0.0172652
0.0172737
0.0172775
0.0170135
0.0170594
0.0171289
0.0171841
0.0172262
0.0172585
0.0172803
0.0172934
0.0173007
0.017304
0.0173052
0.0169122
0.0170519
0.0171288
0.0171941
0.0172426
0.0172757
0.0172961
0.0173061
0.0173091
0.0173085
0.0173066
0.0173053
0.0168779
0.0170263
0.0171105
0.0171841
0.0172426
0.0172814
0.0173025
0.0173101
0.0173088
0.0173028
0.0172956
0.0172895
0.0172861
0.0169791
0.0170699
0.0171563
0.0172263
0.0172757
0.0173025
0.0173109
0.0173069
0.0172961
0.0172828
0.0172705
0.0172612
0.0172562
0.01686
0.0170264
0.0171141
0.0171957
0.0172585
0.0172961
0.0173102
0.0173069
0.0172933
0.017275
0.0172563
0.0172403
0.0172286
0.0172226
0.0169199
0.0170578
0.0171506
0.0172272
0.0172804
0.0173062
0.0173089
0.0172961
0.017275
0.0172512
0.0172286
0.0172099
0.0171966
0.0171898
0.0169868
0.0170831
0.0171775
0.0172498
0.0172935
0.0173091
0.0173028
0.0172829
0.0172564
0.0172287
0.0172033
0.0171827
0.0171683
0.0171609
0.0170329
0.017106
0.0171984
0.0172653
0.0173008
0.0173086
0.0172956
0.0172706
0.0172403
0.0172099
0.0171828
0.0171609
0.0171458
0.017138
0.01686
0.0170421
0.0171182
0.0172102
0.0172739
0.0173042
0.0173068
0.0172896
0.0172613
0.0172287
0.0171967
0.0171684
0.0171458
0.0171301
0.0171222
0.0168675
0.0170499
0.017125
0.0172155
0.0172777
0.0173054
0.0173055
0.0172863
0.0172564
0.0172227
0.0171899
0.017161
0.017138
0.0171222
0.0171141
0.0164697
0.0164778
0.0164664
0.0165058
0.0165378
0.0165762
0.016586
0.0165937
0.0164797
0.016557
0.0165784
0.016606
0.0166297
0.0166524
0.016665
0.016672
0.0165027
0.0165782
0.0166184
0.0166586
0.0166929
0.0167198
0.016742
0.0167559
0.0167627
0.0165601
0.0165997
0.0166537
0.016699
0.0167399
0.0167748
0.0168021
0.0168226
0.0168354
0.0168415
0.0165602
0.0166074
0.0166706
0.0167258
0.0167732
0.0168136
0.0168452
0.0168681
0.0168838
0.0168932
0.0168976
0.0165027
0.0165998
0.0166706
0.0167355
0.0167912
0.0168366
0.0168715
0.0168961
0.0169121
0.0169218
0.0169271
0.0169294
0.0164798
0.0165783
0.0166537
0.0167259
0.0167912
0.0168445
0.0168839
0.0169104
0.0169264
0.0169349
0.0169388
0.0169403
0.0169406
0.016557
0.0166184
0.0166991
0.0167733
0.0168367
0.0168839
0.0169147
0.0169321
0.0169398
0.0169416
0.0169406
0.0169388
0.0169375
0.0164665
0.0165785
0.0166587
0.0167399
0.0168136
0.0168716
0.0169104
0.0169321
0.0169409
0.0169416
0.016938
0.016933
0.0169286
0.0169261
0.0165059
0.0166061
0.0166931
0.0167749
0.0168453
0.0168962
0.0169264
0.0169398
0.0169416
0.0169367
0.0169288
0.0169208
0.0169146
0.0169112
0.0165379
0.0166298
0.0167199
0.0168023
0.0168682
0.0169122
0.016935
0.0169417
0.016938
0.0169288
0.0169179
0.0169077
0.0169001
0.016896
0.0165764
0.0166526
0.0167422
0.0168228
0.016884
0.0169219
0.0169389
0.0169407
0.016933
0.0169209
0.0169077
0.0168961
0.0168875
0.016883
0.0164699
0.0165862
0.0166652
0.0167561
0.0168355
0.0168934
0.0169273
0.0169404
0.0169389
0.0169287
0.0169146
0.0169001
0.0168875
0.0168784
0.0168736
0.0164779
0.016594
0.0166723
0.0167629
0.0168417
0.0168978
0.0169296
0.0169408
0.0169376
0.0169262
0.0169113
0.0168961
0.016883
0.0168736
0.0168687
0.0161144
0.016122
0.0161131
0.0161396
0.016151
0.0161818
0.0161909
0.0161976
0.0161228
0.0161844
0.0161887
0.016212
0.0162325
0.016253
0.0162648
0.0162715
0.0161394
0.0161886
0.0162238
0.0162591
0.0162896
0.0163142
0.0163351
0.0163489
0.016356
0.0161697
0.0162063
0.0162538
0.0162956
0.0163341
0.0163682
0.0163961
0.0164179
0.0164322
0.0164393
0.0161698
0.0162133
0.0162687
0.0163198
0.0163665
0.0164085
0.0164437
0.0164712
0.0164912
0.0165039
0.0165101
0.0161395
0.0162064
0.0162687
0.0163286
0.0163841
0.0164335
0.016475
0.0165074
0.016531
0.0165473
0.0165572
0.0165619
0.0161228
0.0161886
0.0162539
0.0163198
0.0163841
0.0164421
0.0164904
0.0165277
0.0165546
0.0165729
0.0165846
0.0165914
0.0165945
0.0161844
0.0162238
0.0162956
0.0163666
0.0164335
0.0164904
0.0165342
0.0165653
0.016586
0.0165988
0.0166062
0.0166101
0.0166117
0.0161131
0.0161888
0.0162591
0.0163341
0.0164086
0.0164751
0.0165277
0.0165653
0.0165899
0.0166046
0.0166125
0.0166162
0.0166177
0.0166182
0.0161397
0.0162121
0.0162897
0.0163683
0.0164438
0.0165075
0.0165547
0.016586
0.0166046
0.0166142
0.0166181
0.0166189
0.0166185
0.016618
0.0161511
0.0162326
0.0163143
0.0163962
0.0164713
0.0165311
0.016573
0.0165988
0.0166125
0.0166181
0.0166189
0.0166175
0.0166157
0.0166145
0.016182
0.0162532
0.0163353
0.0164181
0.0164913
0.0165474
0.0165847
0.0166063
0.0166163
0.016619
0.0166175
0.0166146
0.0166117
0.01661
0.0161145
0.0161911
0.016265
0.0163491
0.0164324
0.0165041
0.0165574
0.0165916
0.0166102
0.0166178
0.0166186
0.0166157
0.0166117
0.0166082
0.0166062
0.0161221
0.0161978
0.0162717
0.0163562
0.0164395
0.0165103
0.0165621
0.0165947
0.0166119
0.0166183
0.0166181
0.0166146
0.0166101
0.0166063
0.0166041
0.0157883
0.0157949
0.0157893
0.0158076
0.0158065
0.0158311
0.0158388
0.0158443
0.0157967
0.0158471
0.0158401
0.0158594
0.0158767
0.0158944
0.0159047
0.0159106
0.0158097
0.0158402
0.0158703
0.0159007
0.0159272
0.0159487
0.0159674
0.01598
0.0159866
0.0158227
0.0158549
0.0158959
0.0159329
0.0159674
0.0159987
0.016025
0.0160461
0.0160603
0.0160675
0.0158228
0.015861
0.0159088
0.0159542
0.0159973
0.0160374
0.0160724
0.0161009
0.0161224
0.0161365
0.0161435
0.0158097
0.015855
0.0159087
0.0159619
0.0160135
0.016062
0.016105
0.0161405
0.0161679
0.0161876
0.0162002
0.0162063
0.0157968
0.0158402
0.015896
0.0159542
0.0160135
0.0160705
0.0161214
0.0161637
0.0161966
0.0162208
0.0162375
0.0162479
0.0162528
0.0158472
0.0158704
0.0159329
0.0159973
0.016062
0.0161214
0.0161713
0.0162104
0.0162391
0.0162593
0.0162727
0.0162807
0.0162844
0.0157894
0.0158402
0.0159008
0.0159675
0.0160375
0.016105
0.0161637
0.0162104
0.016245
0.0162692
0.0162854
0.0162957
0.0163016
0.0163043
0.0158078
0.0158595
0.0159273
0.0159988
0.0160725
0.0161405
0.0161967
0.0162392
0.0162692
0.0162893
0.0163021
0.0163097
0.0163139
0.0163157
0.0158066
0.0158769
0.0159488
0.0160251
0.016101
0.016168
0.0162209
0.0162594
0.0162855
0.0163021
0.0163121
0.0163177
0.0163205
0.0163216
0.0158313
0.0158946
0.0159676
0.0160462
0.0161225
0.0161877
0.0162377
0.0162728
0.0162958
0.0163098
0.0163177
0.0163218
0.0163236
0.0163243
0.0157884
0.015839
0.0159049
0.0159802
0.0160605
0.0161367
0.0162004
0.016248
0.0162808
0.0163017
0.016314
0.0163206
0.0163236
0.0163248
0.0163252
0.015795
0.0158446
0.0159109
0.0159869
0.0160677
0.0161437
0.0162065
0.016253
0.0162846
0.0163044
0.0163158
0.0163217
0.0163243
0.0163252
0.0163254
0.0154858
0.0154913
0.0154885
0.0155021
0.015492
0.0155118
0.0155181
0.0155226
0.0154945
0.0155364
0.0155215
0.0155375
0.015552
0.0155669
0.0155754
0.0155806
0.0155052
0.015522
0.0155476
0.0155734
0.0155959
0.0156143
0.0156304
0.0156414
0.0156472
0.0155066
0.0155345
0.0155695
0.0156014
0.0156315
0.0156591
0.0156826
0.0157018
0.015715
0.0157217
0.0155066
0.0155398
0.0155805
0.0156199
0.0156581
0.0156945
0.0157272
0.0157545
0.0157756
0.0157898
0.0157969
0.0155052
0.0155345
0.0155804
0.0156265
0.0156725
0.0157174
0.0157588
0.0157942
0.0158225
0.0158436
0.0158573
0.0158641
0.0154945
0.015522
0.0155695
0.0156199
0.0156725
0.0157254
0.015775
0.0158182
0.0158535
0.0158806
0.0159
0.0159124
0.0159185
0.0155365
0.0155476
0.0156014
0.0156581
0.0157175
0.015775
0.0158262
0.0158686
0.0159018
0.0159264
0.0159436
0.0159543
0.0159594
0.0154886
0.0155216
0.0155735
0.0156315
0.0156946
0.0157588
0.0158182
0.0158687
0.0159087
0.0159389
0.0159606
0.0159754
0.0159844
0.0159887
0.0155022
0.0155376
0.015596
0.0156591
0.0157273
0.0157942
0.0158535
0.0159019
0.0159389
0.0159661
0.015985
0.0159976
0.0160052
0.0160088
0.0154922
0.0155522
0.0156144
0.0156827
0.0157546
0.0158226
0.0158807
0.0159265
0.0159607
0.015985
0.0160017
0.0160125
0.0160189
0.0160219
0.015512
0.0155671
0.0156306
0.015702
0.0157758
0.0158437
0.0159001
0.0159437
0.0159754
0.0159977
0.0160126
0.0160221
0.0160276
0.0160301
0.0154859
0.0155183
0.0155757
0.0156416
0.0157152
0.01579
0.0158575
0.0159126
0.0159544
0.0159845
0.0160053
0.016019
0.0160276
0.0160326
0.0160348
0.0154914
0.0155229
0.0155809
0.0156475
0.015722
0.0157971
0.0158643
0.0159187
0.0159596
0.0159889
0.0160089
0.016022
0.0160302
0.0160348
0.0160369
0.0152018
0.0152063
0.0152057
0.0152163
0.0151999
0.0152159
0.0152208
0.0152246
0.0152107
0.0152463
0.0152257
0.015239
0.015251
0.0152632
0.0152701
0.0152744
0.01522
0.0152267
0.0152483
0.0152701
0.015289
0.0153043
0.0153177
0.0153268
0.0153318
0.0152133
0.0152374
0.0152671
0.0152942
0.0153198
0.0153434
0.0153638
0.0153805
0.0153921
0.0153981
0.0152133
0.015242
0.0152766
0.0153101
0.015343
0.0153749
0.0154041
0.0154289
0.0154485
0.0154618
0.0154685
0.01522
0.0152374
0.0152765
0.0153158
0.0153557
0.0153955
0.0154332
0.0154665
0.0154939
0.0155146
0.0155284
0.0155353
0.0152107
0.0152267
0.0152671
0.0153101
0.0153557
0.0154027
0.0154485
0.0154898
0.0155248
0.0155526
0.015573
0.0155863
0.0155929
0.0152463
0.0152483
0.0152942
0.015343
0.0153955
0.0154485
0.0154977
0.0155403
0.015575
0.0156017
0.0156208
0.0156331
0.0156391
0.0152057
0.0152257
0.0152701
0.0153199
0.0153749
0.0154333
0.0154899
0.0155403
0.0155824
0.0156156
0.0156405
0.015658
0.0156691
0.0156744
0.0152164
0.0152391
0.015289
0.0153435
0.0154041
0.0154666
0.0155249
0.0155751
0.0156156
0.0156468
0.0156698
0.0156857
0.0156956
0.0157004
0.0152
0.0152512
0.0153044
0.0153639
0.015429
0.015494
0.0155527
0.0156017
0.0156405
0.0156698
0.015691
0.0157055
0.0157145
0.0157188
0.0152161
0.0152635
0.0153179
0.0153807
0.0154486
0.0155148
0.0155731
0.0156209
0.0156581
0.0156857
0.0157055
0.0157189
0.0157272
0.0157311
0.0152019
0.0152211
0.0152704
0.0153271
0.0153923
0.015462
0.0155286
0.0155865
0.0156333
0.0156692
0.0156957
0.0157145
0.0157272
0.015735
0.0157387
0.0152065
0.0152249
0.0152748
0.0153321
0.0153984
0.0154688
0.0155355
0.0155931
0.0156393
0.0156746
0.0157005
0.0157189
0.0157312
0.0157387
0.0157423
0.014932
0.0149359
0.0149369
0.0149462
0.0149248
0.0149379
0.0149414
0.0149446
0.0149415
0.0149722
0.0149477
0.0149588
0.0149685
0.0149784
0.0149836
0.0149872
0.0149499
0.0149493
0.0149675
0.0149857
0.0150012
0.0150135
0.0150243
0.0150316
0.0150356
0.0149379
0.0149587
0.0149838
0.0150064
0.0150276
0.0150471
0.015064
0.0150779
0.0150877
0.0150928
0.0149379
0.0149627
0.0149919
0.0150199
0.0150474
0.0150743
0.0150993
0.0151209
0.0151381
0.01515
0.0151561
0.0149498
0.0149586
0.0149918
0.0150248
0.0150582
0.0150923
0.0151253
0.0151552
0.0151802
0.0151996
0.0152126
0.0152192
0.0149414
0.0149492
0.0149837
0.0150199
0.0150582
0.0150986
0.015139
0.0151768
0.0152097
0.0152364
0.0152565
0.0152698
0.0152764
0.0149722
0.0149674
0.0150063
0.0150474
0.0150923
0.015139
0.0151842
0.0152246
0.0152587
0.0152856
0.0153054
0.0153184
0.0153247
0.0149369
0.0149477
0.0149856
0.0150276
0.0150743
0.0151253
0.0151768
0.0152247
0.0152661
0.0153001
0.0153263
0.0153452
0.0153574
0.0153634
0.0149463
0.0149588
0.0150012
0.0150472
0.0150994
0.0151552
0.0152097
0.0152587
0.0153001
0.0153331
0.0153582
0.015376
0.0153875
0.015393
0.014925
0.0149686
0.0150136
0.0150641
0.015121
0.0151803
0.0152365
0.0152857
0.0153263
0.0153582
0.0153821
0.015399
0.0154097
0.0154149
0.0149382
0.0149786
0.0150245
0.0150781
0.0151383
0.0151997
0.0152566
0.0153055
0.0153453
0.0153761
0.015399
0.0154151
0.0154252
0.0154301
0.0149322
0.0149418
0.0149839
0.0150319
0.0150879
0.0151502
0.0152128
0.01527
0.0153185
0.0153575
0.0153876
0.0154097
0.0154253
0.015435
0.0154398
0.0149361
0.014945
0.0149875
0.015036
0.0150931
0.0151564
0.0152194
0.0152766
0.0153249
0.0153635
0.0153932
0.015415
0.0154302
0.0154398
0.0154444
0.0146731
0.0146767
0.0146792
0.0146877
0.0146634
0.0146742
0.0146761
0.0146789
0.0146838
0.0147112
0.0146843
0.0146932
0.0147007
0.0147084
0.0147119
0.0147148
0.0146919
0.0146865
0.0147016
0.0147164
0.0147287
0.0147381
0.0147462
0.0147515
0.0147547
0.0146769
0.0146948
0.0147157
0.014734
0.0147509
0.0147663
0.0147795
0.0147905
0.0147982
0.0148023
0.0146768
0.0146982
0.0147226
0.0147454
0.0147674
0.0147891
0.0148095
0.0148274
0.0148418
0.0148518
0.014857
0.0146918
0.0146947
0.0147226
0.0147494
0.0147764
0.0148043
0.0148319
0.0148574
0.0148794
0.0148966
0.0149084
0.0149143
0.0146836
0.0146863
0.0147156
0.0147453
0.0147764
0.0148096
0.0148438
0.0148768
0.0149063
0.0149309
0.0149498
0.0149624
0.0149688
0.014711
0.0147014
0.0147339
0.0147674
0.0148043
0.0148438
0.0148834
0.0149202
0.0149522
0.0149781
0.0149975
0.0150104
0.0150167
0.0146791
0.0146841
0.0147163
0.0147508
0.0147891
0.0148319
0.0148768
0.0149203
0.0149593
0.0149923
0.0150185
0.0150377
0.0150504
0.0150566
0.0146877
0.0146932
0.0147287
0.0147663
0.0148095
0.0148575
0.0149064
0.0149522
0.0149923
0.0150254
0.0150512
0.01507
0.0150822
0.0150882
0.0146636
0.0147008
0.0147382
0.0147796
0.0148274
0.0148794
0.014931
0.0149781
0.0150185
0.0150512
0.0150765
0.0150947
0.0151064
0.0151122
0.0146745
0.0147086
0.0147464
0.0147907
0.014842
0.0148967
0.0149499
0.0149976
0.0150378
0.0150701
0.0150947
0.0151124
0.0151237
0.0151293
0.0146734
0.0146765
0.0147123
0.0147518
0.0147984
0.0148521
0.0149086
0.0149626
0.0150105
0.0150505
0.0150823
0.0151065
0.0151238
0.0151349
0.0151403
0.0146771
0.0146793
0.0147153
0.0147551
0.0148026
0.0148574
0.0149146
0.014969
0.0150169
0.0150568
0.0150883
0.0151123
0.0151293
0.0151403
0.0151456
0.0144228
0.0144262
0.0144307
0.0144387
0.0144138
0.0144223
0.0144222
0.0144248
0.0144354
0.0144608
0.0144329
0.0144398
0.0144449
0.0144502
0.014452
0.0144543
0.0144438
0.0144358
0.0144481
0.0144596
0.0144686
0.0144748
0.01448
0.0144833
0.0144855
0.0144287
0.0144433
0.0144602
0.0144741
0.0144865
0.0144976
0.0145069
0.0145147
0.0145201
0.0145232
0.0144286
0.0144462
0.0144659
0.0144832
0.0144997
0.0145158
0.0145313
0.0145451
0.0145564
0.0145644
0.0145687
0.0144435
0.0144431
0.0144658
0.0144864
0.0145067
0.014528
0.0145498
0.0145706
0.0145888
0.0146035
0.0146137
0.0146189
0.0144351
0.0144355
0.0144599
0.0144831
0.0145066
0.0145323
0.0145598
0.0145873
0.0146127
0.0146345
0.0146515
0.0146631
0.014669
0.0144604
0.0144478
0.0144739
0.0144995
0.014528
0.0145598
0.0145931
0.0146252
0.0146541
0.0146781
0.0146965
0.0147088
0.014715
0.0144305
0.0144326
0.0144594
0.0144863
0.0145157
0.0145498
0.0145873
0.0146252
0.0146608
0.0146917
0.0147169
0.0147358
0.0147483
0.0147546
0.0144386
0.0144397
0.0144685
0.0144975
0.0145313
0.0145706
0.0146127
0.0146541
0.0146917
0.0147237
0.0147493
0.0147682
0.0147807
0.0147869
0.014414
0.014445
0.0144749
0.014507
0.0145452
0.0145889
0.0146346
0.0146782
0.0147169
0.0147493
0.0147748
0.0147936
0.0148059
0.0148119
0.0144226
0.0144504
0.0144802
0.0145149
0.0145566
0.0146036
0.0146517
0.0146966
0.0147359
0.0147683
0.0147936
0.0148121
0.0148242
0.0148301
0.0144232
0.0144226
0.0144523
0.0144836
0.0145204
0.0145647
0.0146139
0.0146633
0.014709
0.0147485
0.0147808
0.0148059
0.0148242
0.0148361
0.0148419
0.0144267
0.0144253
0.0144548
0.0144859
0.0145236
0.014569
0.0146192
0.0146693
0.0147152
0.0147548
0.014787
0.014812
0.0148302
0.014842
0.0148478
0.0141784
0.014182
0.0141895
0.0141977
0.0141752
0.0141806
0.0141777
0.0141806
0.0141944
0.0142194
0.0141924
0.0141969
0.0141989
0.0142012
0.0142009
0.0142028
0.0142035
0.014196
0.0142052
0.0142129
0.0142182
0.0142206
0.0142224
0.0142233
0.0142247
0.0141939
0.0142021
0.0142149
0.014224
0.0142313
0.0142376
0.0142426
0.0142469
0.01425
0.014252
0.0141938
0.0142044
0.0142189
0.0142304
0.0142406
0.0142509
0.0142612
0.0142707
0.0142788
0.0142847
0.0142879
0.014203
0.0142018
0.0142187
0.0142325
0.0142456
0.01426
0.0142756
0.0142914
0.0143058
0.0143177
0.0143262
0.0143306
0.0141938
0.0141954
0.0142145
0.0142302
0.0142455
0.0142632
0.0142836
0.0143053
0.0143264
0.014345
0.01436
0.0143704
0.0143757
0.0142188
0.0142047
0.0142236
0.0142404
0.0142599
0.0142835
0.0143102
0.0143374
0.0143628
0.0143845
0.0144015
0.0144131
0.0144189
0.0141889
0.0141918
0.0142125
0.0142309
0.0142507
0.0142755
0.0143053
0.0143374
0.0143688
0.0143972
0.0144209
0.014439
0.0144512
0.0144573
0.0141973
0.0141966
0.0142179
0.0142374
0.0142611
0.0142913
0.0143264
0.0143628
0.0143972
0.0144275
0.0144522
0.0144709
0.0144833
0.0144895
0.0141752
0.0141989
0.0142206
0.0142426
0.0142707
0.0143058
0.0143451
0.0143846
0.0144209
0.0144522
0.0144775
0.0144963
0.0145087
0.0145149
0.014181
0.0142015
0.0142226
0.0142471
0.0142789
0.0143178
0.0143601
0.0144016
0.0144391
0.0144709
0.0144963
0.0145151
0.0145275
0.0145337
0.0141789
0.0141783
0.0142013
0.0142237
0.0142503
0.0142849
0.0143264
0.0143706
0.0144132
0.0144513
0.0144834
0.0145088
0.0145276
0.0145399
0.014546
0.0141826
0.0141812
0.0142034
0.0142252
0.0142524
0.0142882
0.0143309
0.014376
0.0144191
0.0144575
0.0144896
0.014515
0.0145337
0.014546
0.0145521
0.0139359
0.0139402
0.0139526
0.0139629
0.0139489
0.0139484
0.013941
0.013945
0.0139579
0.0139863
0.0139626
0.0139633
0.0139607
0.0139588
0.0139556
0.0139575
0.013969
0.0139667
0.0139717
0.0139737
0.013974
0.0139717
0.0139695
0.0139676
0.0139682
0.013983
0.0139693
0.0139771
0.01398
0.013981
0.0139818
0.0139822
0.0139829
0.0139836
0.0139846
0.0139827
0.0139702
0.0139777
0.0139827
0.0139859
0.0139899
0.0139948
0.014
0.014005
0.0140089
0.0140112
0.0139682
0.0139688
0.0139775
0.0139833
0.0139884
0.0139956
0.0140052
0.0140161
0.0140269
0.0140363
0.0140432
0.0140468
0.0139567
0.0139658
0.0139764
0.0139824
0.0139883
0.0139977
0.0140112
0.0140275
0.0140444
0.0140602
0.0140732
0.0140824
0.0140872
0.013985
0.0139707
0.0139794
0.0139856
0.0139955
0.0140111
0.0140315
0.014054
0.0140761
0.0140956
0.0141112
0.014122
0.0141275
0.0139515
0.0139617
0.013973
0.0139805
0.0139896
0.0140051
0.0140274
0.014054
0.0140816
0.0141075
0.0141296
0.0141469
0.0141586
0.0141645
0.0139621
0.0139627
0.0139736
0.0139815
0.0139946
0.0140161
0.0140444
0.0140761
0.0141075
0.0141359
0.0141597
0.0141778
0.0141901
0.0141962
0.0139485
0.0139606
0.0139716
0.0139822
0.014
0.0140269
0.0140602
0.0140957
0.0141297
0.0141597
0.0141843
0.014203
0.0142155
0.0142217
0.0139492
0.0139592
0.0139697
0.0139831
0.0140051
0.0140364
0.0140733
0.0141113
0.014147
0.0141779
0.014203
0.0142219
0.0142345
0.0142407
0.0139367
0.0139418
0.0139562
0.013968
0.0139839
0.0140091
0.0140434
0.0140826
0.0141222
0.0141587
0.0141902
0.0142155
0.0142345
0.014247
0.0142533
0.013941
0.0139458
0.0139581
0.0139687
0.0139851
0.0140116
0.0140472
0.0140874
0.0141277
0.0141647
0.0141964
0.0142218
0.0142408
0.0142533
0.0142595
0.0136868
0.0136937
0.013713
0.013732
0.0137395
0.0137252
0.0137092
0.0137166
0.0137196
0.0137628
0.013744
0.0137377
0.013727
0.0137187
0.0137112
0.0137136
0.013738
0.013748
0.013745
0.0137373
0.0137303
0.0137215
0.013715
0.0137101
0.0137102
0.0138224
0.0137468
0.0137415
0.0137361
0.0137295
0.013724
0.0137194
0.0137169
0.0137155
0.0137159
0.0138219
0.01375
0.0137384
0.0137337
0.0137292
0.0137267
0.0137266
0.0137281
0.0137307
0.0137331
0.0137348
0.0137367
0.0137461
0.013738
0.0137325
0.0137291
0.0137295
0.0137337
0.0137407
0.0137486
0.0137561