/*--------------------------------*- C++ -*----------------------------------*\
| =========                 |                                                 |
| \\      /  F ield         | OpenFOAM: The Open Source CFD Toolbox           |
|  \\    /   O peration     | Version:  2.1.1                                 |
|   \\  /    A nd           | Web:      www.OpenFOAM.org                      |
|    \\/     M anipulation  |                                                 |
\*---------------------------------------------------------------------------*/
FoamFile
{
    version     2.0;
    format      ascii;
    class       volVectorField;
    location    "0.003";
    object      U;
}
// * * * * * * * * * * * * * * * * * * * * * * * * * * * * * * * * * * * * * //

dimensions      [0 1 -1 0 0 0 0];

internalField   nonuniform List<vector> 
10266
(
(-6.91198e-07 -0.00497936 0.0217198)
(-0.000706039 -0.0046817 0.0197431)
(-0.00150375 -0.00127513 0.0104429)
(-3.66441e-05 -0.00026073 0.0882684)
(9.33634e-05 -0.00026812 0.0889321)
(-0.000116037 -0.000172551 0.0938013)
(0.000342064 -0.000494516 0.0752341)
(0.00143333 -0.00588833 0.0290419)
(0.00047037 -0.00324411 0.0180597)
(-9.55246e-06 0.000184931 0.112815)
(-5.56206e-05 0.000220984 0.113274)
(-3.58135e-05 0.000101033 0.116116)
(-0.000150726 0.000384507 0.113431)
(-0.00018915 -0.000278162 0.0886182)
(0.000391166 -0.00033622 0.0720688)
(0.00185225 -0.00882013 0.0308947)
(-0.000454841 -0.00451623 0.0192888)
(-4.76082e-06 -0.000161661 0.112288)
(6.13043e-05 -0.00015761 0.112541)
(3.90888e-05 -0.000118254 0.113454)
(0.000127627 -0.000145266 0.11473)
(0.00017846 4.83219e-05 0.114018)
(-9.41331e-05 0.000266656 0.112154)
(-2.99819e-05 -0.000370071 0.0876239)
(0.000400819 -0.000396434 0.0737506)
(0.000609018 -0.00602817 0.0313637)
(-0.00185443 -0.00423088 0.0149288)
(-7.74795e-06 6.76442e-05 0.111953)
(-1.74503e-05 7.156e-05 0.112107)
(-3.06037e-05 2.65045e-05 0.11231)
(-3.3881e-05 4.6308e-05 0.112592)
(-6.61254e-05 -6.65642e-05 0.113108)
(5.38136e-05 -4.11709e-05 0.114232)
(0.000100443 8.74514e-05 0.113531)
(-0.000132135 0.000306939 0.112379)
(-0.000230215 -0.000347224 0.0887372)
(0.000587543 -0.000468674 0.0705234)
(-0.0116403 0.0024048 0.0164895)
(1.99485e-07 -8.97734e-05 0.112156)
(2.40816e-05 -8.49339e-05 0.11224)
(2.07103e-05 -7.19315e-05 0.112317)
(3.27793e-05 -6.11079e-05 0.112289)
(2.29051e-05 -4.41928e-05 0.112187)
(-2.11681e-05 -8.73416e-06 0.112208)
(1.13964e-06 -9.89103e-05 0.112652)
(3.6726e-06 -4.43283e-05 0.11375)
(0.000291248 5.2707e-05 0.11355)
(-0.000566693 0.000567045 0.112519)
(0.000466802 -0.000587521 0.0705586)
(-0.00860877 0.0041673 0.0188846)
(-3.44616e-06 4.22897e-07 0.112303)
(-1.10444e-06 6.34903e-07 0.112333)
(-6.64882e-06 -1.15619e-05 0.11236)
(-1.8889e-06 -7.56821e-06 0.112327)
(-8.48864e-06 -2.47885e-05 0.112201)
(5.74331e-07 -1.55503e-05 0.112004)
(1.3445e-06 4.97337e-06 0.111813)
(-4.97314e-05 -6.20613e-06 0.111773)
(-1.92368e-05 1.8795e-05 0.112625)
(-5.33512e-05 -0.000291949 0.113563)
(0.000347451 0.000229185 0.0887343)
(-0.000615548 -0.00141436 0.0271221)
(5.91914e-07 -5.894e-05 0.112381)
(1.24044e-05 -5.6517e-05 0.112384)
(1.26016e-05 -5.19806e-05 0.112378)
(1.97627e-05 -4.51975e-05 0.112339)
(1.69901e-05 -3.79131e-05 0.11225)
(1.39341e-05 -2.77148e-05 0.112115)
(1.41227e-05 -2.14244e-05 0.111931)
(1.97849e-05 -2.0226e-05 0.11168)
(5.68768e-06 4.92803e-05 0.111783)
(4.40929e-05 -4.21049e-06 0.113766)
(-0.000307622 0.000132047 0.112388)
(0.000396133 -0.000401086 0.0737528)
(0.00141624 -0.00215766 0.0296277)
(-9.225e-07 -2.38755e-05 0.112447)
(5.74881e-06 -2.3489e-05 0.112438)
(4.53521e-06 -2.50816e-05 0.112417)
(1.19388e-05 -2.32466e-05 0.11237)
(8.80654e-06 -2.33475e-05 0.112296)
(1.7402e-05 -2.04886e-05 0.1122)
(1.07025e-05 -1.12357e-05 0.112088)
(2.09603e-05 -1.45952e-05 0.111936)
(-5.49846e-06 -1.92919e-06 0.111822)
(9.86031e-05 -1.60039e-06 0.11266)
(-8.79141e-05 -0.000101233 0.113536)
(0.000369939 2.97938e-05 0.0876239)
(0.00042849 -0.00447256 0.0268331)
(0.000426031 -0.00252143 0.0166191)
(1.00869e-06 -4.42789e-05 0.112502)
(1.12354e-05 -4.29606e-05 0.112489)
(1.28705e-05 -4.01321e-05 0.112462)
(2.14332e-05 -3.64571e-05 0.112416)
(1.9624e-05 -3.10104e-05 0.112353)
(2.58624e-05 -2.63613e-05 0.112277)
(2.00125e-05 -1.8045e-05 0.112201)
(2.72166e-05 -1.43984e-05 0.112118)
(1.50405e-05 -1.23989e-06 0.112008)
(8.35899e-06 2.06693e-05 0.112211)
(4.06168e-05 -5.45878e-05 0.114233)
(-0.000267246 9.33828e-05 0.112152)
(0.000335762 -0.00039168 0.0720663)
(0.00157934 -0.00269692 0.0314656)
(4.17403e-07 -2.50132e-05 0.112557)
(9.87668e-06 -2.48034e-05 0.112542)
(1.1026e-05 -2.38497e-05 0.112514)
(2.10454e-05 -2.32198e-05 0.11247)
(1.89048e-05 -1.95516e-05 0.112415)
(3.03661e-05 -2.01115e-05 0.112353)
(2.28426e-05 -9.51172e-06 0.112296)
(3.74211e-05 -1.75218e-05 0.112251)
(2.42216e-05 7.75716e-06 0.112201)
(4.3789e-05 -2.36042e-05 0.112187)
(6.58454e-05 6.56163e-05 0.113106)
(-4.88182e-05 -0.000179099 0.114014)
(0.000277484 0.000188936 0.0886141)
(-0.000176174 -0.00433751 0.0269506)
(1.23483e-06 -3.02596e-05 0.11261)
(1.23947e-05 -2.9652e-05 0.112594)
(1.44491e-05 -2.76473e-05 0.112564)
(2.57169e-05 -2.64733e-05 0.112522)
(2.27325e-05 -2.18705e-05 0.112471)
(3.5898e-05 -2.21748e-05 0.112416)
(2.27221e-05 -1.27812e-05 0.11237)
(4.46681e-05 -2.04784e-05 0.112338)
(6.88827e-06 9.38776e-07 0.112325)
(6.09528e-05 -3.37212e-05 0.112286)
(-4.67715e-05 3.31289e-05 0.112586)
(0.000144816 -0.000128426 0.11472)
(-0.00038513 0.000150157 0.113419)
(0.000494213 -0.000342217 0.075226)
(-0.00657625 -0.00230341 0.0221048)
(9.46538e-07 -1.60914e-05 0.112663)
(1.24865e-05 -1.59839e-05 0.112645)
(1.42062e-05 -1.48823e-05 0.112612)
(2.6822e-05 -1.50373e-05 0.112567)
(2.32146e-05 -1.17065e-05 0.112515)
(3.94662e-05 -1.35308e-05 0.112462)
(2.45997e-05 -5.23308e-06 0.112416)
(5.13769e-05 -1.32815e-05 0.112377)
(1.07681e-05 5.92732e-06 0.112357)
(7.17175e-05 -2.13989e-05 0.112312)
(-2.70601e-05 2.99959e-05 0.112302)
(0.000117955 -3.96328e-05 0.11344)
(-0.000101161 3.5371e-05 0.116096)
(0.000172413 0.000116022 0.0937859)
(-0.00668592 0.00298178 0.0250827)
(1.31311e-06 -1.4661e-05 0.112712)
(1.36032e-05 -1.44342e-05 0.112688)
(1.53969e-05 -1.34749e-05 0.112647)
(2.88906e-05 -1.33894e-05 0.112596)
(2.42397e-05 -1.09651e-05 0.112543)
(4.23807e-05 -1.21913e-05 0.112488)
(2.29428e-05 -6.72761e-06 0.112437)
(5.59613e-05 -1.33695e-05 0.112383)
(-1.32299e-06 2.07106e-07 0.112331)
(8.48935e-05 -2.50728e-05 0.112236)
(-7.18586e-05 1.65675e-05 0.112099)
(0.00015734 -6.2044e-05 0.112526)
(-0.000221207 5.49331e-05 0.113251)
(0.000267779 -9.40096e-05 0.0889151)
(0.00152428 -0.00108396 0.0320731)
(9.18581e-07 -1.79289e-06 0.112745)
(1.36721e-05 -1.92111e-06 0.112713)
(1.52492e-05 -1.78921e-06 0.112665)
(2.93309e-05 -1.90537e-06 0.112611)
(2.44144e-05 -1.22073e-06 0.112557)
(4.37204e-05 -1.70024e-06 0.112502)
(2.33826e-05 1.32029e-07 0.112447)
(5.84157e-05 -1.30801e-06 0.112381)
(-1.24594e-06 2.61343e-06 0.112301)
(8.95794e-05 -9.6316e-07 0.112153)
(-6.79397e-05 6.88593e-06 0.111949)
(0.000161562 4.02033e-06 0.112281)
(-0.000185279 8.81227e-06 0.112804)
(0.000260044 3.5698e-05 0.0882608)
(0.0014786 0.000150984 0.029339)
(-5.96442e-07 -0.00497946 0.0217201)
(-0.000705959 -0.00468174 0.0197436)
(-0.00150379 -0.00127505 0.0104433)
(-3.61586e-05 -0.000259279 0.088273)
(9.35491e-05 -0.000267445 0.0889367)
(-0.000115917 -0.000171621 0.0938065)
(0.000342651 -0.000494118 0.0752383)
(0.00143358 -0.00588816 0.0290429)
(0.000470633 -0.00324424 0.0180602)
(-1.04742e-05 0.000186659 0.112819)
(-5.61152e-05 0.000222785 0.113278)
(-3.66819e-05 0.000102071 0.11612)
(-0.000152525 0.000385887 0.113436)
(-0.000189874 -0.000277313 0.0886217)
(0.000390832 -0.000336071 0.0720719)
(0.00185216 -0.00882001 0.0308957)
(-0.000454705 -0.00451625 0.0192893)
(-4.21116e-06 -0.000156631 0.112293)
(6.10875e-05 -0.000152189 0.112545)
(3.89917e-05 -0.000114436 0.113459)
(0.000128177 -0.000141249 0.114735)
(0.000178448 5.00598e-05 0.114023)
(-9.39997e-05 0.000268956 0.112159)
(-3.00346e-05 -0.000369227 0.0876276)
(0.000401461 -0.000396255 0.0737542)
(0.000609411 -0.00602847 0.0313648)
(-0.00185469 -0.00423098 0.0149291)
(-8.26995e-06 7.26809e-05 0.111955)
(-1.91857e-05 7.60125e-05 0.112108)
(-3.29012e-05 3.15085e-05 0.112313)
(-3.77772e-05 5.0219e-05 0.112595)
(-6.85194e-05 -6.24545e-05 0.113111)
(5.33625e-05 -3.8128e-05 0.114236)
(9.87627e-05 8.904e-05 0.113535)
(-0.000133493 0.00030839 0.112384)
(-0.000231278 -0.000347095 0.0887408)
(0.000587866 -0.000469102 0.0705266)
(-0.0116406 0.00240419 0.0164914)
(2.01858e-07 -8.60845e-05 0.112158)
(2.38469e-05 -8.1069e-05 0.112242)
(2.01032e-05 -6.80105e-05 0.112319)
(3.24211e-05 -5.69668e-05 0.112291)
(2.19427e-05 -3.92801e-05 0.11219)
(-2.35614e-05 -4.76372e-06 0.112212)
(-5.66442e-07 -9.63012e-05 0.112655)
(2.77107e-06 -4.23991e-05 0.113755)
(0.000289401 5.38004e-05 0.113554)
(-0.000567318 0.000567516 0.112525)
(0.00046712 -0.000587481 0.0705617)
(-0.00860904 0.00416759 0.0188855)
(-3.84743e-06 1.06102e-05 0.112302)
(-2.64915e-06 1.04545e-05 0.112333)
(-8.70269e-06 -2.63321e-06 0.11236)
(-4.78074e-06 6.80363e-07 0.112327)
(-1.105e-05 -1.84958e-05 0.112201)
(-2.20364e-06 -1.01164e-05 0.112005)
(-2.40269e-06 9.60847e-06 0.111815)
(-5.26193e-05 -2.75147e-06 0.111776)
(-2.18647e-05 2.12264e-05 0.112629)
(-5.44556e-05 -0.000290272 0.113567)
(0.000347144 0.000230126 0.0887379)
(-0.000615731 -0.00141448 0.0271238)
(2.28645e-07 -5.1153e-05 0.112379)
(1.09257e-05 -4.89201e-05 0.112382)
(1.04378e-05 -4.45179e-05 0.112377)
(1.67801e-05 -3.84858e-05 0.112338)
(1.32256e-05 -3.13841e-05 0.11225)
(9.88918e-06 -2.30097e-05 0.112116)
(1.04284e-05 -1.68417e-05 0.111932)
(1.66706e-05 -1.72342e-05 0.111682)
(2.06085e-06 5.21328e-05 0.111786)
(4.21607e-05 -3.34001e-06 0.11377)
(-0.000309019 0.00013337 0.112393)
(0.000396079 -0.000401561 0.0737566)
(0.00141666 -0.0021573 0.0296286)
(-1.52009e-06 -1.5712e-05 0.112443)
(3.87431e-06 -1.55801e-05 0.112434)
(1.59545e-06 -1.73574e-05 0.112413)
(8.12431e-06 -1.62812e-05 0.112367)
(4.2495e-06 -1.67744e-05 0.112293)
(1.26925e-05 -1.47964e-05 0.112199)
(5.24998e-06 -5.96198e-06 0.112088)
(1.63374e-05 -1.101e-05 0.111936)
(-1.02639e-05 1.69272e-06 0.111824)
(9.59447e-05 6.31761e-08 0.112664)
(-8.95178e-05 -9.96231e-05 0.11354)
(0.000369215 2.98127e-05 0.0876277)
(0.000428654 -0.00447258 0.0268337)
(0.000425981 -0.00252166 0.0166197)
(3.95716e-07 -3.7018e-05 0.112496)
(9.31788e-06 -3.58806e-05 0.112483)
(9.76499e-06 -3.31972e-05 0.112457)
(1.73057e-05 -3.00659e-05 0.112412)
(1.45937e-05 -2.49857e-05 0.112349)
(2.05187e-05 -2.11402e-05 0.112275)
(1.42116e-05 -1.34739e-05 0.1122)
(2.24421e-05 -1.03346e-05 0.112119)
(9.49147e-06 1.37264e-06 0.112009)
(4.40117e-06 2.30473e-05 0.112215)
(3.75664e-05 -5.42225e-05 0.114236)
(-0.000269432 9.31659e-05 0.112156)
(0.000335834 -0.000391579 0.0720695)
(0.00157924 -0.00269699 0.0314667)
(-3.62566e-07 -1.81995e-05 0.112549)
(7.6764e-06 -1.81354e-05 0.112535)
(7.39872e-06 -1.7388e-05 0.112507)
(1.63235e-05 -1.72658e-05 0.112464)
(1.31797e-05 -1.39386e-05 0.11241)
(2.42024e-05 -1.51825e-05 0.11235)
(1.62316e-05 -5.04778e-06 0.112294)
(3.08264e-05 -1.37827e-05 0.112251)
(1.77672e-05 1.02583e-05 0.112202)
(3.89026e-05 -2.2687e-05 0.112189)
(6.16379e-05 6.79286e-05 0.113109)
(-5.06239e-05 -0.000179199 0.114018)
(0.00027689 0.000189462 0.0886175)
(-0.000176723 -0.00433795 0.0269513)
(4.74717e-07 -2.48563e-05 0.112601)
(1.01257e-05 -2.43911e-05 0.112586)
(1.06306e-05 -2.25284e-05 0.112557)
(2.07411e-05 -2.16433e-05 0.112515)
(1.66764e-05 -1.73223e-05 0.112465)
(2.94022e-05 -1.81344e-05 0.112412)
(1.57233e-05 -9.08679e-06 0.112367)
(3.79199e-05 -1.74809e-05 0.112337)
(-1.49247e-06 3.63682e-06 0.112325)
(5.68072e-05 -3.3482e-05 0.112288)
(-5.07519e-05 3.682e-05 0.112589)
(0.000140731 -0.00012913 0.114725)
(-0.00038657 0.000151769 0.113424)
(0.000493525 -0.000343186 0.07523)
(-0.00657638 -0.00230287 0.0221052)
(1.3882e-07 -1.18985e-05 0.112654)
(1.00017e-05 -1.1919e-05 0.112636)
(1.01476e-05 -1.0924e-05 0.112603)
(2.15286e-05 -1.12908e-05 0.112559)
(1.66989e-05 -8.17527e-06 0.112508)
(3.24459e-05 -1.04326e-05 0.112457)
(1.69399e-05 -2.37878e-06 0.112412)
(4.37747e-05 -1.12322e-05 0.112375)
(1.54424e-06 7.9293e-06 0.112357)
(6.78144e-05 -2.08517e-05 0.112314)
(-3.21862e-05 3.22777e-05 0.112304)
(0.000114102 -3.95643e-05 0.113444)
(-0.000102289 3.62342e-05 0.1161)
(0.000170858 0.000115887 0.093791)
(-0.00668578 0.00298186 0.0250835)
(4.95975e-07 -1.22572e-05 0.112702)
(1.10994e-05 -1.20438e-05 0.112678)
(1.12594e-05 -1.11432e-05 0.112638)
(2.34874e-05 -1.11387e-05 0.112588)
(1.75344e-05 -8.82389e-06 0.112535)
(3.52065e-05 -1.03547e-05 0.112483)
(1.48933e-05 -4.98915e-06 0.112433)
(4.83611e-05 -1.22202e-05 0.11238)
(-1.12201e-05 1.75191e-06 0.11233)
(8.10594e-05 -2.49028e-05 0.112238)
(-7.63474e-05 1.82884e-05 0.1121)
(0.000151891 -6.16582e-05 0.112531)
(-0.000222902 5.56253e-05 0.113255)
(0.000267333 -9.39618e-05 0.0889198)
(0.00152471 -0.00108376 0.0320741)
(2.51244e-07 -1.11173e-06 0.112735)
(1.1115e-05 -1.08712e-06 0.112703)
(1.10509e-05 -9.37539e-07 0.112655)
(2.38472e-05 -1.12984e-06 0.112602)
(1.74843e-05 -4.51777e-07 0.11255)
(3.62968e-05 -1.09242e-06 0.112496)
(1.50348e-05 6.93938e-07 0.112442)
(5.06251e-05 -9.58691e-07 0.112378)
(-1.14642e-05 2.9802e-06 0.1123)
(8.58912e-05 -8.89128e-07 0.112155)
(-7.28637e-05 7.35849e-06 0.111951)
(0.000156748 3.65979e-06 0.112286)
(-0.000186729 9.94722e-06 0.112809)
(0.000259047 3.54374e-05 0.0882658)
(0.00147911 0.000150821 0.02934)
(-3.90375e-07 -0.00497942 0.0217206)
(-0.000705699 -0.00468178 0.0197441)
(-0.00150394 -0.00127498 0.0104435)
(-3.56755e-05 -0.000257619 0.0882767)
(9.37316e-05 -0.000266413 0.0889405)
(-0.000115948 -0.000170464 0.0938107)
(0.000343204 -0.000493536 0.0752415)
(0.00143362 -0.00588833 0.029044)
(0.000470774 -0.00324439 0.018061)
(-1.09891e-05 0.000188009 0.112822)
(-5.65073e-05 0.000223824 0.113282)
(-3.77123e-05 0.000102765 0.116124)
(-0.000154091 0.000386971 0.11344)
(-0.000190439 -0.000276635 0.0886245)
(0.000390711 -0.000335895 0.0720745)
(0.00185219 -0.00881997 0.0308966)
(-0.000454686 -0.00451627 0.01929)
(-4.01435e-06 -0.000152628 0.112297)
(6.08218e-05 -0.000148574 0.112549)
(3.91073e-05 -0.000111642 0.113463)
(0.000128679 -0.000137997 0.114739)
(0.000178523 5.1459e-05 0.114027)
(-9.3787e-05 0.000270636 0.112163)
(-3.00617e-05 -0.000368756 0.0876306)
(0.000401924 -0.000396214 0.073757)
(0.000609443 -0.00602861 0.0313659)
(-0.0018547 -0.00423108 0.0149296)
(-9.1278e-06 7.6425e-05 0.111956)
(-2.08244e-05 7.96955e-05 0.112109)
(-3.43451e-05 3.54042e-05 0.112314)
(-4.07621e-05 5.31996e-05 0.112597)
(-7.06052e-05 -5.9297e-05 0.113114)
(5.29437e-05 -3.57611e-05 0.114239)
(9.7319e-05 9.00856e-05 0.113538)
(-0.000134789 0.000309455 0.112387)
(-0.000232288 -0.000346989 0.0887434)
(0.000587413 -0.000469277 0.070529)
(-0.0116414 0.00240502 0.0164905)
(3.67923e-07 -8.30968e-05 0.112159)
(2.37536e-05 -7.75115e-05 0.112244)
(1.95484e-05 -6.51109e-05 0.112321)
(3.21779e-05 -5.38223e-05 0.112294)
(2.1338e-05 -3.58433e-05 0.112191)
(-2.54751e-05 -1.91136e-06 0.112214)
(-1.97564e-06 -9.42613e-05 0.112658)
(2.05862e-06 -4.10194e-05 0.113758)
(0.000287976 5.46476e-05 0.113558)
(-0.000567695 0.00056802 0.112529)
(0.000468083 -0.000587519 0.0705642)
(-0.00860934 0.00416779 0.0188863)
(-4.188e-06 1.83407e-05 0.112302)
(-4.41359e-06 1.78512e-05 0.112333)
(-1.0585e-05 4.47237e-06 0.11236)
(-7.21543e-06 7.21995e-06 0.112327)
(-1.34182e-05 -1.3476e-05 0.112201)
(-4.0339e-06 -5.85904e-06 0.112005)
(-5.34667e-06 1.30684e-05 0.111817)
(-5.51558e-05 -1.17275e-07 0.111778)
(-2.39112e-05 2.32085e-05 0.112632)
(-5.52506e-05 -0.000288976 0.113571)
(0.000347445 0.000230918 0.0887406)
(-0.000615844 -0.00141443 0.0271246)
(9.79408e-08 -4.57722e-05 0.112376)
(1.02188e-05 -4.35622e-05 0.112379)
(9.03671e-06 -3.88499e-05 0.112375)
(1.44595e-05 -3.3537e-05 0.112337)
(1.03481e-05 -2.62959e-05 0.11225)
(6.42404e-06 -1.93074e-05 0.112117)
(7.39549e-06 -1.34937e-05 0.111933)
(1.4474e-05 -1.50764e-05 0.111683)
(-7.191e-07 5.45551e-05 0.111788)
(4.06244e-05 -2.85159e-06 0.113773)
(-0.000310091 0.000134488 0.112396)
(0.000396139 -0.000402122 0.0737592)
(0.00141699 -0.00215743 0.0296294)
(-1.95826e-06 -8.78034e-06 0.112439)
(2.39085e-06 -8.95409e-06 0.11243)
(-6.97984e-07 -1.12855e-05 0.112409)
(5.11759e-06 -1.06947e-05 0.112365)
(6.41552e-07 -1.16704e-05 0.112291)
(9.13165e-06 -1.03156e-05 0.112198)
(7.7019e-07 -1.63255e-06 0.112088)
(1.2877e-05 -8.0344e-06 0.111937)
(-1.39828e-05 4.42402e-06 0.111826)
(9.37786e-05 1.33328e-06 0.112666)
(-9.06389e-05 -9.82877e-05 0.113543)
(0.000368519 2.97729e-05 0.0876306)
(0.000428813 -0.00447274 0.0268342)
(0.000425974 -0.0025217 0.0166203)
(-1.82488e-08 -3.12726e-05 0.112492)
(7.75233e-06 -3.03481e-05 0.112479)
(7.32616e-06 -2.77763e-05 0.112453)
(1.40211e-05 -2.50727e-05 0.112409)
(1.06158e-05 -2.02444e-05 0.112347)
(1.62777e-05 -1.69324e-05 0.112274)
(9.67306e-06 -1.00139e-05 0.112199)
(1.86415e-05 -6.83461e-06 0.11212)
(5.01454e-06 3.05448e-06 0.112009)
(1.48161e-06 2.49167e-05 0.112217)
(3.5118e-05 -5.38683e-05 0.114239)
(-0.000271142 9.29854e-05 0.11216)
(0.000335934 -0.000391341 0.0720719)
(0.00157928 -0.00269727 0.0314677)
(-9.45368e-07 -1.28912e-05 0.112543)
(5.86894e-06 -1.2982e-05 0.112529)
(4.56696e-06 -1.23764e-05 0.112501)
(1.26397e-05 -1.25905e-05 0.11246)
(8.78785e-06 -9.53394e-06 0.112406)
(1.93598e-05 -1.12602e-05 0.112347)
(1.10439e-05 -1.51327e-06 0.112292)
(2.55782e-05 -1.11354e-05 0.11225)
(1.24147e-05 1.26371e-05 0.112202)
(3.54359e-05 -2.21004e-05 0.112191)
(5.84831e-05 6.99545e-05 0.113112)
(-5.20977e-05 -0.000179289 0.114022)
(0.000276365 0.000189997 0.0886202)
(-0.000177163 -0.0043382 0.0269519)
(-8.1766e-08 -2.06309e-05 0.112594)
(8.26378e-06 -2.02365e-05 0.112579)
(7.7141e-06 -1.8436e-05 0.112551)
(1.68502e-05 -1.77663e-05 0.11251)
(1.1945e-05 -1.36934e-05 0.112461)
(2.4289e-05 -1.49304e-05 0.112409)
(9.90388e-06 -6.16729e-06 0.112365)
(3.29551e-05 -1.54739e-05 0.112336)
(-8.03852e-06 6.20862e-06 0.112326)
(5.35331e-05 -3.32701e-05 0.11229)
(-5.37964e-05 3.97822e-05 0.112591)
(0.000137449 -0.000129727 0.114729)
(-0.000387707 0.000153279 0.113428)
(0.000492689 -0.000343801 0.0752332)
(-0.00657651 -0.00230296 0.022106)
(-4.7364e-07 -8.66371e-06 0.112646)
(8.06108e-06 -8.73015e-06 0.112628)
(7.03783e-06 -7.8067e-06 0.112596)
(1.73809e-05 -8.35071e-06 0.112553)
(1.16332e-05 -5.39801e-06 0.112503)
(2.6891e-05 -8.00472e-06 0.112453)
(1.05513e-05 -1.69534e-07 0.112409)
(3.81701e-05 -9.90802e-06 0.112373)
(-5.61323e-06 9.84489e-06 0.112357)
(6.47266e-05 -2.0305e-05 0.112316)
(-3.61335e-05 3.37739e-05 0.112305)
(0.000111191 -3.9714e-05 0.113448)
(-0.00010306 3.72448e-05 0.116104)
(0.000169413 0.000115856 0.0937951)
(-0.00668557 0.00298242 0.0250842)
(-9.86903e-08 -1.03581e-05 0.112694)
(9.11943e-06 -1.01296e-05 0.11267)
(8.09367e-06 -9.30295e-06 0.11263)
(1.92563e-05 -9.34896e-06 0.112582)
(1.22902e-05 -7.15388e-06 0.11253)
(2.95237e-05 -8.90778e-06 0.112479)
(7.96823e-06 -3.57801e-06 0.112429)
(4.31051e-05 -1.15126e-05 0.112378)
(-1.85543e-05 3.4224e-06 0.112331)
(7.73899e-05 -2.47509e-05 0.11224)
(-8.01261e-05 1.99695e-05 0.112101)
(0.000148163 -6.13208e-05 0.112534)
(-0.000223994 5.60924e-05 0.113258)
(0.000266315 -9.4041e-05 0.0889234)
(0.00152484 -0.00108377 0.0320749)
(-9.47971e-08 -6.50807e-07 0.112726)
(9.11536e-06 -4.4498e-07 0.112695)
(7.8169e-06 -2.96101e-07 0.112647)
(1.95294e-05 -5.40138e-07 0.112596)
(1.20754e-05 9.32856e-08 0.112544)
(3.04822e-05 -6.66552e-07 0.112492)
(7.90567e-06 1.09508e-06 0.112438)
(4.52862e-05 -7.06105e-07 0.112375)
(-1.91883e-05 3.37136e-06 0.112301)
(8.28509e-05 -9.76628e-07 0.112156)
(-7.66584e-05 8.32174e-06 0.111952)
(0.000152651 3.51064e-06 0.11229)
(-0.000187916 1.05469e-05 0.112812)
(0.000258059 3.51197e-05 0.0882694)
(0.00147947 0.00015097 0.0293405)
(-3.78014e-07 -0.0049793 0.0217215)
(-0.000705627 -0.00468174 0.0197448)
(-0.00150392 -0.00127499 0.0104436)
(-3.54563e-05 -0.000256741 0.08828)
(9.37456e-05 -0.000266122 0.0889435)
(-0.000115872 -0.000169345 0.093814)
(0.000344019 -0.000493024 0.0752441)
(0.0014338 -0.00588865 0.0290449)
(0.000470796 -0.00324454 0.0180617)
(-1.18943e-05 0.000188877 0.112825)
(-5.70163e-05 0.000224729 0.113284)
(-3.81443e-05 0.000103274 0.116126)
(-0.000155232 0.000387743 0.113443)
(-0.000190805 -0.000276552 0.0886265)
(0.000390865 -0.000336133 0.0720765)
(0.00185227 -0.00882002 0.0308974)
(-0.000454696 -0.00451626 0.0192905)
(-3.79124e-06 -0.000149493 0.1123)
(6.04698e-05 -0.000145103 0.112552)
(3.90702e-05 -0.000109381 0.113466)
(0.000129182 -0.00013556 0.114742)
(0.000178582 5.2409e-05 0.11403)
(-9.37713e-05 0.000271669 0.112166)
(-3.0227e-05 -0.000368768 0.0876328)
(0.000402135 -0.000396267 0.073759)
(0.000609439 -0.00602885 0.0313664)
(-0.00185473 -0.00423119 0.01493)
(-9.67665e-06 7.91282e-05 0.111957)
(-2.2266e-05 8.2542e-05 0.11211)
(-3.58471e-05 3.83685e-05 0.112315)
(-4.32078e-05 5.56449e-05 0.112598)
(-7.22842e-05 -5.71012e-05 0.113116)
(5.2556e-05 -3.39536e-05 0.114241)
(9.6016e-05 9.08001e-05 0.113541)
(-0.000136013 0.000310276 0.11239)
(-0.000233054 -0.000346691 0.0887453)
(0.000587293 -0.000469111 0.0705308)
(-0.0116413 0.00240434 0.0164916)
(7.23585e-07 -8.05313e-05 0.112161)
(2.36726e-05 -7.46102e-05 0.112246)
(1.91369e-05 -6.26956e-05 0.112322)
(3.19082e-05 -5.10856e-05 0.112296)
(2.07157e-05 -3.35599e-05 0.112193)
(-2.69579e-05 -5.80554e-08 0.112216)
(-3.26556e-06 -9.28605e-05 0.11266)
(1.41391e-06 -3.9924e-05 0.11376)
(0.000286771 5.52966e-05 0.11356)
(-0.000568141 0.000568303 0.112531)
(0.000468327 -0.000587197 0.0705661)
(-0.00860957 0.00416785 0.0188863)
(-4.41155e-06 2.40576e-05 0.112302)
(-6.03716e-06 2.32008e-05 0.112333)
(-1.2273e-05 9.63713e-06 0.11236)
(-9.78535e-06 1.19884e-05 0.112328)
(-1.59736e-05 -9.41983e-06 0.112202)
(-5.30957e-06 -2.40269e-06 0.112006)
(-7.42387e-06 1.5937e-05 0.111818)
(-5.71875e-05 1.9015e-06 0.11178)
(-2.56484e-05 2.4925e-05 0.112633)
(-5.59699e-05 -0.000287831 0.113573)
(0.000347184 0.000231687 0.0887425)
(-0.000615779 -0.00141415 0.0271244)
(1.23215e-07 -4.23033e-05 0.112375)
(9.59632e-06 -4.01078e-05 0.112378)
(8.05318e-06 -3.50429e-05 0.112373)
(1.30883e-05 -3.00995e-05 0.112336)
(8.41756e-06 -2.21929e-05 0.112249)
(3.75893e-06 -1.60833e-05 0.112117)
(4.67165e-06 -1.0808e-05 0.111934)
(1.2682e-05 -1.32796e-05 0.111684)
(-2.79711e-06 5.64723e-05 0.11179)
(3.92959e-05 -2.44317e-06 0.113775)
(-0.000311239 0.00013553 0.112398)
(0.000395745 -0.000402346 0.0737611)
(0.0014172 -0.00215748 0.0296298)
(-2.31748e-06 -2.80556e-06 0.112436)
(1.09902e-06 -3.31799e-06 0.112427)
(-2.40592e-06 -6.02097e-06 0.112407)
(2.85089e-06 -5.91245e-06 0.112363)
(-2.12109e-06 -7.58862e-06 0.112289)
(6.44373e-06 -6.70845e-06 0.112197)
(-2.72827e-06 1.70083e-06 0.112088)
(1.00813e-05 -5.37626e-06 0.111938)
(-1.70924e-05 6.27984e-06 0.111827)
(9.22147e-05 2.52059e-06 0.112668)
(-9.15291e-05 -9.71032e-05 0.113545)
(0.000367838 2.9936e-05 0.0876327)
(0.000428713 -0.00447264 0.0268346)
(0.000426043 -0.00252181 0.0166206)
(-3.02745e-07 -2.67486e-05 0.112489)
(6.42099e-06 -2.59639e-05 0.112476)
(5.48985e-06 -2.33779e-05 0.11245)
(1.14698e-05 -2.10571e-05 0.112407)
(7.51472e-06 -1.64757e-05 0.112345)
(1.28637e-05 -1.35706e-05 0.112273)
(5.99915e-06 -7.43681e-06 0.112198)
(1.53663e-05 -4.30414e-06 0.11212)
(1.47625e-06 4.40324e-06 0.11201)
(-4.6445e-07 2.63527e-05 0.112219)
(3.30828e-05 -5.35073e-05 0.114241)
(-0.00027245 9.3029e-05 0.112163)
(0.000335986 -0.000391069 0.0720738)
(0.00157913 -0.00269726 0.0314683)
(-1.37727e-06 -8.74523e-06 0.112539)
(4.45212e-06 -8.91362e-06 0.112525)
(2.49184e-06 -8.38508e-06 0.112497)
(9.74623e-06 -8.87941e-06 0.112456)
(5.37293e-06 -6.10108e-06 0.112403)
(1.54799e-05 -8.1747e-06 0.112345)
(6.71293e-06 1.2468e-06 0.11229)
(2.15469e-05 -9.46014e-06 0.11225)
(8.20535e-06 1.52236e-05 0.112203)
(3.29048e-05 -2.16345e-05 0.112192)
(5.6262e-05 7.16047e-05 0.113114)
(-5.31886e-05 -0.000179353 0.114025)
(0.000275997 0.000190477 0.0886223)
(-0.000177497 -0.0043385 0.0269525)
(-4.33221e-07 -1.72157e-05 0.11259)
(6.77798e-06 -1.68085e-05 0.112575)
(5.5212e-06 -1.51035e-05 0.112546)
(1.37412e-05 -1.46205e-05 0.112507)
(8.21811e-06 -1.07995e-05 0.112457)
(2.02002e-05 -1.24042e-05 0.112407)
(4.81537e-06 -3.88706e-06 0.112363)
(2.94983e-05 -1.42098e-05 0.112335)
(-1.27934e-05 8.76268e-06 0.112327)
(5.0645e-05 -3.30367e-05 0.112292)
(-5.62958e-05 4.23151e-05 0.112592)
(0.00013495 -0.000130294 0.114732)
(-0.000388579 0.000154467 0.113431)
(0.000492024 -0.000344411 0.0752358)
(-0.00657658 -0.00230286 0.0221065)
(-8.9194e-07 -6.13228e-06 0.11264)
(6.56161e-06 -6.17863e-06 0.112623)
(4.68062e-06 -5.34778e-06 0.112591)
(1.40486e-05 -6.06146e-06 0.112548)
(7.59791e-06 -3.29303e-06 0.112499)
(2.23939e-05 -6.16166e-06 0.11245)
(4.95565e-06 1.47714e-06 0.112406)
(3.44055e-05 -8.95577e-06 0.112372)
(-1.08624e-05 1.15723e-05 0.112358)
(6.2165e-05 -1.98697e-05 0.112317)
(-3.91422e-05 3.52926e-05 0.112307)
(0.000108774 -3.97487e-05 0.113452)
(-0.00010361 3.75558e-05 0.116106)
(0.000168263 0.000115719 0.0937984)
(-0.00668537 0.00298272 0.0250847)
(-5.03015e-07 -8.70833e-06 0.112688)
(7.56095e-06 -8.51828e-06 0.112665)
(5.63833e-06 -7.77969e-06 0.112625)
(1.57933e-05 -7.86204e-06 0.112577)
(8.11668e-06 -5.77266e-06 0.112526)
(2.49746e-05 -7.61049e-06 0.112476)
(1.98773e-06 -2.3274e-06 0.112427)
(3.9733e-05 -1.0834e-05 0.112376)
(-2.38351e-05 4.97747e-06 0.112331)
(7.43159e-05 -2.46512e-05 0.112241)
(-8.31225e-05 2.12265e-05 0.112102)
(0.000144476 -6.12407e-05 0.112537)
(-0.000225098 5.6253e-05 0.113261)
(0.000265747 -9.42696e-05 0.0889263)
(0.00152502 -0.00108378 0.0320756)
(-4.99532e-07 -2.92268e-08 0.11272)
(7.48931e-06 7.67942e-08 0.112689)
(5.33549e-06 1.76401e-07 0.112641)
(1.60552e-05 -7.31103e-08 0.112591)
(7.85032e-06 5.42585e-07 0.112539)
(2.58537e-05 -2.49088e-07 0.112489)
(1.69e-06 1.45929e-06 0.112436)
(4.18327e-05 -5.42449e-07 0.112374)
(-2.50269e-05 3.70611e-06 0.112301)
(8.00253e-05 -1.33328e-06 0.112158)
(-7.97046e-05 8.86539e-06 0.111953)
(0.000149143 3.08148e-06 0.112292)
(-0.00018894 1.12618e-05 0.112813)
(0.000256969 3.47773e-05 0.0882722)
(0.00147964 0.000151077 0.029341)
(-3.89097e-07 -0.00497921 0.0217221)
(-0.000705718 -0.00468169 0.0197453)
(-0.0015039 -0.00127501 0.0104438)
(-3.53432e-05 -0.00025642 0.0882828)
(9.36043e-05 -0.000265464 0.088946)
(-0.000115978 -0.00016829 0.0938166)
(0.000344718 -0.000492592 0.0752461)
(0.00143401 -0.00588893 0.0290454)
(0.000470841 -0.00324454 0.018062)
(-1.21686e-05 0.000189177 0.112827)
(-5.75104e-05 0.000225036 0.113286)
(-3.90817e-05 0.000103522 0.116128)
(-0.000156309 0.000388248 0.113445)
(-0.000191234 -0.000276713 0.088628)
(0.000390602 -0.000336431 0.0720778)
(0.00185228 -0.00882015 0.0308977)
(-0.000454786 -0.00451634 0.0192906)
(-3.74235e-06 -0.000147399 0.112303)
(6.01121e-05 -0.000143419 0.112554)
(3.91405e-05 -0.000107743 0.113468)
(0.000129601 -0.000133703 0.114744)
(0.000178466 5.29925e-05 0.114033)
(-9.40512e-05 0.000272437 0.112168)
(-3.06165e-05 -0.000368292 0.0876345)
(0.000401667 -0.000395681 0.0737603)
(0.000609316 -0.00602895 0.0313666)
(-0.00185476 -0.00423135 0.01493)
(-1.03819e-05 8.13388e-05 0.111957)
(-2.32575e-05 8.4796e-05 0.11211)
(-3.66436e-05 4.05548e-05 0.112316)
(-4.53313e-05 5.7554e-05 0.112599)
(-7.37588e-05 -5.55235e-05 0.113118)
(5.22098e-05 -3.23752e-05 0.114242)
(9.4895e-05 9.15285e-05 0.113542)
(-0.000137079 0.000311249 0.112391)
(-0.000233749 -0.000345782 0.0887468)
(0.000586696 -0.000468703 0.070532)
(-0.0116418 0.00240506 0.0164909)
(8.09718e-07 -7.80277e-05 0.112162)
(2.33187e-05 -7.16487e-05 0.112247)
(1.88902e-05 -6.06215e-05 0.112323)
(3.17114e-05 -4.87359e-05 0.112297)
(2.02341e-05 -3.17086e-05 0.112194)
(-2.81261e-05 1.25243e-06 0.112218)
(-4.48301e-06 -9.16381e-05 0.112662)
(8.28843e-07 -3.88858e-05 0.113761)
(0.000285726 5.58604e-05 0.113562)
(-0.000568442 0.000568644 0.112534)
(0.000467666 -0.000586877 0.0705675)
(-0.00861001 0.00416786 0.0188864)
(-4.58268e-06 2.82239e-05 0.112302)
(-7.48108e-06 2.73059e-05 0.112333)
(-1.3695e-05 1.33926e-05 0.11236)
(-1.21264e-05 1.56002e-05 0.112328)
(-1.8481e-05 -6.51496e-06 0.112203)
(-6.27861e-06 2.16414e-07 0.112006)
(-8.82098e-06 1.84016e-05 0.111819)
(-5.8927e-05 3.41407e-06 0.111782)
(-2.71895e-05 2.64796e-05 0.112635)
(-5.66302e-05 -0.000286794 0.113575)
(0.000346111 0.000232283 0.088744)
(-0.00061611 -0.00141406 0.0271245)
(2.08883e-07 -4.02381e-05 0.112374)
(8.8381e-06 -3.80159e-05 0.112377)
(7.32148e-06 -3.26862e-05 0.112372)
(1.20473e-05 -2.77817e-05 0.112335)
(6.94752e-06 -1.93108e-05 0.112248)
(2.15712e-06 -1.348e-05 0.112117)
(2.35603e-06 -8.80027e-06 0.111935)
(1.12e-05 -1.18685e-05 0.111685)
(-4.30371e-06 5.81408e-05 0.111792)
(3.81841e-05 -1.94442e-06 0.113777)
(-0.000312421 0.000136525 0.1124)
(0.000394934 -0.000401944 0.0737625)
(0.00141702 -0.00215722 0.0296301)
(-2.52433e-06 2.38068e-06 0.112434)
(-5.98541e-08 1.63496e-06 0.112425)
(-3.60587e-06 -1.20415e-06 0.112405)
(1.04074e-06 -1.69013e-06 0.112361)
(-4.33754e-06 -3.91414e-06 0.112288)
(4.60302e-06 -3.60939e-06 0.112196)
(-5.31223e-06 4.06686e-06 0.112088)
(8.00286e-06 -3.26775e-06 0.111939)
(-1.95377e-05 7.70029e-06 0.111828)
(9.09666e-05 3.65018e-06 0.11267)
(-9.23176e-05 -9.60493e-05 0.113546)
(0.000367281 3.02689e-05 0.0876345)
(0.000428736 -0.00447252 0.026835)
(0.000426048 -0.00252188 0.0166209)
(-4.07068e-07 -2.30589e-05 0.112486)
(5.29452e-06 -2.22656e-05 0.112473)
(4.02776e-06 -1.96027e-05 0.112448)
(9.28848e-06 -1.77524e-05 0.112405)
(4.92428e-06 -1.32942e-05 0.112343)
(9.95338e-06 -1.07986e-05 0.112272)
(2.69185e-06 -5.65177e-06 0.112198)
(1.293e-05 -2.84355e-06 0.11212)
(-1.01571e-06 5.55472e-06 0.11201)
(-1.90293e-06 2.73934e-05 0.112221)
(3.14098e-05 -5.31566e-05 0.114243)
(-0.000273434 9.32391e-05 0.112166)
(0.000336112 -0.00039086 0.0720753)
(0.00157912 -0.00269726 0.0314689)
(-1.59612e-06 -5.5693e-06 0.112535)
(3.37995e-06 -5.7925e-06 0.112521)
(9.00402e-07 -5.29133e-06 0.112494)