/*--------------------------------*- C++ -*----------------------------------*\
| =========                 |                                                 |
| \\      /  F ield         | OpenFOAM: The Open Source CFD Toolbox           |
|  \\    /   O peration     | Version:  2.1.1                                 |
|   \\  /    A nd           | Web:      www.OpenFOAM.org                      |
|    \\/     M anipulation  |                                                 |
\*---------------------------------------------------------------------------*/
FoamFile
{
    version     2.0;
    format      ascii;
    class       volVectorField;
    location    "0.005";
    object      U;
}
// * * * * * * * * * * * * * * * * * * * * * * * * * * * * * * * * * * * * * //

dimensions      [0 1 -1 0 0 0 0];

internalField   nonuniform List<vector> 
10343
(
(-0.0131538 0.00496619 0.0631328)
(-0.00132458 0.000561825 0.0725044)
(0.00230774 -0.00721588 0.0533664)
(-0.00454826 -0.00688555 0.0628911)
(0.00247835 -0.00536587 0.0795895)
(-0.00212701 -0.00768111 0.0804151)
(-0.00428197 0.0140187 0.0813691)
(-0.00133408 0.0160798 0.0804738)
(0.000959309 -0.00404326 0.0557908)
(-0.0012769 -0.00886175 0.0774778)
(0.00696745 0.00411027 0.0800565)
(0.00250176 0.00534924 0.0777876)
(0.00204691 0.00297931 0.0805666)
(-1.28374e-07 0.00202064 0.0831802)
(-0.000114168 0.00508115 0.0838955)
(6.82979e-05 0.00662486 0.0840052)
(-0.00495729 -0.000175158 0.0621041)
(0.00197505 0.00769344 0.0821435)
(0.00157465 0.00806272 0.0786316)
(0.00443237 0.0060345 0.080249)
(0.00311329 0.00429935 0.082338)
(0.00225296 0.00297106 0.0837398)
(0.000666219 0.00233349 0.0845149)
(0.000230148 0.00265893 0.084761)
(6.30702e-05 0.00298079 0.0847695)
(-0.000968379 0.00284607 0.0771248)
(0.00224933 0.00937442 0.0812489)
(0.00317452 0.00698376 0.0808948)
(0.00308184 0.00538201 0.0825585)
(0.00291924 0.00388453 0.0834846)
(0.00187495 0.00272175 0.0839802)
(0.00122877 0.00197899 0.0842746)
(0.000454859 0.00148132 0.0845429)
(0.000198413 0.00129816 0.0846863)
(2.21175e-05 0.00126757 0.0847405)
(0.00285183 -0.00096192 0.0771112)
(0.00390837 0.00390377 0.0843243)
(0.00379199 0.00515426 0.0838244)
(0.00246115 0.00378395 0.0840704)
(0.00179947 0.00287447 0.0841593)
(0.00155055 0.0021764 0.0842074)
(0.00104591 0.00176427 0.084325)
(0.000742628 0.00144862 0.0844567)
(0.000354522 0.00127446 0.0846127)
(0.000186357 0.00115379 0.0847158)
(2.9381e-05 0.00111625 0.0847917)
(-0.000171716 -0.00495609 0.0620989)
(0.00938242 0.00225476 0.0812449)
(0.00514911 0.00380182 0.0838173)
(0.00236744 0.0023742 0.0845821)
(0.00159727 0.00187791 0.0843154)
(0.00116012 0.00159168 0.0842899)
(0.000997512 0.00133445 0.0843446)
(0.000700542 0.00119199 0.0844538)
(0.000532889 0.00105423 0.0845884)
(0.000291181 0.000953661 0.0847142)
(0.000166741 0.000871235 0.0848111)
(2.86406e-05 0.000834729 0.0848878)
(-0.00404355 0.000956701 0.0557896)
(0.0076947 0.00197249 0.0821425)
(0.00698701 0.00317336 0.0808921)
(0.00378156 0.00246511 0.0840664)
(0.00187484 0.00159957 0.0843148)
(0.00124838 0.00124951 0.0843033)
(0.000922675 0.00111817 0.0843693)
(0.000773696 0.000997013 0.0844774)
(0.000564953 0.000927056 0.0846)
(0.00043508 0.0008501 0.0847175)
(0.000261841 0.000799461 0.0848213)
(0.000151179 0.000754029 0.0849063)
(2.77029e-05 0.000732724 0.0849811)
(-0.00886036 -0.00127812 0.0774774)
(0.00806389 0.00157362 0.0786309)
(0.00538312 0.00308162 0.0825565)
(0.00287369 0.00180119 0.0841573)
(0.0015911 0.00116206 0.0842896)
(0.00111766 0.000923682 0.0843689)
(0.000826059 0.000826643 0.0844893)
(0.000674031 0.000753711 0.0846124)
(0.00049851 0.000705947 0.0847215)
(0.000381512 0.000656567 0.0848218)
(0.000239828 0.000621392 0.0849107)
(0.000137906 0.000590438 0.0849899)
(2.51981e-05 0.000573865 0.0850622)
(-0.00721585 0.00230812 0.0533665)
(0.00411037 0.00696698 0.0800562)
(0.00603533 0.00443139 0.0802481)
(0.00388482 0.00291892 0.0834828)
(0.00217681 0.00155086 0.0842062)
(0.00133455 0.00099807 0.0843437)
(0.000996967 0.000774037 0.0844769)
(0.000753447 0.000674216 0.0846122)
(0.000608239 0.00060824 0.0847257)
(0.000456262 0.000567947 0.084823)
(0.000347143 0.00053253 0.0849123)
(0.000224749 0.000508786 0.0849936)
(0.000127915 0.000488582 0.0850679)
(2.35643e-05 0.00047692 0.0851375)
(-0.00688565 -0.00454846 0.0628911)
(0.00534939 0.00250163 0.0777876)
(0.00429979 0.00311301 0.0823373)
(0.00272217 0.00187505 0.0839792)
(0.00176472 0.0010463 0.0843242)
(0.00119222 0.000700948 0.084453)
(0.000927126 0.000565259 0.0845995)
(0.000705761 0.000498708 0.0847213)
(0.000567923 0.000456148 0.0848228)
(0.00042884 0.00042874 0.0849115)
(0.000324632 0.000405386 0.0849938)
(0.000213364 0.000388379 0.0850692)
(0.000119995 0.000373867 0.0851393)
(2.21313e-05 0.000364882 0.0852062)
(-0.00536605 0.00247846 0.0795894)
(0.00297971 0.00204684 0.0805664)
(0.0029714 0.00225262 0.0837391)
(0.00197933 0.00122858 0.084274)
(0.00144898 0.000742559 0.0844561)
(0.00105442 0.000532891 0.0845879)
(0.000850206 0.000435102 0.0847171)
(0.000656427 0.000381582 0.0848215)
(0.000532353 0.000347322 0.084912)
(0.000405254 0.00032423 0.0849936)
(0.00030628 0.000305502 0.0850696)
(0.000203529 0.000292929 0.0851402)
(0.000114035 0.000282834 0.0852074)
(2.05921e-05 0.00027651 0.0852716)
(-0.00768116 -0.00212722 0.080415)
(0.00202102 -1.87181e-07 0.08318)
(0.00233378 0.000666115 0.0845145)
(0.00148155 0.000454751 0.0845425)
(0.00127472 0.000354443 0.0846123)
(0.000953805 0.000291219 0.0847138)
(0.000799555 0.000261934 0.0848209)
(0.000621359 0.000239979 0.0849104)
(0.000508693 0.000224898 0.0849934)
(0.000388133 0.000213678 0.0850689)
(0.000293029 0.000203626 0.0851399)
(0.000195516 0.000195195 0.0852068)
(0.000109464 0.000188599 0.0852711)
(1.99271e-05 0.000184189 0.0853339)
(0.00496617 -0.0131539 0.0631328)
(0.0140187 -0.00428219 0.081369)
(0.00508153 -0.00011438 0.0838953)
(0.00265923 0.00022991 0.0847608)
(0.00129833 0.000198193 0.0846861)
(0.00115397 0.00018621 0.0847156)
(0.000871342 0.000166623 0.0848108)
(0.000754101 0.000151107 0.084906)
(0.000590421 0.000137881 0.0849896)
(0.000488536 0.000127938 0.0850677)
(0.000373792 0.000120123 0.0851392)
(0.000282934 0.000114204 0.0852073)
(0.000188784 0.000109553 0.0852711)
(0.000104995 0.000105228 0.0853335)
(1.89305e-05 0.00010204 0.0853948)
(0.000561808 -0.00132458 0.0725045)
(0.0160798 -0.00133412 0.0804739)
(0.00662527 6.81407e-05 0.084005)
(0.00298117 6.29197e-05 0.0847695)
(0.00126783 2.20044e-05 0.0847404)
(0.0011164 2.93377e-05 0.0847916)
(0.000834792 2.86117e-05 0.0848875)
(0.000732764 2.77014e-05 0.0849808)
(0.000573834 2.52444e-05 0.085062)
(0.00047688 2.36604e-05 0.0851373)
(0.000364842 2.2266e-05 0.085206)
(0.000276544 2.07234e-05 0.0852714)
(0.000184188 2.00065e-05 0.0853338)
(0.000101966 1.89703e-05 0.0853948)
(1.66338e-05 1.6676e-05 0.0854552)
(-0.0058872 -0.00476298 0.0402494)
(-0.00215607 -0.00593331 0.0572108)
(0.00247352 -0.00505871 0.0343903)
(-0.00543865 -0.00582824 0.0588831)
(0.0214318 0.0246173 0.11653)
(0.00446002 0.0384789 0.136319)
(-0.00089664 0.0468495 0.123302)
(-0.000740284 0.0517959 0.121797)
(-0.000779993 -0.00662947 0.0369095)
(-0.0045561 -0.0100695 0.0785953)
(0.0258196 0.0366543 0.105913)
(0.0133011 0.0341783 0.122266)
(0.011168 0.0217123 0.152392)
(-0.000604365 0.0189538 0.152517)
(-0.000402193 0.0204903 0.146382)
(-0.000516207 0.0229387 0.14434)
(-0.0113785 -0.00248755 0.0535651)
(0.0233673 0.0406854 0.113375)
(0.0121573 0.0387947 0.122963)
(0.0160544 0.0293252 0.149782)
(0.00897231 0.0226817 0.148674)
(0.00755368 0.0132123 0.147326)
(0.00224513 0.0143046 0.142983)
(0.00137389 0.0149069 0.140769)
(-2.14941e-05 0.0158498 0.139739)
(0.019983 0.0248172 0.118885)
(0.00842928 0.036229 0.124052)
(0.0152386 0.029871 0.151177)
(0.00862658 0.0243985 0.14868)
(0.00910886 0.0151288 0.146316)
(0.00605933 0.0133489 0.140718)
(0.0046958 0.0095452 0.137582)
(0.00198616 0.00965299 0.135512)
(0.0014754 0.00924191 0.135141)
(0.000174842 0.00949731 0.13474)
(0.0247985 0.0199668 0.118809)
(0.0167101 0.0166782 0.154809)
(0.00901413 0.0208646 0.149295)
(0.00891016 0.0141337 0.14606)
(0.00681298 0.0135202 0.140817)
(0.00627774 0.00999593 0.137299)
(0.00464485 0.00985095 0.135316)
(0.00382013 0.00808018 0.134801)
(0.00221177 0.00831981 0.134441)
(0.00147811 0.00789399 0.134494)
(0.000303797 0.00795837 0.134341)
(-0.00248996 -0.0113779 0.0535539)
(0.0362013 0.00845261 0.124005)
(0.0208325 0.00901981 0.149271)
(0.0110672 0.0110799 0.142816)
(0.00833085 0.0089784 0.137549)
(0.00613007 0.0091792 0.135237)
(0.00518035 0.00755012 0.134447)
(0.00384846 0.00740326 0.134038)
(0.00300376 0.00630704 0.134086)
(0.00183093 0.00615964 0.133877)
(0.0011918 0.00573798 0.133876)
(0.000283589 0.00569981 0.133764)
(-0.00662993 -0.000777113 0.0369094)
(0.0406779 0.0233467 0.113358)
(0.0298573 0.0152211 0.151144)
(0.0141159 0.00890866 0.146041)
(0.00897079 0.00833662 0.137541)
(0.00685403 0.00685651 0.134818)
(0.00535263 0.00688884 0.134183)
(0.00435382 0.00591252 0.134072)
(0.00328151 0.0057206 0.133892)
(0.00253974 0.00505317 0.133902)
(0.00165589 0.00495905 0.133778)
(0.00104615 0.00469503 0.133784)
(0.0002838 0.0046675 0.133732)
(-0.0100694 -0.0045559 0.0785946)
(0.0387925 0.0121494 0.122953)
(0.0243884 0.00862056 0.148665)
(0.0135084 0.00681259 0.140808)
(0.00917207 0.00613461 0.135234)
(0.00688374 0.00535511 0.134182)
(0.00512496 0.00512872 0.133888)
(0.00397106 0.00450138 0.133814)
(0.00295548 0.0043044 0.133648)
(0.0022286 0.00389043 0.13364)
(0.00147559 0.00377753 0.133548)
(0.000909921 0.00358932 0.133549)
(0.00026319 0.00355294 0.133516)
(-0.0050591 0.00247438 0.0343906)
(0.0366536 0.0258144 0.105909)
(0.0293243 0.0160443 0.149775)
(0.0151246 0.00910126 0.146308)
(0.00999042 0.00627444 0.137293)
(0.00754608 0.00518019 0.134443)
(0.00590954 0.00435406 0.13407)
(0.00449894 0.00397287 0.133813)
(0.00352093 0.00352226 0.133718)
(0.00266057 0.00334781 0.133585)
(0.00200856 0.00308657 0.133574)
(0.00135731 0.00300508 0.133517)
(0.000826588 0.0028869 0.133519)
(0.000251123 0.00286155 0.133501)
(-0.00582836 -0.00543852 0.0588835)
(0.0341794 0.0132989 0.122263)
(0.0226815 0.0089678 0.148671)
(0.0133463 0.00605618 0.140715)
(0.0098471 0.00464328 0.135313)
(0.00739994 0.0038489 0.134036)
(0.00571761 0.00328198 0.133891)
(0.00430181 0.00295687 0.133648)
(0.00334603 0.00266162 0.133585)
(0.00251712 0.00251823 0.133485)
(0.00188461 0.00234733 0.133479)
(0.00127729 0.00227828 0.133436)
(0.00076858 0.00219768 0.133437)
(0.000239384 0.00217568 0.133424)
(0.0246168 0.0214315 0.11653)
(0.0217127 0.0111654 0.15239)
(0.0132121 0.00755025 0.147323)
(0.00954377 0.00469306 0.137579)
(0.008078 0.00381844 0.134798)
(0.00630501 0.00300334 0.134084)
(0.00505122 0.00253969 0.1339)
(0.00388865 0.00222934 0.133638)
(0.00308508 0.00200931 0.133574)
(0.00234626 0.00188552 0.133479)
(0.00176858 0.00176916 0.133469)
(0.00120882 0.00171606 0.133431)
(0.000725368 0.00166398 0.13343)
(0.000229803 0.00164834 0.13342)
(0.0384788 0.00445965 0.13632)
(0.0189537 -0.000605142 0.152516)
(0.0143045 0.00224377 0.142982)
(0.00965188 0.00198509 0.135511)
(0.00831819 0.00221106 0.13444)
(0.0061579 0.00183087 0.133876)
(0.00495723 0.00165596 0.133778)
(0.00377579 0.00147612 0.133547)
(0.00300352 0.0013578 0.133517)
(0.002277 0.00127811 0.133436)
(0.00171517 0.00120935 0.133432)
(0.00117255 0.00117319 0.133401)
(0.000701505 0.00114103 0.1334)
(0.00022382 0.00113015 0.133392)
(-0.00476302 -0.00588732 0.0402496)
(0.046849 -0.000897059 0.123301)
(0.02049 -0.000402383 0.14638)
(0.0149064 0.00137334 0.140767)
(0.00924104 0.00147497 0.135139)
(0.00789276 0.00147787 0.134492)
(0.00573667 0.00119193 0.133874)
(0.00469365 0.00104635 0.133783)
(0.00358799 0.000910416 0.133548)
(0.0028857 0.000827067 0.133519)
(0.00219669 0.000769262 0.133436)
(0.00166325 0.000725916 0.133429)
(0.0011405 0.000702115 0.1334)
(0.000682618 0.000683072 0.133398)
(0.000219088 0.000675197 0.133392)
(-0.00593331 -0.00215625 0.0572109)
(0.0517959 -0.00073985 0.121798)
(0.0229384 -0.000515969 0.144339)
(0.0158496 -2.14147e-05 0.139739)
(0.00949654 0.000174812 0.134739)
(0.00795725 0.000303683 0.13434)
(0.00569847 0.000283579 0.133763)
(0.00466604 0.000283691 0.133732)
(0.00355146 0.000263222 0.133516)
(0.00286018 0.000251067 0.133501)
(0.00217449 0.000239503 0.133424)
(0.00164737 0.000229802 0.13342)
(0.00112938 0.00022402 0.133393)
(0.000674581 0.000219136 0.133392)
(0.000216835 0.000217223 0.133386)
(-0.000462764 -0.00580378 0.0188006)
(-0.000783505 -0.00585884 0.0293747)
(0.00146582 -0.0038421 0.0180482)
(-0.00574935 -0.00567326 0.0287351)
(0.00401376 0.00572251 0.0810227)
(0.00187133 0.0107133 0.102601)
(0.00213453 0.0101452 0.0925979)
(-8.41343e-05 0.0113919 0.0929475)
(0.00028653 -0.00472196 0.0187383)
(-0.00586892 -0.00664224 0.0381942)
(0.00714505 0.00970864 0.0790737)
(-0.00136882 0.00646516 0.0993876)
(0.000205939 0.0039981 0.126326)
(-0.000993204 0.00453726 0.130383)
(0.00114244 0.00277416 0.124824)
(-0.000367968 0.00359827 0.12466)
(-0.00578359 -0.00575976 0.0245422)
(0.00789319 0.0106995 0.0827503)
(-0.000330707 0.00762913 0.0999687)
(0.00395079 0.00596721 0.126258)
(0.00316285 0.00654634 0.124857)
(0.00373637 0.00611751 0.11643)
(0.0027454 0.0089325 0.111507)
(0.00244824 0.00848636 0.108495)
(0.000289647 0.00910205 0.108318)
(0.00767003 0.00476321 0.0781122)
(-0.000192032 0.0078772 0.0998502)
(0.00419846 0.0067794 0.126555)
(0.00396969 0.00646938 0.125486)
(0.00492737 0.00634113 0.117148)
(0.0042067 0.00774899 0.110082)
(0.00338458 0.00742447 0.103188)
(0.00209982 0.00799955 0.101289)
(0.00174152 0.00712758 0.100346)
(0.000248487 0.00718372 0.10022)
(0.00474453 0.00764634 0.0780872)
(0.00449124 0.00446996 0.127488)
(0.00494755 0.00596926 0.12436)
(0.00576748 0.00634866 0.116524)
(0.00566408 0.00768196 0.110023)
(0.00505528 0.00751177 0.102946)
(0.00412399 0.00814423 0.100442)
(0.0033943 0.00753157 0.0980535)
(0.00234297 0.00795727 0.0975343)
(0.00165455 0.00750788 0.096968)
(0.000367871 0.00759653 0.0967772)
(-0.00576175 -0.00578345 0.0245395)
(0.00785043 -0.000173516 0.0998024)
(0.00594979 0.0049559 0.124332)
(0.0068543 0.00685405 0.114258)
(0.00632523 0.00695908 0.104319)
(0.00558438 0.00740307 0.100976)
(0.00476021 0.00693483 0.0980842)
(0.00379584 0.0070223 0.0971851)
(0.00299996 0.00647112 0.0960364)
(0.00201538 0.00646921 0.0955789)
(0.00135167 0.00609812 0.0950974)
(0.000336456 0.00608608 0.0949029)
(-0.0047223 0.000288405 0.0187389)
(0.0106935 0.00788301 0.0827384)
(0.00677001 0.00419632 0.126525)
(0.00633261 0.00577836 0.116502)
(0.0069541 0.00633221 0.104307)
(0.00623509 0.00623712 0.0990927)
(0.00539357 0.00642352 0.0976351)
(0.0045097 0.00603239 0.0961159)
(0.00360537 0.00604292 0.0953521)
(0.00284783 0.00567688 0.0944921)
(0.00196943 0.00570981 0.0940516)
(0.00126318 0.00550812 0.0936843)
(0.000355853 0.00551404 0.0935384)
(-0.00664308 -0.00586905 0.0381942)
(0.00762847 -0.000333272 0.0999511)
(0.00646283 0.00396831 0.125466)
(0.00767224 0.00566693 0.110011)
(0.00739552 0.00559006 0.10097)
(0.00641702 0.00539649 0.0976339)
(0.00530727 0.00531194 0.0961856)
(0.00437683 0.00501071 0.0948517)
(0.00345602 0.00495051 0.0940571)
(0.0026805 0.00469516 0.0933887)
(0.00184679 0.00465474 0.0930148)
(0.00115206 0.00450312 0.0927489)
(0.000341965 0.00448444 0.0926372)
(-0.00384243 0.00146665 0.0180486)
(0.00970847 0.00714133 0.0790725)
(0.00596795 0.00394371 0.126249)
(0.00633854 0.00492161 0.11714)
(0.00750649 0.00505297 0.102941)
(0.00693003 0.00476004 0.0980801)
(0.00602834 0.0045102 0.0961144)
(0.00500738 0.00437929 0.0948511)
(0.00415698 0.00415901 0.0937868)
(0.00329692 0.0040927 0.0931241)
(0.0025554 0.00392188 0.0926236)
(0.00177653 0.00388955 0.0923257)
(0.00109137 0.00379495 0.0921254)
(0.000337609 0.00378223 0.0920374)
(-0.00567343 -0.00574953 0.0287355)
(0.00646681 -0.00137054 0.0993843)
(0.00654719 0.00315909 0.124851)
(0.00774707 0.00420396 0.110078)
(0.00814034 0.0041226 0.100438)
(0.00701825 0.00379629 0.0971828)
(0.00603886 0.00360595 0.0953511)
(0.0049471 0.0034578 0.0940567)
(0.00409018 0.00329843 0.0931242)
(0.00321919 0.00322106 0.0925355)
(0.0024771 0.00309894 0.0921243)
(0.00171867 0.00305601 0.0918664)
(0.00104375 0.00298751 0.0917035)
(0.000329354 0.00297211 0.0916291)
(0.00572235 0.00401284 0.081022)
(0.00399906 0.000203721 0.126324)
(0.00611746 0.00373307 0.116426)
(0.00742348 0.00338186 0.103185)
(0.00752924 0.00339251 0.0980512)
(0.00646855 0.00299935 0.0960347)
(0.00567422 0.00284776 0.0944911)
(0.00469272 0.00268143 0.0933881)
(0.0039199 0.00255636 0.0926234)
(0.00309741 0.00247846 0.0921243)
(0.00239021 0.00239133 0.0917819)
(0.00166459 0.00235467 0.09156)
(0.00100705 0.00230929 0.0914238)
(0.000322171 0.00229751 0.0913602)
(0.0107137 0.00187081 0.102599)
(0.00453783 -0.000994168 0.130381)
(0.00893228 0.00274422 0.111505)
(0.00799867 0.0020988 0.101288)
(0.00795547 0.00234219 0.0975331)
(0.006467 0.00201527 0.0955781)
(0.00570734 0.00196948 0.0940511)
(0.00465235 0.00184742 0.0930145)
(0.00388744 0.00177715 0.0923257)
(0.00305428 0.00171962 0.0918665)
(0.0023533 0.00166534 0.0915602)
(0.00163638 0.00163735 0.091359)
(0.000986397 0.00160839 0.0912383)
(0.00031731 0.00159926 0.0911815)
(-0.00580385 -0.000462956 0.0188009)
(0.0101448 0.00213459 0.0925964)
(0.00277437 0.00114228 0.124822)
(0.00848592 0.00244807 0.108493)
(0.00712689 0.00174139 0.100344)
(0.00750652 0.0016545 0.0969667)
(0.00609645 0.00135193 0.0950964)
(0.00550624 0.00126349 0.0936837)
(0.00450126 0.00115272 0.0927485)
(0.00379327 0.00109198 0.0921252)
(0.0029861 0.00104458 0.0917034)
(0.00230819 0.00100769 0.0914237)
(0.00160764 0.000987211 0.0912382)
(0.000968933 0.000969499 0.091128)
(0.000312921 0.000962426 0.091076)
(-0.00585889 -0.000783594 0.0293749)
(0.0113922 -8.35349e-05 0.0929472)
(0.00359854 -0.000367519 0.124659)
(0.00910187 0.00028999 0.108318)
(0.00718299 0.000248735 0.100219)
(0.00759516 0.000367945 0.0967769)
(0.00608427 0.000336605 0.0949028)
(0.00551198 0.000355827 0.0935384)
(0.00448235 0.000342089 0.0926372)
(0.00378029 0.000337582 0.0920376)
(0.00297041 0.000329522 0.0916292)
(0.00229613 0.000322172 0.0913604)
(0.00159821 0.0003176 0.0911816)
(0.000961612 0.000313 0.091076)
(0.000310723 0.000311231 0.0910255)
(0.000174857 -0.00397229 0.0150806)
(-1.71738e-05 -0.00509566 0.0224917)
(0.000946962 -0.00201802 0.0147094)
(-0.00414381 -0.00417596 0.0230983)
(-0.00232711 -0.00165868 0.0757207)
(0.000988009 -0.0014843 0.0965162)
(0.00127687 -0.00221187 0.0892133)
(-0.000317229 -0.0023103 0.0891718)
(0.000927321 -0.00315378 0.0149462)
(-0.00484001 -0.00526299 0.0293995)
(-0.00134244 -0.00104033 0.0732016)
(-0.00107405 -0.00215431 0.0930696)
(-0.000143853 0.00146415 0.118871)
(0.000620791 0.00274467 0.12314)
(0.00144937 0.00181849 0.118794)
(-0.000177502 0.00232889 0.119163)
(-0.00307291 -0.00506801 0.0188912)
(-0.00125932 -0.00115974 0.0756907)
(-0.000127607 -0.00201625 0.0920573)
(0.00206683 0.0011454 0.118549)
(0.00315062 0.00411371 0.119055)
(0.00308219 0.00597276 0.115154)
(0.00274855 0.00776956 0.112601)
(0.00192976 0.00731032 0.110362)
(0.000203096 0.00765203 0.110333)
(-0.000546006 -0.00155811 0.0724649)
(0.000320766 -0.00162761 0.0926211)
(0.00191298 0.00167075 0.119131)
(0.00376508 0.00357357 0.119213)
(0.00381434 0.00575033 0.115647)
(0.00385008 0.00679886 0.112502)
(0.00293347 0.0070875 0.109636)
(0.0019097 0.0071419 0.109336)
(0.00134875 0.00651268 0.108743)
(0.000170324 0.0065872 0.108688)
(-0.00156221 -0.000546313 0.0724374)
(0.00207985 0.00208399 0.120257)
(0.0039266 0.00296992 0.118786)
(0.00453046 0.00539945 0.115519)
(0.00491943 0.00643529 0.112185)
(0.00424845 0.00699455 0.109252)
(0.00360426 0.00711769 0.108747)
(0.00283323 0.00663295 0.107977)
(0.00197316 0.00675513 0.107946)
(0.00131095 0.00643618 0.107435)
(0.000284903 0.00653603 0.107249)
(-0.00507109 -0.00307083 0.0188866)
(-0.00162831 0.000331948 0.0925948)
(0.00295601 0.00393073 0.118776)
(0.00531395 0.00531299 0.11379)
(0.00517203 0.00613919 0.109834)
(0.00470421 0.00631856 0.108961)
(0.00395015 0.00609964 0.107971)
(0.00324721 0.00595536 0.107804)
(0.00253542 0.00556549 0.107223)
(0.00171756 0.00552017 0.106982)
(0.00112474 0.00527378 0.106574)
(0.000275881 0.00528691 0.106425)
(-0.00315435 0.000928134 0.0149472)
(-0.00116069 -0.00126052 0.0756833)
(0.00166747 0.00191281 0.119115)
(0.00538319 0.00453202 0.115507)
(0.00613562 0.00517399 0.109828)
(0.00535051 0.00534438 0.108325)
(0.00458712 0.00538003 0.107996)
(0.00383784 0.00517199 0.10723)
(0.00311479 0.00514007 0.106766)
(0.00245176 0.00488891 0.10617)
(0.00170298 0.00491631 0.105861)
(0.00108227 0.00477481 0.105559)
(0.00030299 0.00479148 0.105449)
(-0.00526364 -0.00484004 0.0293998)
(-0.00201439 -0.000128029 0.0920441)
(0.00357207 0.00376404 0.1192)
(0.00642857 0.00492219 0.112176)
(0.00631279 0.00471405 0.108955)
(0.00537674 0.00458865 0.107993)
(0.00449517 0.00449884 0.107313)
(0.00374132 0.00431111 0.106433)
(0.00299104 0.00425262 0.105888)
(0.00232284 0.00406584 0.105401)
(0.00160358 0.00403342 0.105137)
(0.000998532 0.00391721 0.104926)
(0.000293962 0.00390659 0.104843)
(-0.00201829 0.000947376 0.0147098)
(-0.00104026 -0.00134391 0.0731995)
(0.00114651 0.0020632 0.118541)
(0.00574904 0.00381062 0.115641)
(0.00699006 0.00424658 0.109246)
(0.00609645 0.00395133 0.107967)
(0.00516991 0.00383741 0.107227)
(0.00430887 0.00374308 0.106432)
(0.00359987 0.00360108 0.105674)
(0.00286987 0.00354673 0.105202)
(0.00222889 0.00341533 0.104822)
(0.00155099 0.00339269 0.104596)
(0.000953984 0.00331881 0.10443)
(0.000293424 0.0033124 0.104358)
(-0.00417607 -0.00414392 0.0230988)
(-0.002153 -0.00107541 0.093066)
(0.00411468 0.00314802 0.11905)
(0.00679775 0.00384821 0.112497)
(0.00711446 0.00360347 0.108743)
(0.00595261 0.00324856 0.1078)
(0.00513734 0.00311517 0.106764)
(0.00425015 0.00299258 0.105887)
(0.00354486 0.00287094 0.105202)
(0.00280262 0.00280411 0.104768)
(0.00216592 0.00270665 0.104439)
(0.00150511 0.00267503 0.104231)
(0.000917342 0.00262174 0.104089)
(0.000288169 0.00261191 0.104024)
(-0.00165914 -0.00232788 0.0757191)
(0.00146475 -0.000145292 0.118868)
(0.00597286 0.00308019 0.11515)
(0.00708712 0.00293159 0.109632)
(0.00663114 0.00283216 0.107974)
(0.00556399 0.00253545 0.10722)
(0.00488729 0.00245177 0.106169)
(0.00406425 0.0023237 0.1054)
(0.003414 0.00222961 0.104821)
(0.00270555 0.00216707 0.104439)
(0.00209921 0.00210007 0.10415)
(0.00146549 0.00207557 0.10396)
(0.000890507 0.00204146 0.103836)
(0.000284007 0.00203439 0.103777)
(-0.00148391 0.000987672 0.096514)
(0.00274516 0.0006204 0.123137)
(0.00776945 0.00274823 0.112598)
(0.00714145 0.00190912 0.109333)
(0.00675379 0.00197283 0.107943)
(0.00551871 0.00171781 0.106981)
(0.00491456 0.00170309 0.10586)
(0.00403168 0.0016042 0.105137)
(0.00339108 0.00155143 0.104596)
(0.00267365 0.00150588 0.104231)
(0.00207441 0.00146602 0.103961)
(0.00144627 0.00144708 0.10378)
(0.000875971 0.00142532 0.103665)
(0.000281178 0.00141951 0.10361)
(-0.00397232 0.000174547 0.0150808)
(-0.00221238 0.0012776 0.0892112)
(0.00181885 0.00144979 0.118791)
(0.00731004 0.00193031 0.110359)
(0.00651235 0.00134908 0.108741)
(0.00643529 0.00131134 0.107433)
(0.00527277 0.00112535 0.106572)
(0.00477359 0.00108277 0.105557)
(0.00391597 0.000999297 0.104925)
(0.00331763 0.000954575 0.104429)
(0.00262072 0.000918123 0.104089)
(0.00204063 0.000891045 0.103835)
(0.00142479 0.000876715 0.103665)
(0.000862882 0.000863316 0.103557)
(0.000277896 0.000858776 0.103505)
(-0.00509556 -1.72669e-05 0.0224918)
(-0.00230981 -0.000316409 0.0891709)
(0.00232907 -0.000176944 0.119162)
(0.0076519 0.000203528 0.110332)
(0.00658669 0.000170601 0.108687)
(0.00653499 0.000285 0.107248)
(0.00528557 0.000276067 0.106424)
(0.0047899 0.000302946 0.105448)
(0.00390494 0.000294076 0.104843)
(0.00331081 0.000293332 0.104358)
(0.00261048 0.000288295 0.104024)
(0.00203319 0.000283919 0.103777)
(0.00141859 0.00028142 0.10361)
(0.000858032 0.000277872 0.103505)
(0.000277458 0.000277931 0.103453)
(0.000581901 -0.00404528 0.0150295)
(0.000134354 -0.0051592 0.0220544)
(0.000788333 -0.00173043 0.014864)
(-0.00393191 -0.00445589 0.0224736)
(-0.000921743 -0.000785896 0.0788831)
(0.000835205 -0.000748603 0.0989069)
(0.000485115 -0.000681266 0.0927644)
(-0.000207972 -0.00079242 0.0925174)
(0.00097991 -0.002933 0.015051)
(-0.00463131 -0.00515664 0.0278057)
(-0.000701109 -0.000494226 0.0759409)
(0.000545883 -0.000532743 0.0946014)
(0.000692727 0.00216074 0.119706)
(0.000693339 0.00276922 0.122762)
(0.000797216 0.00274355 0.118804)
(-0.000119433 0.00311622 0.118703)
(-0.00254381 -0.00525681 0.0184375)
(-0.000792402 -0.00067627 0.0782906)
(0.000985363 -0.00055752 0.0931781)
(0.00171903 0.0018778 0.118708)
(0.00211466 0.00329868 0.11946)
(0.00176955 0.00399245 0.118162)
(0.00151653 0.00472229 0.116153)
(0.000913656 0.00457744 0.114251)
(5.46466e-05 0.00479764 0.114009)
(-0.000673831 -0.000772638 0.0749961)
(0.0010747 -0.000606869 0.0942059)
(0.00159641 0.00206925 0.119373)
(0.00246035 0.00296266 0.119256)
(0.00211316 0.00401797 0.11806)
(0.0022272 0.0041835 0.11605)
(0.00161288 0.00426304 0.114407)
(0.00102199 0.0042003 0.114012)
(0.000708963 0.00400833 0.113259)
(6.21237e-05 0.00412106 0.113015)
(-0.000770697 -0.000684168 0.0749494)
(0.00200484 0.00201094 0.11976)
(0.00222466 0.00221039 0.11921)
(0.00261546 0.00358878 0.117945)
(0.00282751 0.0038945 0.115536)
(0.00244041 0.00425043 0.113778)
(0.00212248 0.00425011 0.113208)
(0.00169802 0.00406238 0.112438)
(0.00124191 0.00424266 0.112067)
(0.000833001 0.00418563 0.111376)
(0.000183828 0.00430852 0.111093)
(-0.00526538 -0.00253987 0.0184322)
(-0.000605947 0.00107602 0.0941774)
(0.0022057 0.0022263 0.119197)
(0.00304519 0.00304551 0.116422)
(0.00297291 0.00358633 0.11414)
(0.00276572 0.00371433 0.113325)
(0.0024209 0.00374989 0.112347)
(0.00213336 0.00380005 0.111803)
(0.00172579 0.00377295 0.110997)
(0.0012139 0.00385842 0.110551)
(0.000804163 0.00379493 0.110055)
(0.000198771 0.00383636 0.109873)
(-0.00293332 0.000980496 0.0150512)
(-0.000677106 -0.000791771 0.0782801)
(0.00206601 0.00159645 0.119357)
(0.0035828 0.00261599 0.117937)
(0.00358484 0.00297356 0.114145)
(0.00319325 0.0031891 0.112856)
(0.00293408 0.00336334 0.112051)
(0.00261882 0.00347139 0.110989)
(0.00222944 0.00360524 0.110256)
(0.00180082 0.0035763 0.109523)
(0.00128168 0.00366956 0.10912)
(0.000819945 0.00362169 0.108768)
(0.000231697 0.00365315 0.108639)
(-0.00515744 -0.00463108 0.0278058)
(-0.00055691 0.000985108 0.0931652)
(0.00296157 0.00245975 0.119242)
(0.00389199 0.00283015 0.115526)
(0.00371054 0.00277059 0.113322)
(0.00336071 0.00293429 0.112047)
(0.00306567 0.00306665 0.110928)
(0.00269757 0.00310963 0.10983)
(0.00224483 0.00316831 0.109153)
(0.00178249 0.00312446 0.108581)
(0.00125363 0.00314576 0.108263)
(0.000786794 0.00309423 0.108012)
(0.000232139 0.00309939 0.107913)
(-0.00173067 0.000788619 0.0148644)
(-0.000494458 -0.000701628 0.0759375)
(0.00187784 0.00171784 0.1187)
(0.00401661 0.00211109 0.118052)
(0.00424767 0.00244 0.113771)
(0.00374823 0.00242148 0.112344)
(0.00347046 0.00261964 0.110986)
(0.00310883 0.00269883 0.109829)
(0.00271983 0.00272053 0.1089)
(0.0022336 0.00274925 0.10833)
(0.00176856 0.00270949 0.107872)
(0.00124756 0.00272421 0.107598)
(0.000773102 0.00268992 0.107393)
(0.000238064 0.00269471 0.107307)
(-0.00445612 -0.00393195 0.0224741)
(-0.000531952 0.000545277 0.094597)
(0.00329836 0.00211349 0.119454)
(0.00418235 0.00222614 0.116044)
(0.00424853 0.0021226 0.113203)
(0.0037986 0.00213472 0.1118)
(0.00360364 0.0022301 0.110254)
(0.00316692 0.00224597 0.109152)
(0.00274792 0.00223425 0.108329)
(0.00222968 0.00223077 0.107813)
(0.00175443 0.00219405 0.10741)
(0.00123308 0.00219019 0.107159)
(0.000757213 0.00216284 0.106983)
(0.000237561 0.00216109 0.106905)
(-0.000786475 -0.000922124 0.0788809)
(0.00216115 0.000692106 0.119702)
(0.0039919 0.0017688 0.118158)
(0.00426273 0.00161257 0.114402)
(0.00406163 0.00169806 0.112434)
(0.00377209 0.00172633 0.110994)
(0.00357543 0.00180119 0.109521)
(0.00312362 0.0017833 0.108579)
(0.00270868 0.00176911 0.107871)
(0.00219337 0.00175538 0.10741)
(0.00172761 0.00172822 0.107051)
(0.0012162 0.00172276 0.10682)
(0.000743956 0.00170438 0.106663)
(0.000236705 0.00170263 0.106591)
(-0.000748149 0.000835156 0.0989039)
(0.00276966 0.000693116 0.122759)
(0.00472202 0.00151642 0.11615)
(0.00420006 0.00102206 0.114008)
(0.00424202 0.00124174 0.112064)
(0.00385747 0.00121431 0.110548)
(0.00366837 0.00128188 0.109118)
(0.00314455 0.00125418 0.108262)
(0.00272299 0.00124786 0.107597)
(0.00218913 0.0012337 0.107159)
(0.00172181 0.00121654 0.10682)
(0.00120915 0.00120982 0.106599)
(0.000737001 0.00119744 0.106452)
(0.000235964 0.00119533 0.106384)
(-0.00404533 0.000581475 0.0150297)
(-0.000681845 0.000486384 0.0927615)
(0.00274378 0.000798523 0.1188)
(0.00457725 0.000915016 0.114248)
(0.0040082 0.000710274 0.113255)
(0.0041852 0.000833952 0.111373)
(0.00379439 0.000805216 0.110052)
(0.00362099 0.000820726 0.108766)
(0.00309349 0.000787695 0.108011)
(0.00268916 0.000773715 0.107392)
(0.00216219 0.000757991 0.106982)
(0.00170381 0.000744426 0.106662)
(0.0011971 0.000737702 0.106452)
(0.000729443 0.000729777 0.106313)
(0.000234299 0.000727681 0.106248)
(-0.00515914 0.00013427 0.0220545)
(-0.000791668 -0.000206877 0.0925162)
(0.00311654 -0.000118507 0.118702)
(0.00479743 5.53217e-05 0.114008)
(0.00412055 6.26756e-05 0.113014)
(0.00430761 0.000184022 0.111092)
(0.0038352 0.000199036 0.109871)
(0.00365181 0.000231673 0.108638)
(0.00309801 0.00023226 0.107912)
(0.00269337 0.000237927 0.107307)
(0.00215988 0.000237665 0.106905)
(0.00170159 0.000236549 0.106591)
(0.00119452 0.000236188 0.106384)
(0.000726978 0.000234199 0.106248)
(0.000234727 0.000235182 0.106184)
(0.000616447 -0.00398273 0.0149976)
(0.00017326 -0.00502824 0.0218952)
(0.000665288 -0.00171853 0.0147168)
(-0.00378977 -0.00435591 0.0222073)
(-0.000487059 -0.000659842 0.0772706)
(0.00053585 -0.000378193 0.0965947)
(0.000245409 -0.000319126 0.0910645)
(-6.38224e-05 -0.000401243 0.0905503)
(0.000944561 -0.00292015 0.0149264)
(-0.00446379 -0.00502715 0.027263)
(-0.000514936 -0.000414092 0.0743557)