/*--------------------------------*- C++ -*----------------------------------*\
| =========                 |                                                 |
| \\      /  F ield         | OpenFOAM: The Open Source CFD Toolbox           |
|  \\    /   O peration     | Version:  2.1.1                                 |
|   \\  /    A nd           | Web:      www.OpenFOAM.org                      |
|    \\/     M anipulation  |                                                 |
\*---------------------------------------------------------------------------*/
FoamFile
{
    version     2.0;
    format      ascii;
    class       volScalarField;
    location    "0.055";
    object      p;
}
// * * * * * * * * * * * * * * * * * * * * * * * * * * * * * * * * * * * * * //

dimensions      [0 2 -2 0 0 0 0];

internalField   nonuniform List<scalar> 
163952
(
0.0416237
0.0410475
0.0363113
0.0311166
0.0299199
0.0273085
0.0267185
0.0263948
0.0366313
0.0322892
0.0272478
0.0247581
0.0235146
0.0227357
0.0224214
0.0222802
0.0336625
0.0279256
0.024422
0.0227824
0.0218699
0.0213321
0.0209935
0.0208132
0.0207278
0.0335322
0.0260334
0.0231991
0.0218526
0.0210974
0.0206187
0.0202992
0.0200876
0.0199615
0.0198981
0.0335334
0.0254914
0.0226749
0.0213967
0.020682
0.0202183
0.0198944
0.0196637
0.0195043
0.0194038
0.0193514
0.0336627
0.0260335
0.0226749
0.0212532
0.0204908
0.0200021
0.0196568
0.0194029
0.0192164
0.0190844
0.0189989
0.0189535
0.036631
0.0279256
0.0231991
0.0213967
0.0204908
0.0199325
0.0195443
0.0192578
0.0190422
0.0188817
0.0187669
0.0186915
0.018651
0.0322893
0.024422
0.0218526
0.020682
0.0200021
0.0195443
0.0192109
0.0189593
0.0187681
0.0186249
0.0185218
0.0184537
0.0184169
0.0363114
0.0272478
0.0227824
0.0210974
0.0202183
0.0196568
0.0192578
0.0189593
0.0187313
0.0185571
0.0184262
0.0183316
0.0182688
0.0182348
0.0311167
0.0247582
0.0218699
0.0206187
0.0198944
0.0194029
0.0190422
0.0187681
0.0185571
0.0183953
0.0182731
0.0181847
0.0181258
0.0180938
0.0299199
0.0235146
0.0213321
0.0202992
0.0196637
0.0192164
0.0188817
0.0186249
0.0184262
0.0182732
0.0181574
0.0180733
0.0180172
0.0179868
0.0273085
0.0227357
0.0209935
0.0200876
0.0195043
0.0190844
0.0187669
0.0185218
0.0183316
0.0181847
0.0180733
0.0179923
0.0179382
0.0179088
0.0416237
0.0267185
0.0224214
0.0208133
0.0199615
0.0194038
0.0189989
0.0186915
0.0184537
0.0182688
0.0181258
0.0180172
0.0179382
0.0178854
0.0178567
0.0410475
0.0263948
0.0222802
0.0207278
0.0198981
0.0193514
0.0189535
0.018651
0.0184169
0.0182348
0.0180938
0.0179868
0.0179088
0.0178567
0.0178283
0.0234498
0.0235066
0.0224444
0.0236537
0.0223847
0.0220707
0.0220259
0.0220051
0.022549
0.024363
0.0220502
0.0217381
0.0214776
0.0212869
0.0212122
0.0211605
0.0233272
0.022102
0.0216842
0.0212724
0.0209317
0.0206531
0.0204684
0.0203724
0.020323
0.0220716
0.0217813
0.0213442
0.020903
0.0205103
0.0201992
0.0199631
0.0198035
0.0197114
0.0196671
0.0220722
0.0216521
0.02116
0.0206563
0.0202294
0.019887
0.0196276
0.0194364
0.0193047
0.0192245
0.019186
0.0233274
0.0217815
0.02116
0.0205762
0.0200875
0.0197096
0.0194205
0.0192028
0.0190421
0.0189299
0.0188596
0.0188256
0.0225492
0.0221021
0.0213442
0.0206562
0.0200875
0.019651
0.0193217
0.0190714
0.0188822
0.0187419
0.018643
0.0185802
0.0185497
0.024363
0.0216842
0.020903
0.0202294
0.0197096
0.0193217
0.019029
0.0188059
0.0186365
0.0185103
0.0184208
0.0183635
0.0183355
0.0224444
0.0220503
0.0212724
0.0205104
0.019887
0.0194205
0.0190714
0.0188059
0.0186024
0.0184469
0.0183307
0.0182479
0.0181947
0.0181686
0.0236537
0.0217381
0.0209317
0.0201993
0.0196276
0.0192028
0.0188822
0.0186365
0.018447
0.0183016
0.0181925
0.0181145
0.0180643
0.0180397
0.0223847
0.0214776
0.0206531
0.0199631
0.0194364
0.0190421
0.0187419
0.0185103
0.0183307
0.0181925
0.0180885
0.018014
0.0179659
0.0179423
0.0220707
0.0212869
0.0204685
0.0198035
0.0193047
0.0189299
0.018643
0.0184208
0.0182479
0.0181145
0.018014
0.0179419
0.0178953
0.0178724
0.0234498
0.0220259
0.0212122
0.0203724
0.0197114
0.0192245
0.0188596
0.0185802
0.0183635
0.0181947
0.0180643
0.0179659
0.0178953
0.0178496
0.0178272
0.0235066
0.0220051
0.0211605
0.020323
0.0196671
0.019186
0.0188256
0.0185497
0.0183355
0.0181687
0.0180397
0.0179423
0.0178724
0.0178272
0.017805
0.0198061
0.0198204
0.0198851
0.020267
0.0204906
0.0203749
0.0202675
0.0202269
0.0198918
0.0207357
0.0202856
0.0202076
0.0201129
0.0200742
0.0200449
0.0200195
0.0201022
0.0202993
0.020199
0.0200786
0.019942
0.0197976
0.0197063
0.0196514
0.019621
0.0204492
0.0202324
0.0201074
0.0199276
0.0197357
0.01957
0.0194303
0.0193303
0.0192681
0.0192369
0.02045
0.0201872
0.0200343
0.0198128
0.0195881
0.0193856
0.0192196
0.0190884
0.0189939
0.0189339
0.0189044
0.0201022
0.0202326
0.0200343
0.019775
0.0195093
0.0192758
0.0190795
0.0189214
0.0187988
0.0187104
0.0186539
0.0186261
0.0198919
0.0202994
0.0201074
0.0198129
0.0195093
0.0192384
0.0190102
0.0188231
0.0186742
0.0185598
0.0184774
0.0184243
0.0183982
0.0207357
0.0201991
0.0199276
0.0195881
0.0192759
0.0190102
0.0187907
0.0186131
0.0184728
0.0183657
0.0182884
0.0182383
0.0182138
0.0198851
0.0202856
0.0200786
0.0197358
0.0193856
0.0190795
0.0188231
0.0186131
0.0184443
0.0183115
0.0182101
0.0181369
0.0180895
0.0180662
0.020267
0.0202076
0.019942
0.01957
0.0192196
0.0189214
0.0186742
0.0184728
0.0183115
0.0181846
0.0180878
0.0180178
0.0179724
0.01795
0.0204906
0.0201129
0.0197976
0.0194303
0.0190884
0.0187988
0.0185598
0.0183657
0.0182101
0.0180878
0.0179944
0.0179268
0.0178829
0.0178613
0.0203749
0.0200742
0.0197064
0.0193304
0.0189939
0.0187105
0.0184774
0.0182884
0.0181369
0.0180178
0.0179268
0.017861
0.0178182
0.0177972
0.0198061
0.0202675
0.0200449
0.0196514
0.0192681
0.018934
0.0186539
0.0184243
0.0182383
0.0180895
0.0179724
0.017883
0.0178182
0.0177761
0.0177554
0.0198204
0.0202269
0.0200195
0.019621
0.0192369
0.0189044
0.0186261
0.0183982
0.0182138
0.0180662
0.01795
0.0178614
0.0177972
0.0177554
0.0177349
0.0184588
0.0184692
0.0185759
0.0188029
0.0191338
0.0191335
0.0190811
0.0190591
0.0185907
0.0190166
0.0190567
0.0190442
0.019015
0.0190166
0.0190154
0.0190119
0.0187316
0.0190605
0.019048
0.0190411
0.0190125
0.0189609
0.0189252
0.0188999
0.0188857
0.0191638
0.0190638
0.0190578
0.0190077
0.0189417
0.0188776
0.0188149
0.0187652
0.0187306
0.0187124
0.0191644
0.0190441
0.0190392
0.0189763
0.018887
0.0187938
0.0187082
0.0186338
0.0185768
0.0185387
0.0185194
0.0187316
0.0190639
0.0190392
0.018965
0.0188564
0.0187405
0.0186304
0.0185335
0.0184532
0.0183929
0.0183529
0.018333
0.0185908
0.0190605
0.0190579
0.0189763
0.0188565
0.0187219
0.0185901
0.0184707
0.0183691
0.0182872
0.0182262
0.0181859
0.0181659
0.0190166
0.0190481
0.0190078
0.018887
0.0187405
0.0185901
0.0184496
0.0183264
0.0182237
0.0181422
0.0180818
0.018042
0.0180223
0.0185759
0.0190567
0.0190411
0.0189417
0.0187939
0.0186304
0.0184707
0.0183264
0.0182025
0.0181004
0.01802
0.0179608
0.0179218
0.0179025
0.018803
0.0190442
0.0190125
0.0188776
0.0187082
0.0185335
0.0183691
0.0182237
0.0181004
0.0179996
0.0179207
0.0178626
0.0178244
0.0178055
0.0191338
0.0190151
0.0189609
0.018815
0.0186338
0.0184533
0.0182872
0.0181422
0.0180201
0.0179207
0.017843
0.0177859
0.0177485
0.0177299
0.0191335
0.0190166
0.0189252
0.0187652
0.0185768
0.0183929
0.0182262
0.0180818
0.0179608
0.0178626
0.0177859
0.0177297
0.0176928
0.0176745
0.0184588
0.0190811
0.0190154
0.0188999
0.0187306
0.0185387
0.0183529
0.018186
0.018042
0.0179218
0.0178244
0.0177485
0.0176928
0.0176562
0.0176382
0.0184692
0.0190591
0.0190119
0.0188857
0.0187124
0.0185194
0.018333
0.0181659
0.0180223
0.0179025
0.0178055
0.0177299
0.0176745
0.0176382
0.0176202
0.0177408
0.017749
0.0178016
0.0179503
0.0181667
0.0182103
0.0182007
0.0181991
0.0178265
0.0180589
0.0181668
0.0181859
0.0181915
0.0182039
0.0182122
0.0182168
0.0179164
0.0181681
0.0181944
0.0182276
0.0182462
0.0182458
0.0182428
0.0182369
0.0182326
0.0182006
0.0181901
0.0182341
0.0182476
0.018248
0.0182406
0.0182253
0.0182094
0.0181957
0.0181878
0.018201
0.0181849
0.018241
0.0182566
0.0182443
0.0182194
0.0181881
0.0181554
0.0181277
0.0181078
0.0180973
0.0179164
0.0181902
0.0182409
0.0182592
0.0182414
0.0182025
0.018155
0.0181065
0.018062
0.0180265
0.0180019
0.0179894
0.0178266
0.0181682
0.0182342
0.0182566
0.0182414
0.0181965
0.0181365
0.0180728
0.018013
0.0179615
0.0179214
0.0178941
0.0178803
0.018059
0.0181945
0.0182476
0.0182443
0.0182026
0.0181365
0.0180611
0.0179869
0.0179203
0.0178646
0.017822
0.0177932
0.0177788
0.0178017
0.0181668
0.0182277
0.018248
0.0182194
0.018155
0.0180728
0.0179869
0.0179062
0.0178356
0.0177776
0.0177337
0.0177042
0.0176895
0.0179503
0.0181859
0.0182462
0.0182406
0.0181881
0.0181065
0.018013
0.0179203
0.0178356
0.0177627
0.0177036
0.017659
0.0176293
0.0176144
0.0181667
0.0181915
0.0182458
0.0182254
0.0181554
0.018062
0.0179615
0.0178646
0.0177776
0.0177036
0.0176439
0.0175991
0.0175693
0.0175544
0.0182103
0.0182039
0.0182429
0.0182094
0.0181277
0.0180265
0.0179214
0.017822
0.0177337
0.017659
0.0175991
0.0175542
0.0175244
0.0175095
0.0177408
0.0182007
0.0182122
0.0182369
0.0181957
0.0181078
0.0180019
0.0178941
0.0177933
0.0177042
0.0176293
0.0175693
0.0175244
0.0174946
0.0174798
0.017749
0.0181991
0.0182168
0.0182326
0.0181878
0.0180973
0.0179894
0.0178803
0.0177788
0.0176895
0.0176144
0.0175544
0.0175095
0.0174798
0.0174649
0.0172306
0.0172373
0.0172497
0.0173425
0.0174676
0.017518
0.0175232
0.0175293
0.0172717
0.0174156
0.0174976
0.0175286
0.01755
0.0175695
0.0175802
0.0175862
0.0173266
0.0174979
0.0175395
0.0175836
0.0176177
0.0176385
0.0176525
0.0176583
0.0176602
0.0174984
0.0175252
0.0175835
0.0176222
0.0176515
0.0176715
0.0176818
0.0176863
0.0176867
0.017686
0.0174987
0.0175295
0.0176002
0.0176464
0.0176721
0.0176852
0.0176877
0.0176833
0.0176767
0.0176705
0.0176669
0.0173266
0.0175253
0.0176002
0.0176549
0.0176828
0.0176903
0.0176847
0.0176712
0.0176545
0.017639
0.0176273
0.017621
0.0172717
0.0174979
0.0175835
0.0176464
0.0176828
0.0176918
0.0176813
0.0176597
0.0176334
0.0176075
0.0175856
0.0175699
0.0175618
0.0174156
0.0175395
0.0176222
0.0176721
0.0176903
0.0176813
0.0176552
0.017621
0.0175854
0.017553
0.0175267
0.0175084
0.017499
0.0172497
0.0174976
0.0175837
0.0176515
0.0176852
0.0176848
0.0176597
0.017621
0.0175776
0.0175354
0.0174985
0.0174694
0.0174493
0.0174391
0.0173425
0.0175286
0.0176177
0.0176715
0.0176877
0.0176712
0.0176334
0.0175854
0.0175354
0.0174889
0.017449
0.017418
0.0173968
0.0173861
0.0174676
0.0175501
0.0176385
0.0176818
0.0176833
0.0176545
0.0176075
0.017553
0.0174985
0.017449
0.0174073
0.017375
0.0173531
0.0173421
0.017518
0.0175695
0.0176525
0.0176863
0.0176767
0.017639
0.0175856
0.0175267
0.0174694
0.017418
0.017375
0.017342
0.0173196
0.0173084
0.0172306
0.0175232
0.0175802
0.0176583
0.0176867
0.0176705
0.0176273
0.01757
0.0175084
0.0174493
0.0173968
0.0173531
0.0173196
0.017297
0.0172857
0.0172373
0.0175293
0.0175862
0.0176602
0.017686
0.0176669
0.017621
0.0175618
0.017499
0.0174391
0.0173861
0.0173421
0.0173084
0.0172857
0.0172743
0.0167971
0.0168047
0.0167971
0.016857
0.0169238
0.0169699
0.0169791
0.0169869
0.016815
0.0169162
0.0169634
0.0169948
0.0170201
0.017043
0.0170553
0.017062
0.0168494
0.0169633
0.0170069
0.0170511
0.0170877
0.0171147
0.0171356
0.0171474
0.0171528
0.0169504
0.0169889
0.0170476
0.0170935
0.0171329
0.0171645
0.0171872
0.0172028
0.0172114
0.0172152
0.0169506
0.0169965
0.017066
0.0171213
0.0171636
0.017196
0.017218
0.0172312
0.0172386
0.017242
0.0172433
0.0168494
0.016989
0.017066
0.0171313
0.01718
0.0172133
0.0172338
0.017244
0.0172471
0.0172466
0.0172449
0.0172436
0.0168151
0.0169633
0.0170476
0.0171213
0.01718
0.017219
0.0172403
0.0172481
0.017247
0.0172411
0.017234
0.017228
0.0172247
0.0169162
0.0170069
0.0170935
0.0171636
0.0172133
0.0172403
0.0172489
0.0172451
0.0172344
0.0172213
0.0172091
0.0171999
0.017195
0.0167971
0.0169634
0.0170511
0.0171329
0.017196
0.0172338
0.0172481
0.0172451
0.0172317
0.0172136
0.0171951
0.0171791
0.0171676
0.0171616
0.016857
0.0169948
0.0170877
0.0171645
0.017218
0.017244
0.017247
0.0172344
0.0172136
0.01719
0.0171676
0.0171489
0.0171358
0.0171289
0.0169238
0.0170201
0.0171147
0.0171872
0.0172312
0.0172471
0.0172411
0.0172214
0.0171951
0.0171676
0.0171424
0.0171219
0.0171076
0.0171002
0.0169699
0.017043
0.0171356
0.0172028
0.0172386
0.0172466
0.017234
0.0172091
0.0171791
0.0171489
0.0171219
0.0171002
0.0170851
0.0170774
0.0167971
0.0169791
0.0170553
0.0171474
0.0172114
0.017242
0.0172449
0.017228
0.0171999
0.0171676
0.0171358
0.0171076
0.0170851
0.0170696
0.0170617
0.0168047
0.0169869
0.0170621
0.0171528
0.0172152
0.0172433
0.0172436
0.0172247
0.0171951
0.0171616
0.017129
0.0171003
0.0170774
0.0170617
0.0170536
0.0164069
0.016415
0.0164035
0.0164429
0.0164748
0.0165132
0.0165231
0.0165308
0.0164168
0.016494
0.0165153
0.016543
0.0165666
0.0165895
0.0166021
0.0166092
0.0164398
0.0165151
0.0165553
0.0165956
0.01663
0.0166569
0.0166792
0.0166932
0.0167001
0.0164971
0.0165367
0.0165906
0.0166361
0.016677
0.016712
0.0167395
0.0167601
0.016773
0.0167792
0.0164972
0.0165444
0.0166077
0.016663
0.0167105
0.016751
0.0167828
0.0168059
0.0168217
0.0168312
0.0168357
0.0164398
0.0165367
0.0166076
0.0166727
0.0167285
0.0167742
0.0168093
0.0168341
0.0168502
0.0168601
0.0168655
0.0168678
0.0164169
0.0165152
0.0165907
0.016663
0.0167285
0.016782
0.0168217
0.0168484
0.0168647
0.0168734
0.0168774
0.016879
0.0168794
0.016494
0.0165553
0.0166361
0.0167105
0.0167742
0.0168217
0.0168528
0.0168704
0.0168784
0.0168804
0.0168795
0.0168778
0.0168766
0.0164035
0.0165153
0.0165956
0.016677
0.016751
0.0168093
0.0168485
0.0168704
0.0168796
0.0168805
0.016877
0.0168721
0.0168679
0.0168655
0.0164429
0.016543
0.01663
0.016712
0.0167828
0.0168341
0.0168647
0.0168784
0.0168805
0.0168757
0.0168681
0.0168602
0.0168541
0.0168507
0.0164748
0.0165666
0.0166569
0.0167395
0.0168059
0.0168502
0.0168734
0.0168804
0.016877
0.0168681
0.0168573
0.0168473
0.0168397
0.0168357
0.0165132
0.0165895
0.0166792
0.0167602
0.0168218
0.0168601
0.0168774
0.0168795
0.0168722
0.0168602
0.0168473
0.0168358
0.0168273
0.0168228
0.0164069
0.0165231
0.0166021
0.0166932
0.016773
0.0168313
0.0168655
0.016879
0.0168778
0.0168679
0.0168541
0.0168397
0.0168273
0.0168182
0.0168135
0.0164149
0.0165308
0.0166092
0.0167001
0.0167792
0.0168357
0.0168679
0.0168794
0.0168766
0.0168655
0.0168507
0.0168357
0.0168228
0.0168135
0.0168086
0.0160515
0.0160591
0.01605
0.0160765
0.0160878
0.0161186
0.0161277
0.0161345
0.0160598
0.0161212
0.0161254
0.0161487
0.0161692
0.0161899
0.0162017
0.0162085
0.0160764
0.0161254
0.0161605
0.0161958
0.0162265
0.0162511
0.0162722
0.0162861
0.0162932
0.0161067
0.0161432
0.0161907
0.0162325
0.0162711
0.0163053
0.0163334
0.0163554
0.0163698
0.016377
0.0161068
0.0161502
0.0162056
0.0162568
0.0163037
0.0163459
0.0163813
0.0164089
0.0164291
0.016442
0.0164483
0.0160764
0.0161432
0.0162056
0.0162657
0.0163213
0.016371
0.0164128
0.0164454
0.0164693
0.0164857
0.0164958
0.0165005
0.0160598
0.0161254
0.0161907
0.0162568
0.0163213
0.0163796
0.0164282
0.0164659
0.0164931
0.0165116
0.0165235
0.0165304
0.0165336
0.0161213
0.0161605
0.0162325
0.0163037
0.016371
0.0164282
0.0164724
0.0165039
0.0165248
0.0165378
0.0165454
0.0165495
0.0165512
0.01605
0.0161254
0.0161959
0.0162711
0.0163459
0.0164128
0.0164659
0.0165039
0.0165288
0.0165438
0.0165519
0.0165558
0.0165575
0.016558
0.0160765
0.0161487
0.0162265
0.0163053
0.0163813
0.0164454
0.0164931
0.0165248
0.0165438
0.0165536
0.0165578
0.0165588
0.0165585
0.0165581
0.0160878
0.0161693
0.0162511
0.0163334
0.0164089
0.0164693
0.0165116
0.0165378
0.0165519
0.0165578
0.0165588
0.0165576
0.0165559
0.0165548
0.0161186
0.0161899
0.0162722
0.0163554
0.0164291
0.0164857
0.0165235
0.0165454
0.0165558
0.0165588
0.0165576
0.0165548
0.0165521
0.0165505
0.0160514
0.0161277
0.0162017
0.0162861
0.0163698
0.016442
0.0164958
0.0165304
0.0165495
0.0165575
0.0165585
0.0165559
0.0165521
0.0165487
0.0165468
0.016059
0.0161345
0.0162085
0.0162932
0.016377
0.0164483
0.0165005
0.0165336
0.0165512
0.016558
0.0165581
0.0165548
0.0165505
0.0165468
0.0165447
0.0157252
0.0157319
0.015726
0.0157444
0.015743
0.0157677
0.0157755
0.0157811
0.0157336
0.0157838
0.0157766
0.0157959
0.0158133
0.0158311
0.0158414
0.0158475
0.0157466
0.0157768
0.0158069
0.0158373
0.0158638
0.0158854
0.0159043
0.0159171
0.0159238
0.0157596
0.0157916
0.0158326
0.0158696
0.0159042
0.0159357
0.0159622
0.0159835
0.0159978
0.0160051
0.0157596
0.0157978
0.0158455
0.0158911
0.0159343
0.0159747
0.01601
0.0160387
0.0160604
0.0160747
0.0160818
0.0157466
0.0157917
0.0158455
0.0158988
0.0159507
0.0159995
0.0160428
0.0160786
0.0161063
0.0161263
0.016139
0.0161452
0.0157336
0.0157768
0.0158326
0.0158911
0.0159507
0.0160081
0.0160594
0.0161021
0.0161353
0.0161598
0.0161768
0.0161873
0.0161923
0.0157838
0.0158069
0.0158696
0.0159343
0.0159995
0.0160594
0.0161097
0.0161492
0.0161783
0.0161988
0.0162124
0.0162206
0.0162244
0.015726
0.0157766
0.0158373
0.0159042
0.0159747
0.0160428
0.0161021
0.0161492
0.0161842
0.0162088
0.0162253
0.0162358
0.0162419
0.0162447
0.0157444
0.0157959
0.0158638
0.0159357
0.01601
0.0160786
0.0161353
0.0161783
0.0162088
0.0162293
0.0162424
0.0162502
0.0162546
0.0162565
0.015743
0.0158133
0.0158854
0.0159622
0.0160387
0.0161063
0.0161598
0.0161988
0.0162253
0.0162424
0.0162526
0.0162584
0.0162614
0.0162626
0.0157677
0.0158311
0.0159043
0.0159835
0.0160604
0.0161263
0.0161768
0.0162124
0.0162358
0.0162502
0.0162584
0.0162627
0.0162647
0.0162654
0.0157251
0.0157755
0.0158414
0.0159171
0.0159979
0.0160747
0.016139
0.0161873
0.0162206
0.0162419
0.0162546
0.0162614
0.0162647
0.016266
0.0162665
0.0157317
0.0157811
0.0158475
0.0159238
0.0160052
0.0160818
0.0161452
0.0161923
0.0162244
0.0162447
0.0162565
0.0162626
0.0162654
0.0162665
0.0162668
0.0154226
0.0154282
0.0154251
0.0154386
0.0154283
0.0154481
0.0154546
0.0154592
0.0154312
0.0154729
0.0154576
0.0154737
0.0154882
0.0155032
0.015512
0.0155172
0.0154419
0.0154583
0.0154838
0.0155097
0.0155323
0.0155508
0.0155671
0.0155783
0.0155843
0.0154433
0.015471
0.0155059
0.0155378
0.0155681
0.0155959
0.0156197
0.0156392
0.0156526
0.0156595
0.0154434
0.0154764
0.0155171
0.0155566
0.015595
0.0156317
0.0156648
0.0156924
0.0157138
0.0157282
0.0157354
0.0154419
0.015471
0.0155171
0.0155634
0.0156097
0.015655
0.0156967
0.0157325
0.0157612
0.0157825
0.0157965
0.0158034
0.0154312
0.0154583
0.0155059
0.0155566
0.0156097
0.015663
0.0157131
0.0157568
0.0157925
0.01582
0.0158397
0.0158524
0.0158585
0.0154729
0.0154838
0.0155378
0.015595
0.015655
0.0157131
0.0157649
0.0158079
0.0158415
0.0158665
0.0158839
0.0158948
0.0159001
0.0154251
0.0154576
0.0155097
0.0155681
0.0156317
0.0156967
0.0157568
0.0158079
0.0158485
0.0158791
0.0159012
0.0159162
0.0159255
0.0159299
0.0154386
0.0154737
0.0155323
0.0155959
0.0156648
0.0157325
0.0157925
0.0158415
0.0158791
0.0159067
0.015926
0.0159389
0.0159467
0.0159503
0.0154283
0.0154883
0.0155508
0.0156197
0.0156924
0.0157612
0.01582
0.0158665
0.0159012
0.015926
0.015943
0.0159541
0.0159607
0.0159638
0.0154482
0.0155032
0.0155671
0.0156392
0.0157138
0.0157825
0.0158397
0.0158839
0.0159162
0.0159389
0.0159541
0.0159639
0.0159696
0.0159722
0.0154224
0.0154546
0.015512
0.0155783
0.0156526
0.0157282
0.0157965
0.0158524
0.0158948
0.0159255
0.0159467
0.0159607
0.0159696
0.0159747
0.015977
0.015428
0.0154592
0.0155172
0.0155843
0.0156595
0.0157354
0.0158034
0.0158585
0.0159001
0.0159299
0.0159503
0.0159638
0.0159722
0.015977
0.0159792
0.0151384
0.0151431
0.0151419
0.0151525
0.0151357
0.0151519
0.015157
0.0151609
0.0151472
0.0151824
0.0151614
0.0151747
0.0151868
0.0151993
0.0152064
0.0152109
0.0151566
0.0151627
0.0151842
0.0152059
0.0152249
0.0152405
0.0152542
0.0152637
0.0152688
0.01515
0.0151738
0.0152033
0.0152304
0.0152562
0.0152801
0.0153007
0.0153178
0.0153297
0.0153359
0.0151501
0.0151786
0.0152131
0.0152467
0.0152799
0.0153121
0.0153416
0.0153669
0.0153868
0.0154004
0.0154074
0.0151566
0.0151738
0.0152131
0.0152526
0.0152928
0.0153331
0.0153713
0.0154051
0.0154329
0.0154541
0.0154681
0.0154752
0.0151472
0.0151627
0.0152033
0.0152467
0.0152928
0.0153405
0.0153868
0.0154288
0.0154644
0.0154926
0.0155134
0.015527
0.0155337
0.0151824
0.0151842
0.0152304
0.0152799
0.0153331
0.0153868
0.0154368
0.0154801
0.0155154
0.0155425
0.015562
0.0155745
0.0155807
0.0151419
0.0151614
0.0152059
0.0152562
0.0153121
0.0153713
0.0154288
0.0154801
0.0155229
0.0155566
0.0155819
0.0155998
0.0156111
0.0156166
0.0151525
0.0151747
0.0152249
0.0152801
0.0153416
0.0154051
0.0154644
0.0155154
0.0155566
0.0155884
0.0156118
0.015628
0.0156382
0.0156431
0.0151357
0.0151868
0.0152405
0.0153007
0.0153669
0.0154329
0.0154926
0.0155425
0.015582
0.0156118
0.0156333
0.0156482
0.0156574
0.0156618
0.0151519
0.0151993
0.0152542
0.0153178
0.0153868
0.0154541
0.0155134
0.015562
0.0155998
0.015628
0.0156482
0.0156619
0.0156704
0.0156744
0.0151382
0.015157
0.0152064
0.0152637
0.0153297
0.0154005
0.0154682
0.015527
0.0155745
0.0156111
0.0156382
0.0156574
0.0156704
0.0156783
0.0156821
0.0151429
0.0151609
0.0152109
0.0152688
0.0153359
0.0154074
0.0154752
0.0155337
0.0155807
0.0156166
0.0156431
0.0156618
0.0156744
0.0156821
0.0156858
0.0148684
0.0148725
0.0148728
0.0148819
0.0148601
0.0148735
0.0148774
0.0148807
0.0148778
0.014908
0.0148828
0.0148938
0.0149038
0.0149141
0.0149197
0.0149234
0.0148863
0.0148849
0.0149028
0.0149209
0.0149366
0.0149494
0.0149606
0.0149683
0.0149726
0.0148746
0.0148949
0.0149197
0.0149422
0.0149636
0.0149835
0.0150009
0.0150153
0.0150255
0.0150308
0.0148746
0.0148993
0.0149284
0.0149564
0.0149842
0.0150115
0.015037
0.0150591
0.0150769
0.0150892
0.0150955
0.0148863
0.014895
0.0149283
0.0149616
0.0149955
0.0150301
0.0150637
0.0150942
0.0151198
0.0151397
0.0151531
0.0151599
0.0148778
0.0148849
0.0149197
0.0149564
0.0149955
0.0150366
0.0150778
0.0151163
0.0151499
0.0151772
0.0151978
0.0152115
0.0152183
0.014908
0.0149029
0.0149422
0.0149842
0.0150301
0.0150778
0.0151239
0.0151652
0.0152
0.0152275
0.0152477
0.0152609
0.0152675
0.0148728
0.0148828
0.014921
0.0149636
0.0150115
0.0150637
0.0151163
0.0151652
0.0152076
0.0152422
0.0152689
0.0152882
0.0153007
0.0153068
0.0148819
0.0148939
0.0149366
0.0149835
0.015037
0.0150942
0.0151499
0.0152
0.0152422
0.0152758
0.0153014
0.0153197
0.0153314
0.0153371
0.0148601
0.0149038
0.0149494
0.0150009
0.0150591
0.0151198
0.0151772
0.0152275
0.0152689
0.0153014
0.0153258
0.015343
0.015354
0.0153593
0.0148735
0.0149141
0.0149606
0.0150153
0.0150769
0.0151397
0.0151978
0.0152477
0.0152882
0.0153197
0.015343
0.0153594
0.0153698
0.0153748
0.0148683
0.0148774
0.0149197
0.0149683
0.0150255
0.0150892
0.0151531
0.0152115
0.0152609
0.0153007
0.0153314
0.015354
0.0153698
0.0153798
0.0153846
0.0148724
0.0148807
0.0149234
0.0149726
0.0150309
0.0150955
0.0151599
0.0152183
0.0152675
0.0153068
0.0153371
0.0153593
0.0153748
0.0153846
0.0153894
0.0146094
0.0146132
0.0146147
0.0146229
0.014598
0.0146092
0.0146117
0.0146147
0.01462
0.0146464
0.0146183
0.0146274
0.0146353
0.0146436
0.0146477
0.0146509
0.0146282
0.0146215
0.0146362
0.014651
0.0146635
0.0146735
0.0146823
0.0146882
0.0146917
0.0146138
0.0146309
0.0146514
0.0146695
0.0146866
0.0147025
0.0147164
0.0147281
0.0147363
0.0147408
0.0146138
0.014635
0.0146592
0.0146819
0.0147042
0.0147264
0.0147474
0.014766
0.0147812
0.0147918
0.0147973
0.0146282
0.0146309
0.0146591
0.0146863
0.0147139
0.0147424
0.0147708
0.0147971
0.0148198
0.0148377
0.01485
0.0148562
0.01462
0.0146215
0.0146514
0.0146819
0.0147139
0.0147481
0.0147833
0.0148172
0.0148476
0.0148729
0.0148924
0.0149054
0.014912
0.0146464
0.0146362
0.0146695
0.0147042
0.0147424
0.0147833
0.0148241
0.0148619
0.0148947
0.0149213
0.0149412
0.0149545
0.014961
0.0146147
0.0146183
0.014651
0.0146866
0.0147264
0.0147708
0.0148172
0.0148619
0.0149021
0.0149358
0.0149626
0.0149824
0.0149953
0.0150017
0.0146229
0.0146274
0.0146636
0.0147025
0.0147474
0.0147971
0.0148476
0.0148947
0.0149358
0.0149697
0.0149961
0.0150153
0.0150278
0.0150339
0.014598
0.0146354
0.0146735
0.0147164
0.014766
0.0148198
0.0148729
0.0149213
0.0149626
0.0149961
0.0150219
0.0150404
0.0150525
0.0150583
0.0146092
0.0146436
0.0146823
0.0147281
0.0147812
0.0148377
0.0148924
0.0149412
0.0149824
0.0150153
0.0150404
0.0150585
0.0150701
0.0150757
0.0146093
0.0146117
0.0146478
0.0146883
0.0147364
0.0147918
0.01485
0.0149055
0.0149545
0.0149953
0.0150278
0.0150525
0.0150701
0.0150814
0.0150869
0.0146131
0.0146147
0.0146509
0.0146917
0.0147408
0.0147973
0.0148562
0.014912
0.0149611
0.0150017
0.0150339
0.0150583
0.0150758
0.0150869
0.0150924
0.0143589
0.0143627
0.0143655
0.0143732
0.0143473
0.0143564
0.0143574
0.0143603
0.0143713
0.0143952
0.0143655
0.0143727
0.0143786
0.0143848
0.0143876
0.0143903
0.0143799
0.01437
0.0143816
0.0143931
0.0144026
0.0144097
0.014416
0.0144202
0.0144228
0.014366
0.0143794
0.0143955
0.0144091
0.0144218
0.0144336
0.014444
0.0144528
0.014459
0.0144625
0.014366
0.0143834
0.0144027
0.0144199
0.0144366
0.0144534
0.0144698
0.0144846
0.0144969
0.0145056
0.0145102
0.0143799
0.0143794
0.0144027
0.0144238
0.0144447
0.0144669
0.0144896
0.0145114
0.0145306
0.0145461
0.0145569
0.0145624
0.0143713
0.01437
0.0143955
0.0144199
0.0144447
0.0144717
0.0145004
0.014529
0.0145555
0.0145781
0.0145959
0.014608
0.0146141
0.0143952
0.0143816
0.0144091
0.0144366
0.0144669
0.0145004
0.0145351
0.0145685
0.0145984
0.0146232
0.0146422
0.0146549
0.0146613
0.0143655
0.0143656
0.0143931
0.0144218
0.0144534
0.0144896
0.014529
0.0145685
0.0146053
0.0146372
0.014663
0.0146825
0.0146954
0.0147018
0.0143732
0.0143727
0.0144026
0.0144336
0.0144698
0.0145114
0.0145555
0.0145984
0.0146372
0.01467
0.0146962
0.0147156
0.0147284
0.0147347
0.0143473
0.0143786
0.0144097
0.014444
0.0144846
0.0145306
0.0145782
0.0146232
0.014663
0.0146962
0.0147223
0.0147415
0.014754
0.0147602
0.0143565
0.0143848
0.014416
0.0144528
0.0144969
0.0145461
0.0145959
0.0146422
0.0146825
0.0147156
0.0147415
0.0147603
0.0147726
0.0147787
0.0143589
0.0143575
0.0143876
0.0144202
0.0144591
0.0145056
0.0145569
0.014608
0.0146549
0.0146954
0.0147284
0.014754
0.0147726
0.0147847
0.0147907
0.0143627
0.0143604
0.0143903
0.0144229
0.0144626
0.0145102
0.0145624
0.0146141
0.0146613
0.0147018
0.0147347
0.0147602
0.0147787
0.0147907
0.0147966
0.0141144
0.0141185
0.0141233
0.0141311
0.0141071
0.0141135
0.0141127
0.0141158
0.01413
0.0141525
0.0141229
0.0141279
0.0141315
0.0141352
0.0141365
0.0141389
0.0141394
0.0141288
0.0141372
0.0141451
0.0141512
0.0141551
0.0141586
0.0141609
0.0141628
0.0141321
0.0141386
0.0141499
0.0141585
0.0141663
0.0141737
0.0141803
0.0141861
0.0141903
0.0141929
0.0141321
0.0141427
0.0141564
0.0141675
0.0141781
0.0141893
0.0142008
0.0142116
0.014221
0.0142278
0.0142315
0.0141394
0.0141386
0.0141564
0.0141708
0.0141847
0.0142001
0.014217
0.014234
0.0142496
0.0142625
0.0142717
0.0142765
0.01413
0.0141288
0.0141499
0.0141675
0.0141847
0.0142041
0.014226
0.014249
0.0142713
0.014291
0.0143068
0.0143177
0.0143233
0.0141525
0.0141372
0.0141585
0.0141781
0.0142001
0.014226
0.0142543
0.014283
0.0143095
0.0143321
0.0143497
0.0143617
0.0143678
0.0141233
0.0141229
0.0141451
0.0141663
0.0141893
0.014217
0.014249
0.014283
0.0143158
0.0143452
0.0143696
0.0143883
0.0144008
0.0144071
0.0141311
0.0141279
0.0141512
0.0141737
0.0142008
0.014234
0.0142713
0.0143095
0.0143452
0.0143763
0.0144017
0.0144208
0.0144335
0.0144399
0.0141071
0.0141315
0.0141552
0.0141803
0.0142116
0.0142496
0.014291
0.0143321
0.0143696
0.0144017
0.0144275
0.0144467
0.0144594
0.0144657
0.0141135
0.0141352
0.0141586
0.0141861
0.014221
0.0142625
0.0143068
0.0143497
0.0143883
0.0144208
0.0144467
0.0144659
0.0144785
0.0144847
0.0141144
0.0141127
0.0141366
0.0141609
0.0141903
0.0142278
0.0142717
0.0143177
0.0143617
0.0144008
0.0144335
0.0144594
0.0144785
0.014491
0.0144972
0.0141185
0.0141159
0.014139
0.0141629
0.0141929
0.0142315
0.0142765
0.0143234
0.0143678
0.0144071
0.0144399
0.0144657
0.0144847
0.0144972
0.0145034
0.0138725
0.0138773
0.0138854
0.013895
0.0138779
0.0138792
0.0138761
0.0138801
0.0138932
0.013917
0.0138896
0.0138914
0.0138918
0.0138922
0.0138918
0.0138942
0.0139051
0.0138972
0.0139012
0.0139043
0.0139061
0.0139063
0.0139065
0.0139068
0.013908
0.0139232
0.0139065
0.0139119
0.0139144
0.0139164
0.0139189
0.0139215
0.0139241
0.0139264
0.0139281
0.0139232
0.0139106
0.0139168
0.0139211
0.0139248
0.01393
0.0139366
0.0139435
0.0139501
0.0139551
0.013958
0.0139051
0.0139065
0.0139167
0.0139235
0.0139296
0.0139381
0.0139492
0.0139616
0.0139738
0.0139843
0.013992
0.0139961
0.0138932
0.0138971
0.0139119
0.0139211
0.0139296
0.0139411
0.0139564
0.0139742
0.0139926
0.0140094
0.0140233
0.0140331
0.0140382
0.013917
0.0139012
0.0139143
0.0139248
0.0139381
0.0139564
0.0139787
0.0140028
0.014026
0.0140465
0.0140627
0.014074
0.0140797
0.0138854
0.0138896
0.0139043
0.0139164
0.01393
0.0139492
0.0139742
0.0140028
0.0140318
0.0140587
0.0140815
0.0140993
0.0141114
0.0141175
0.013895
0.0138914
0.0139061
0.0139189
0.0139366
0.0139616
0.0139926
0.014026
0.0140587
0.0140879
0.0141123
0.0141309
0.0141434
0.0141496
0.0138779
0.0138919
0.0139064
0.0139215
0.0139436
0.0139738
0.0140094
0.0140465
0.0140815
0.0141123
0.0141374
0.0141564
0.0141691
0.0141754
0.0138792
0.0138922
0.0139065
0.0139241
0.0139501
0.0139843
0.0140233
0.0140628
0.0140993
0.0141309
0.0141564
0.0141756
0.0141883
0.0141946
0.0138725
0.0138762
0.0138919
0.0139068
0.0139264
0.0139551
0.013992
0.0140331
0.014074
0.0141114
0.0141434
0.0141691
0.0141883
0.014201
0.0142073
0.0138773
0.0138801
0.0138942
0.013908
0.0139282
0.013958
0.0139961
0.0140382
0.0140797
0.0141175
0.0141496
0.0141754
0.0141946
0.0142073
0.0142136
0.013627
0.0136336
0.0136459
0.013662
0.0136668
0.0136521
0.0136455
0.0136518
0.0136557
0.0136886
0.0136661
0.0136617
0.0136576
0.013652
0.0136493
0.0136519
0.0136748
0.0136741
0.0136714
0.0136669
0.0136625
0.013658
0.0136546
0.0136528
0.0136535
0.0137659
0.0136858
0.0136768
0.0136714
0.0136669
0.0136639
0.0136624
0.0136623
0.0136628
0.0136639
0.0137659
0.0136942
0.0136804
0.0136747
0.0136711
0.0136705
0.0136726
0.0136762
0.0136804
0.0136841
0.0136863
0.0136747
0.0136858
0.0136804
0.0136762
0.0136739
0.0136759
0.013682
0.0136907
0.0137002
0.0137088