/*--------------------------------*- C++ -*----------------------------------*\
| =========                 |                                                 |
| \\      /  F ield         | OpenFOAM: The Open Source CFD Toolbox           |
|  \\    /   O peration     | Version:  2.1.1                                 |
|   \\  /    A nd           | Web:      www.OpenFOAM.org                      |
|    \\/     M anipulation  |                                                 |
\*---------------------------------------------------------------------------*/
FoamFile
{
    version     2.0;
    format      ascii;
    class       volScalarField;
    location    "0.05";
    object      p;
}
// * * * * * * * * * * * * * * * * * * * * * * * * * * * * * * * * * * * * * //

dimensions      [0 2 -2 0 0 0 0];

internalField   nonuniform List<scalar> 
163952
(
0.0416083
0.041032
0.0362958
0.0311011
0.0299044
0.027293
0.026703
0.0263794
0.0366159
0.0322738
0.0272323
0.0247427
0.0234991
0.0227202
0.0224059
0.0222648
0.033647
0.0279101
0.0244065
0.0227669
0.0218544
0.0213166
0.020978
0.0207978
0.0207123
0.0335167
0.0260179
0.0231837
0.0218372
0.0210819
0.0206033
0.0202838
0.0200722
0.0199461
0.0198826
0.033518
0.0254759
0.0226594
0.0213813
0.0206665
0.0202029
0.019879
0.0196483
0.0194888
0.0193884
0.019336
0.0336472
0.026018
0.0226594
0.0212378
0.0204753
0.0199867
0.0196413
0.0193875
0.019201
0.019069
0.0189835
0.0189381
0.0366156
0.0279101
0.0231836
0.0213813
0.0204753
0.0199171
0.0195289
0.0192423
0.0190268
0.0188663
0.0187515
0.0186761
0.0186356
0.0322738
0.0244065
0.0218372
0.0206665
0.0199867
0.0195289
0.0191955
0.0189438
0.0187527
0.0186095
0.0185064
0.0184383
0.0184015
0.0362959
0.0272324
0.0227669
0.021082
0.0202029
0.0196413
0.0192423
0.0189438
0.0187159
0.0185417
0.0184108
0.0183162
0.0182534
0.0182194
0.0311012
0.0247427
0.0218544
0.0206033
0.019879
0.0193875
0.0190268
0.0187527
0.0185417
0.0183799
0.0182578
0.0181693
0.0181104
0.0180784
0.0299044
0.0234992
0.0213166
0.0202838
0.0196483
0.019201
0.0188663
0.0186095
0.0184108
0.0182578
0.018142
0.018058
0.0180019
0.0179714
0.0272931
0.0227202
0.020978
0.0200722
0.0194888
0.019069
0.0187515
0.0185064
0.0183162
0.0181693
0.018058
0.017977
0.0179229
0.0178935
0.0416083
0.026703
0.022406
0.0207978
0.0199461
0.0193884
0.0189835
0.0186761
0.0184383
0.0182534
0.0181104
0.0180019
0.0179229
0.01787
0.0178413
0.041032
0.0263794
0.0222648
0.0207123
0.0198826
0.019336
0.0189381
0.0186356
0.0184015
0.0182194
0.0180784
0.0179714
0.0178935
0.0178413
0.017813
0.0234343
0.0234912
0.0224289
0.0236382
0.0223692
0.0220552
0.0220104
0.0219896
0.0225336
0.0243475
0.0220348
0.0217226
0.0214621
0.0212714
0.0211967
0.021145
0.0233117
0.0220865
0.0216687
0.0212569
0.0209162
0.0206377
0.020453
0.020357
0.0203075
0.0220561
0.0217658
0.0213287
0.0208875
0.0204949
0.0201838
0.0199477
0.0197881
0.0196959
0.0196517
0.0220568
0.0216366
0.0211446
0.0206408
0.0202139
0.0198716
0.0196121
0.019421
0.0192893
0.019209
0.0191705
0.0233119
0.021766
0.0211446
0.0205608
0.020072
0.0196942
0.0194051
0.0191873
0.0190267
0.0189144
0.0188442
0.0188102
0.0225337
0.0220866
0.0213287
0.0206408
0.020072
0.0196356
0.0193063
0.019056
0.0188668
0.0187265
0.0186276
0.0185648
0.0185343
0.0243475
0.0216688
0.0208875
0.0202139
0.0196942
0.0193063
0.0190136
0.0187905
0.0186211
0.0184949
0.0184054
0.0183481
0.0183201
0.0224289
0.0220348
0.0212569
0.0204949
0.0198716
0.0194051
0.019056
0.0187905
0.018587
0.0184316
0.0183154
0.0182325
0.0181793
0.0181533
0.0236382
0.0217227
0.0209162
0.0201838
0.0196122
0.0191874
0.0188668
0.0186211
0.0184316
0.0182862
0.0181771
0.0180992
0.0180489
0.0180243
0.0223693
0.0214622
0.0206377
0.0199477
0.019421
0.0190267
0.0187265
0.0184949
0.0183154
0.0181771
0.0180731
0.0179987
0.0179506
0.017927
0.0220552
0.0212714
0.020453
0.0197881
0.0192893
0.0189144
0.0186276
0.0184054
0.0182326
0.0180992
0.0179987
0.0179265
0.0178799
0.0178571
0.0234343
0.0220104
0.0211967
0.020357
0.0196959
0.0192091
0.0188442
0.0185648
0.0183481
0.0181793
0.0180489
0.0179506
0.0178799
0.0178343
0.0178119
0.0234912
0.0219896
0.021145
0.0203075
0.0196517
0.0191705
0.0188102
0.0185343
0.0183201
0.0181533
0.0180243
0.017927
0.0178571
0.0178119
0.0177896
0.0197906
0.019805
0.0198696
0.0202516
0.0204751
0.0203594
0.020252
0.0202114
0.0198763
0.0207203
0.0202701
0.0201922
0.0200974
0.0200587
0.0200294
0.020004
0.0200867
0.0202838
0.0201836
0.0200631
0.0199265
0.0197821
0.0196909
0.0196359
0.0196055
0.0204337
0.0202169
0.0200919
0.0199121
0.0197203
0.0195546
0.0194149
0.0193149
0.0192527
0.0192214
0.0204345
0.0201717
0.0200189
0.0197974
0.0195726
0.0193702
0.0192042
0.019073
0.0189784
0.0189185
0.018889
0.0200867
0.0202171
0.0200188
0.0197595
0.0194938
0.0192604
0.0190641
0.018906
0.0187834
0.018695
0.0186385
0.0186107
0.0198764
0.0202839
0.020092
0.0197974
0.0194938
0.019223
0.0189948
0.0188076
0.0186587
0.0185444
0.018462
0.0184089
0.0183828
0.0207203
0.0201836
0.0199122
0.0195726
0.0192604
0.0189948
0.0187753
0.0185977
0.0184574
0.0183503
0.018273
0.018223
0.0181984
0.0198696
0.0202701
0.0200631
0.0197203
0.0193702
0.0190641
0.0188077
0.0185977
0.0184289
0.0182961
0.0181948
0.0181216
0.0180741
0.0180508
0.0202516
0.0201922
0.0199266
0.0195546
0.0192042
0.018906
0.0186587
0.0184574
0.0182961
0.0181692
0.0180724
0.0180024
0.017957
0.0179347
0.0204751
0.0200974
0.0197821
0.0194149
0.019073
0.0187834
0.0185444
0.0183503
0.0181948
0.0180724
0.017979
0.0179115
0.0178676
0.017846
0.0203595
0.0200587
0.0196909
0.0193149
0.0189784
0.018695
0.018462
0.018273
0.0181216
0.0180024
0.0179115
0.0178457
0.0178029
0.0177818
0.0197906
0.020252
0.0200294
0.0196359
0.0192527
0.0189185
0.0186385
0.0184089
0.018223
0.0180741
0.017957
0.0178676
0.0178029
0.0177608
0.0177401
0.019805
0.0202114
0.0200041
0.0196056
0.0192214
0.018889
0.0186107
0.0183828
0.0181984
0.0180508
0.0179347
0.017846
0.0177818
0.0177401
0.0177195
0.0184434
0.0184537
0.0185604
0.0187875
0.0191183
0.019118
0.0190656
0.0190436
0.0185752
0.0190011
0.0190412
0.0190288
0.0189996
0.0190011
0.0189999
0.0189964
0.0187161
0.019045
0.0190326
0.0190256
0.018997
0.0189454
0.0189097
0.0188844
0.0188702
0.0191483
0.0190483
0.0190424
0.0189923
0.0189262
0.0188621
0.0187995
0.0187498
0.0187152
0.0186969
0.0191489
0.0190287
0.0190237
0.0189608
0.0188716
0.0187784
0.0186928
0.0186184
0.0185614
0.0185233
0.018504
0.0187161
0.0190485
0.0190237
0.0189495
0.018841
0.0187251
0.0186149
0.0185181
0.0184378
0.0183775
0.0183375
0.0183176
0.0185753
0.019045
0.0190424
0.0189609
0.018841
0.0187064
0.0185747
0.0184553
0.0183537
0.0182718
0.0182108
0.0181706
0.0181506
0.0190012
0.0190326
0.0189923
0.0188716
0.0187251
0.0185747
0.0184342
0.018311
0.0182083
0.0181268
0.0180664
0.0180266
0.0180069
0.0185604
0.0190412
0.0190256
0.0189263
0.0187784
0.018615
0.0184553
0.018311
0.0181871
0.018085
0.0180047
0.0179454
0.0179064
0.0178871
0.0187875
0.0190288
0.018997
0.0188622
0.0186928
0.0185181
0.0183537
0.0182083
0.018085
0.0179843
0.0179053
0.0178472
0.017809
0.0177901
0.0191183
0.0189996
0.0189454
0.0187995
0.0186184
0.0184378
0.0182718
0.0181268
0.0180047
0.0179053
0.0178277
0.0177706
0.0177331
0.0177146
0.019118
0.0190011
0.0189097
0.0187498
0.0185614
0.0183775
0.0182108
0.0180664
0.0179454
0.0178472
0.0177706
0.0177144
0.0176775
0.0176592
0.0184434
0.0190656
0.0189999
0.0188845
0.0187152
0.0185233
0.0183375
0.0181706
0.0180267
0.0179064
0.0178091
0.0177332
0.0176775
0.0176409
0.0176228
0.0184537
0.0190436
0.0189964
0.0188702
0.018697
0.018504
0.0183176
0.0181506
0.0180069
0.0178871
0.0177902
0.0177146
0.0176592
0.0176228
0.0176048
0.0177253
0.0177335
0.0177862
0.0179348
0.0181512
0.0181948
0.0181852
0.0181836
0.0178111
0.0180434
0.0181513
0.0181704
0.018176
0.0181885
0.0181967
0.0182013
0.0179009
0.0181526
0.0181789
0.0182122
0.0182307
0.0182303
0.0182274
0.0182214
0.0182172
0.0181851
0.0181746
0.0182186
0.0182321
0.0182325
0.0182251
0.0182099
0.018194
0.0181803
0.0181724
0.0181855
0.0181694
0.0182255
0.0182411
0.0182289
0.0182039
0.0181726
0.01814
0.0181123
0.0180924
0.0180819
0.0179009
0.0181747
0.0182254
0.0182437
0.018226
0.0181871
0.0181396
0.018091
0.0180466
0.0180111
0.0179865
0.017974
0.0178111
0.0181527
0.0182187
0.0182411
0.018226
0.018181
0.018121
0.0180574
0.0179976
0.0179461
0.017906
0.0178787
0.0178649
0.0180435
0.018179
0.0182321
0.0182289
0.0181871
0.018121
0.0180457
0.0179715
0.0179049
0.0178492
0.0178066
0.0177779
0.0177635
0.0177862
0.0181513
0.0182122
0.0182325
0.0182039
0.0181396
0.0180574
0.0179715
0.0178908
0.0178202
0.0177623
0.0177183
0.0176889
0.0176742
0.0179348
0.0181705
0.0182307
0.0182251
0.0181726
0.018091
0.0179976
0.0179049
0.0178202
0.0177474
0.0176883
0.0176437
0.017614
0.0175991
0.0181512
0.018176
0.0182303
0.0182099
0.01814
0.0180466
0.0179461
0.0178492
0.0177623
0.0176883
0.0176286
0.0175838
0.017554
0.0175391
0.0181948
0.0181885
0.0182274
0.018194
0.0181123
0.0180111
0.017906
0.0178066
0.0177183
0.0176437
0.0175838
0.0175389
0.0175091
0.0174942
0.0177253
0.0181852
0.0181968
0.0182214
0.0181803
0.0180924
0.0179865
0.0178787
0.0177779
0.0176889
0.017614
0.017554
0.0175091
0.0174793
0.0174645
0.0177335
0.0181836
0.0182013
0.0182172
0.0181724
0.0180819
0.017974
0.0178649
0.0177635
0.0176742
0.0175991
0.0175391
0.0174942
0.0174645
0.0174496
0.0172151
0.0172218
0.0172342
0.017327
0.0174522
0.0175025
0.0175077
0.0175138
0.0172562
0.0174001
0.0174821
0.0175131
0.0175346
0.017554
0.0175647
0.0175707
0.0173111
0.0174824
0.017524
0.0175681
0.0176022
0.017623
0.0176371
0.0176429
0.0176448
0.0174829
0.0175097
0.017568
0.0176067
0.017636
0.017656
0.0176664
0.0176709
0.0176712
0.0176706
0.0174831
0.017514
0.0175847
0.0176309
0.0176566
0.0176697
0.0176723
0.0176679
0.0176612
0.0176551
0.0176514
0.0173111
0.0175098
0.0175847
0.0176394
0.0176673
0.0176748
0.0176693
0.0176558
0.0176391
0.0176236
0.0176119
0.0176056
0.0172562
0.0174824
0.017568
0.0176309
0.0176673
0.0176764
0.0176659
0.0176443
0.017618
0.0175921
0.0175702
0.0175546
0.0175465
0.0174001
0.017524
0.0176067
0.0176566
0.0176748
0.0176659
0.0176398
0.0176056
0.01757
0.0175376
0.0175113
0.017493
0.0174837
0.0172342
0.0174821
0.0175682
0.017636
0.0176698
0.0176693
0.0176443
0.0176056
0.0175622
0.0175201
0.0174832
0.017454
0.017434
0.0174238
0.017327
0.0175131
0.0176023
0.017656
0.0176723
0.0176558
0.017618
0.01757
0.0175201
0.0174735
0.0174337
0.0174027
0.0173815
0.0173708
0.0174522
0.0175346
0.0176231
0.0176664
0.0176679
0.0176391
0.0175921
0.0175376
0.0174832
0.0174337
0.017392
0.0173597
0.0173378
0.0173268
0.0175026
0.017554
0.0176371
0.0176709
0.0176613
0.0176236
0.0175702
0.0175113
0.017454
0.0174027
0.0173597
0.0173267
0.0173044
0.0172931
0.0172151
0.0175078
0.0175647
0.0176429
0.0176712
0.0176551
0.0176119
0.0175546
0.0174931
0.017434
0.0173815
0.0173378
0.0173044
0.0172818
0.0172704
0.0172218
0.0175138
0.0175708
0.0176448
0.0176706
0.0176515
0.0176057
0.0175465
0.0174837
0.0174238
0.0173708
0.0173268
0.0172931
0.0172704
0.017259
0.0167816
0.0167892
0.0167816
0.0168415
0.0169083
0.0169544
0.0169636
0.0169714
0.0167995
0.0169007
0.0169479
0.0169793
0.0170046
0.0170275
0.0170398
0.0170466
0.0168339
0.0169478
0.0169914
0.0170356
0.0170722
0.0170992
0.0171201
0.0171319
0.0171373
0.0169349
0.0169734
0.0170321
0.017078
0.0171174
0.017149
0.0171718
0.0171873
0.017196
0.0171997
0.0169351
0.016981
0.0170505
0.0171058
0.0171481
0.0171805
0.0172025
0.0172157
0.0172232
0.0172266
0.0172279
0.0168339
0.0169735
0.0170504
0.0171158
0.0171645
0.0171978
0.0172184
0.0172286
0.0172317
0.0172312
0.0172295
0.0172282
0.0167995
0.0169478
0.0170321
0.0171058
0.0171645
0.0172036
0.0172249
0.0172327
0.0172316
0.0172257
0.0172186
0.0172127
0.0172093
0.0169007
0.0169914
0.017078
0.0171481
0.0171978
0.0172249
0.0172335
0.0172297
0.0172191
0.017206
0.0171938
0.0171846
0.0171797
0.0167816
0.0169479
0.0170356
0.0171174
0.0171805
0.0172184
0.0172327
0.0172297
0.0172163
0.0171983
0.0171798
0.0171638
0.0171523
0.0171463
0.0168415
0.0169793
0.0170722
0.017149
0.0172025
0.0172286
0.0172316
0.0172191
0.0171983
0.0171747
0.0171523
0.0171337
0.0171205
0.0171137
0.0169083
0.0170046
0.0170992
0.0171718
0.0172157
0.0172317
0.0172257
0.017206
0.0171798
0.0171523
0.0171271
0.0171067
0.0170924
0.017085
0.0169544
0.0170276
0.0171201
0.0171873
0.0172232
0.0172312
0.0172186
0.0171938
0.0171638
0.0171337
0.0171067
0.017085
0.0170699
0.0170622
0.0167816
0.0169636
0.0170398
0.0171319
0.017196
0.0172266
0.0172295
0.0172127
0.0171846
0.0171523
0.0171205
0.0170924
0.0170699
0.0170544
0.0170464
0.0167892
0.0169714
0.0170466
0.0171373
0.0171998
0.0172279
0.0172283
0.0172093
0.0171797
0.0171463
0.0171137
0.017085
0.0170622
0.0170464
0.0170384
0.0163914
0.0163995
0.016388
0.0164274
0.0164592
0.0164977
0.0165076
0.0165153
0.0164013
0.0164785
0.0164998
0.0165274
0.0165511
0.016574
0.0165866
0.0165937
0.0164243
0.0164996
0.0165398
0.0165801
0.0166145
0.0166414
0.0166637
0.0166777
0.0166846
0.0164815
0.0165211
0.0165751
0.0166206
0.0166615
0.0166966
0.0167241
0.0167447
0.0167576
0.0167637
0.0164817
0.0165289
0.0165921
0.0166474
0.016695
0.0167355
0.0167674
0.0167905
0.0168063
0.0168159
0.0168203
0.0164243
0.0165212
0.0165921
0.0166572
0.016713
0.0167587
0.0167939
0.0168186
0.0168348
0.0168447
0.0168501
0.0168525
0.0164013
0.0164996
0.0165751
0.0166474
0.016713
0.0167666
0.0168063
0.0168331
0.0168493
0.016858
0.0168621
0.0168637
0.0168641
0.0164785
0.0165398
0.0166206
0.016695
0.0167587
0.0168063
0.0168374
0.0168551
0.0168631
0.0168651
0.0168642
0.0168625
0.0168613
0.016388
0.0164998
0.0165801
0.0166615
0.0167355
0.0167939
0.0168331
0.0168551
0.0168642
0.0168652
0.0168617
0.0168569
0.0168527
0.0168502
0.0164274
0.0165274
0.0166145
0.0166966
0.0167674
0.0168187
0.0168493
0.0168631
0.0168652
0.0168605
0.0168528
0.016845
0.0168389
0.0168355
0.0164593
0.0165511
0.0166414
0.0167241
0.0167905
0.0168348
0.016858
0.0168651
0.0168617
0.0168528
0.0168421
0.0168321
0.0168246
0.0168206
0.0164977
0.016574
0.0166637
0.0167447
0.0168063
0.0168447
0.0168621
0.0168642
0.0168569
0.016845
0.0168321
0.0168206
0.0168121
0.0168077
0.0163914
0.0165076
0.0165866
0.0166777
0.0167576
0.0168159
0.0168502
0.0168637
0.0168625
0.0168527
0.0168389
0.0168246
0.0168121
0.0168031
0.0167984
0.0163995
0.0165153
0.0165937
0.0166846
0.0167638
0.0168203
0.0168525
0.0168641
0.0168613
0.0168502
0.0168355
0.0168206
0.0168077
0.0167984
0.0167935
0.016036
0.0160436
0.0160344
0.016061
0.0160722
0.0161031
0.0161122
0.016119
0.0160442
0.0161057
0.0161099
0.0161331
0.0161537
0.0161744
0.0161862
0.016193
0.0160609
0.0161098
0.0161449
0.0161803
0.0162109
0.0162356
0.0162567
0.0162706
0.0162778
0.0160911
0.0161276
0.0161751
0.0162169
0.0162555
0.0162898
0.0163179
0.01634
0.0163544
0.0163616
0.0160912
0.0161346
0.0161901
0.0162413
0.0162882
0.0163304
0.0163658
0.0163935
0.0164137
0.0164266
0.0164329
0.0160609
0.0161276
0.01619
0.0162501
0.0163058
0.0163555
0.0163973
0.01643
0.0164539
0.0164704
0.0164804
0.0164852
0.0160442
0.0161098
0.0161751
0.0162413
0.0163058
0.0163641
0.0164128
0.0164505
0.0164777
0.0164963
0.0165082
0.0165152
0.0165184
0.0161057
0.016145
0.0162169
0.0162882
0.0163555
0.0164128
0.016457
0.0164885
0.0165095
0.0165226
0.0165302
0.0165343
0.016536
0.0160345
0.0161099
0.0161803
0.0162555
0.0163304
0.0163974
0.0164505
0.0164885
0.0165135
0.0165285
0.0165367
0.0165406
0.0165423
0.0165428
0.016061
0.0161331
0.0162109
0.0162898
0.0163659
0.01643
0.0164777
0.0165095
0.0165285
0.0165384
0.0165426
0.0165436
0.0165433
0.0165429
0.0160722
0.0161537
0.0162356
0.0163179
0.0163935
0.0164539
0.0164963
0.0165226
0.0165367
0.0165426
0.0165437
0.0165425
0.0165408
0.0165396
0.0161031
0.0161744
0.0162568
0.01634
0.0164137
0.0164704
0.0165082
0.0165302
0.0165406
0.0165436
0.0165425
0.0165397
0.016537
0.0165354
0.0160359
0.0161123
0.0161862
0.0162707
0.0163544
0.0164266
0.0164805
0.0165152
0.0165343
0.0165423
0.0165433
0.0165408
0.016537
0.0165336
0.0165317
0.0160435
0.016119
0.016193
0.0162778
0.0163616
0.0164329
0.0164852
0.0165184
0.016536
0.0165428
0.0165429
0.0165396
0.0165354
0.0165317
0.0165296
0.0157097
0.0157164
0.0157105
0.0157288
0.0157275
0.0157521
0.01576
0.0157656
0.015718
0.0157682
0.015761
0.0157803
0.0157977
0.0158155
0.0158259
0.015832
0.015731
0.0157611
0.0157913
0.0158217
0.0158482
0.0158699
0.0158888
0.0159016
0.0159083
0.015744
0.015776
0.015817
0.015854
0.0158887
0.0159202
0.0159467
0.015968
0.0159824
0.0159897
0.015744
0.0157822
0.0158299
0.0158755
0.0159188
0.0159592
0.0159945
0.0160233
0.016045
0.0160594
0.0160665
0.015731
0.0157761
0.0158299
0.0158833
0.0159351
0.015984
0.0160274
0.0160632
0.0160909
0.016111
0.0161237
0.01613
0.015718
0.0157612
0.015817
0.0158755
0.0159351
0.0159926
0.016044
0.0160867
0.01612
0.0161446
0.0161615
0.0161721
0.0161771
0.0157682
0.0157913
0.015854
0.0159188
0.015984
0.016044
0.0160944
0.0161339
0.0161631
0.0161836
0.0161972
0.0162054
0.0162093
0.0157105
0.015761
0.0158217
0.0158887
0.0159592
0.0160274
0.0160867
0.0161339
0.016169
0.0161936
0.0162102
0.0162207
0.0162268
0.0162296
0.0157289
0.0157803
0.0158482
0.0159202
0.0159945
0.0160632
0.01612
0.0161631
0.0161936
0.0162142
0.0162273
0.0162351
0.0162395
0.0162414
0.0157275
0.0157977
0.0158699
0.0159467
0.0160233
0.016091
0.0161446
0.0161836
0.0162102
0.0162273
0.0162376
0.0162434
0.0162464
0.0162476
0.0157522
0.0158156
0.0158888
0.0159681
0.0160451
0.016111
0.0161615
0.0161972
0.0162207
0.0162351
0.0162434
0.0162477
0.0162497
0.0162504
0.0157096
0.01576
0.0158259
0.0159016
0.0159824
0.0160594
0.0161238
0.0161721
0.0162054
0.0162268
0.0162395
0.0162464
0.0162497
0.0162511
0.0162515
0.0157162
0.0157656
0.015832
0.0159083
0.0159898
0.0160665
0.01613
0.0161771
0.0162093
0.0162296
0.0162414
0.0162476
0.0162504
0.0162515
0.0162518
0.0154071
0.0154127
0.0154095
0.015423
0.0154127
0.0154326
0.0154391
0.0154437
0.0154156
0.0154573
0.015442
0.0154581
0.0154727
0.0154877
0.0154965
0.0155017
0.0154263
0.0154427
0.0154682
0.015494
0.0155167
0.0155353
0.0155516
0.0155628
0.0155688
0.0154277
0.0154554
0.0154903
0.0155222
0.0155525
0.0155803
0.0156042
0.0156237
0.0156372
0.0156441
0.0154277
0.0154608
0.0155015
0.015541
0.0155794
0.0156162
0.0156493
0.015677
0.0156984
0.0157129
0.0157201
0.0154263
0.0154554
0.0155014
0.0155478
0.0155941
0.0156395
0.0156812
0.0157171
0.0157459
0.0157673
0.0157813
0.0157882
0.0154156
0.0154427
0.0154903
0.015541
0.0155941
0.0156475
0.0156977
0.0157415
0.0157772
0.0158048
0.0158245
0.0158372
0.0158434
0.0154573
0.0154682
0.0155222
0.0155794
0.0156395
0.0156977
0.0157496
0.0157926
0.0158263
0.0158514
0.0158688
0.0158798
0.0158851
0.0154095
0.015442
0.015494
0.0155525
0.0156162
0.0156812
0.0157415
0.0157926
0.0158333
0.015864
0.0158862
0.0159012
0.0159105
0.0159149
0.015423
0.0154581
0.0155167
0.0155804
0.0156493
0.0157171
0.0157773
0.0158263
0.015864
0.0158917
0.015911
0.0159239
0.0159317
0.0159354
0.0154127
0.0154727
0.0155353
0.0156042
0.015677
0.0157459
0.0158048
0.0158514
0.0158862
0.015911
0.0159281
0.0159392
0.0159458
0.0159489
0.0154326
0.0154877
0.0155516
0.0156238
0.0156985
0.0157673
0.0158246
0.0158688
0.0159012
0.0159239
0.0159392
0.015949
0.0159547
0.0159573
0.0154069
0.0154391
0.0154965
0.0155628
0.0156372
0.0157129
0.0157813
0.0158372
0.0158798
0.0159105
0.0159317
0.0159458
0.0159547
0.0159598
0.0159622
0.0154125
0.0154437
0.0155017
0.0155688
0.0156441
0.0157201
0.0157882
0.0158434
0.0158851
0.0159149
0.0159354
0.0159489
0.0159573
0.0159622
0.0159644
0.0151229
0.0151276
0.0151263
0.0151369
0.0151201
0.0151364
0.0151415
0.0151454
0.0151315
0.0151668
0.0151457
0.0151591
0.0151712
0.0151838
0.0151909
0.0151954
0.0151409
0.015147
0.0151685
0.0151902
0.0152093
0.0152249
0.0152387
0.0152482
0.0152534
0.0151344
0.0151581
0.0151876
0.0152147
0.0152405
0.0152645
0.0152852
0.0153024
0.0153144
0.0153206
0.0151344
0.0151629
0.0151974
0.0152311
0.0152643
0.0152965
0.0153262
0.0153515
0.0153715
0.0153852
0.0153921
0.0151409
0.0151581
0.0151974
0.015237
0.0152772
0.0153176
0.0153559
0.0153898
0.0154177
0.0154389
0.015453
0.0154601
0.0151316
0.015147
0.0151876
0.0152311
0.0152772
0.015325
0.0153714
0.0154135
0.0154492
0.0154774
0.0154983
0.0155119
0.0155186
0.0151668
0.0151685
0.0152147
0.0152643
0.0153176
0.0153714
0.0154215
0.0154649
0.0155003
0.0155275
0.015547
0.0155596
0.0155657
0.0151263
0.0151457
0.0151903
0.0152406
0.0152965
0.0153559
0.0154135
0.0154649
0.0155078
0.0155416
0.015567
0.0155849
0.0155963
0.0156018
0.0151369
0.0151591
0.0152093
0.0152645
0.0153262
0.0153898
0.0154492
0.0155003
0.0155416
0.0155735
0.0155969
0.0156132
0.0156234
0.0156283
0.0151201
0.0151713
0.0152249
0.0152853
0.0153515
0.0154177
0.0154775
0.0155275
0.015567
0.0155969
0.0156185
0.0156334
0.0156426
0.015647
0.0151364
0.0151838
0.0152387
0.0153024
0.0153716
0.0154389
0.0154983
0.015547
0.0155849
0.0156132
0.0156334
0.0156471
0.0156556
0.0156597
0.0151228
0.0151416
0.015191
0.0152482
0.0153144
0.0153852
0.015453
0.0155119
0.0155596
0.0155963
0.0156234
0.0156426
0.0156556
0.0156636
0.0156674
0.0151275
0.0151454
0.0151954
0.0152534
0.0153206
0.0153922
0.0154601
0.0155187
0.0155658
0.0156018
0.0156283
0.015647
0.0156597
0.0156674
0.0156711
0.0148529
0.014857
0.0148571
0.0148662
0.0148445
0.0148579
0.0148619
0.0148652
0.0148621
0.0148922
0.014867
0.0148781
0.0148882
0.0148985
0.0149042
0.0149079
0.0148706
0.0148691
0.0148871
0.0149052
0.0149209
0.0149338
0.0149451
0.0149529
0.0149572
0.0148589
0.0148792
0.0149039
0.0149265
0.0149479
0.0149679
0.0149854
0.0149999
0.0150102
0.0150156
0.0148589
0.0148835
0.0149126
0.0149407
0.0149685
0.0149959
0.0150215
0.0150438
0.0150616
0.015074
0.0150803
0.0148707
0.0148792
0.0149126
0.0149459
0.0149799
0.0150146
0.0150483
0.0150789
0.0151046
0.0151246
0.0151381
0.0151449
0.0148621
0.0148691
0.014904
0.0149407
0.0149799
0.0150211
0.0150625
0.0151011
0.0151348
0.0151622
0.0151829
0.0151966
0.0152034
0.0148923
0.0148871
0.0149265
0.0149685
0.0150146
0.0150625
0.0151087
0.0151501
0.015185
0.0152126
0.0152329
0.0152462
0.0152527
0.0148571
0.014867
0.0149052
0.014948
0.0149959
0.0150483
0.0151011
0.0151501
0.0151926
0.0152273
0.0152541
0.0152735
0.015286
0.0152922
0.0148663
0.0148782
0.014921
0.014968
0.0150216
0.0150789
0.0151348
0.015185
0.0152273
0.0152611
0.0152867
0.015305
0.0153167
0.0153224
0.0148445
0.0148882
0.0149338
0.0149854
0.0150438
0.0151047
0.0151622
0.0152126
0.0152541
0.0152867
0.0153112
0.0153284
0.0153394
0.0153448
0.014858
0.0148985
0.0149451
0.015
0.0150617
0.0151246
0.0151829
0.0152329
0.0152735
0.015305
0.0153284
0.0153449
0.0153553
0.0153603
0.0148529
0.0148619
0.0149042
0.0149529
0.0150102
0.015074
0.0151381
0.0151966
0.0152462
0.015286
0.0153167
0.0153394
0.0153553
0.0153653
0.0153701
0.0148569
0.0148652
0.014908
0.0149572
0.0150156
0.0150804
0.0151449
0.0152034
0.0152527
0.0152922
0.0153224
0.0153448
0.0153603
0.0153701
0.0153749
0.0145939
0.0145977
0.0145989
0.0146071
0.0145823
0.0145936
0.0145962
0.0145992
0.0146042
0.0146305
0.0146024
0.0146116
0.0146196
0.014628
0.0146323
0.0146355
0.0146125
0.0146055
0.0146203
0.0146351
0.0146478
0.0146579
0.0146668
0.0146729
0.0146764
0.0145981
0.0146151
0.0146355
0.0146537
0.0146708
0.0146869
0.0147009
0.0147128
0.0147211
0.0147256
0.0145981
0.0146192
0.0146434
0.0146661
0.0146885
0.0147108
0.014732
0.0147508
0.014766
0.0147767
0.0147823
0.0146125
0.0146151
0.0146433
0.0146706
0.0146983
0.0147269
0.0147554
0.014782
0.0148048
0.0148228
0.0148351
0.0148414
0.0146042
0.0146056
0.0146355
0.0146661
0.0146983
0.0147327
0.014768
0.0148021
0.0148326
0.0148581
0.0148776
0.0148907
0.0148973
0.0146306
0.0146203
0.0146537
0.0146885
0.0147269
0.014768
0.014809
0.014847
0.0148799
0.0149066
0.0149266
0.0149399
0.0149465
0.0145989
0.0146024
0.0146351
0.0146708
0.0147108
0.0147555
0.0148021
0.014847
0.0148873
0.0149212
0.014948
0.0149679
0.0149808
0.0149873
0.0146072
0.0146116
0.0146478
0.0146869
0.014732
0.014782
0.0148326
0.0148799
0.0149212
0.0149551
0.0149816
0.0150009
0.0150134
0.0150196
0.0145823
0.0146197
0.0146579
0.0147009
0.0147508
0.0148048
0.0148581
0.0149066
0.0149481
0.0149816
0.0150074
0.0150261
0.0150381
0.015044
0.0145936
0.014628
0.0146668
0.0147128
0.0147661
0.0148228
0.0148776
0.0149266
0.0149679
0.0150009
0.0150261
0.0150442
0.0150558
0.0150615
0.0145939
0.0145963
0.0146323
0.0146729
0.0147212
0.0147768
0.0148351
0.0148908
0.0149399
0.0149809
0.0150134
0.0150381
0.0150558
0.0150671
0.0150727
0.0145977
0.0145993
0.0146355
0.0146764
0.0147257
0.0147823
0.0148414
0.0148974
0.0149465
0.0149873
0.0150196
0.015044
0.0150615
0.0150727
0.0150781
0.0143434
0.0143473
0.0143495
0.0143573
0.0143315
0.0143408
0.0143419
0.0143449
0.0143555
0.0143792
0.0143495
0.0143567
0.0143628
0.0143692
0.0143721
0.0143749
0.0143641
0.0143539
0.0143656
0.0143771
0.0143867
0.0143941
0.0144005
0.0144049
0.0144076
0.0143503
0.0143635
0.0143795
0.0143932
0.014406
0.014418
0.0144285
0.0144375
0.014444
0.0144475
0.0143503
0.0143676
0.0143868
0.0144041
0.0144209
0.0144379
0.0144544
0.0144694
0.0144819
0.0144907
0.0144954
0.0143641
0.0143635
0.0143868
0.014408
0.0144291
0.0144515
0.0144744
0.0144963
0.0145157
0.0145313
0.0145422
0.0145478
0.0143555
0.0143539
0.0143795
0.0144041
0.0144291
0.0144563
0.0144852
0.014514
0.0145407
0.0145635
0.0145813
0.0145935
0.0145997
0.0143792
0.0143656
0.0143932
0.0144209
0.0144515
0.0144852
0.0145202
0.0145538
0.0145838
0.0146088
0.0146278
0.0146406
0.0146471
0.0143496
0.0143495
0.0143772
0.014406
0.0144379
0.0144744
0.014514
0.0145538
0.0145907
0.0146227
0.0146487
0.0146682
0.0146812
0.0146876
0.0143573
0.0143568
0.0143868
0.014418
0.0144545
0.0144963
0.0145407
0.0145838
0.0146227
0.0146557
0.014682
0.0147015
0.0147143
0.0147206
0.0143315
0.0143629
0.0143941
0.0144286
0.0144695
0.0145157
0.0145635
0.0146088
0.0146487
0.014682
0.0147082
0.0147274
0.0147399
0.0147462
0.0143409
0.0143693
0.0144006
0.0144376
0.0144819
0.0145314
0.0145814
0.0146278
0.0146682
0.0147015
0.0147274
0.0147463
0.0147586
0.0147647
0.0143435
0.014342
0.0143722
0.0144049
0.014444
0.0144908
0.0145423
0.0145936
0.0146406
0.0146812
0.0147143
0.01474
0.0147586
0.0147707
0.0147767
0.0143474
0.014345
0.014375
0.0144077
0.0144476
0.0144955
0.0145479
0.0145997
0.0146471
0.0146876
0.0147206
0.0147462
0.0147647
0.0147767
0.0147826
0.0140989
0.0141032
0.0141071
0.014115
0.014091
0.0140978
0.0140972
0.0141005
0.014114
0.0141363
0.0141065
0.0141116
0.0141156
0.0141197
0.0141212
0.0141237
0.0141236
0.0141125
0.0141208
0.0141288
0.0141351
0.0141395
0.0141432
0.0141457
0.0141478
0.0141164
0.0141226
0.0141338
0.0141425
0.0141504
0.0141581
0.014165
0.014171
0.0141755
0.0141781
0.0141164
0.0141269
0.0141405
0.0141517
0.0141624
0.0141738
0.0141856
0.0141967
0.0142062
0.0142132
0.014217
0.0141236
0.0141226
0.0141405
0.0141551
0.0141691
0.0141848
0.0142019
0.0142191
0.014235
0.0142481
0.0142574
0.0142622
0.014114
0.0141125
0.0141338
0.0141517
0.0141692
0.0141888
0.014211
0.0142343
0.0142568
0.0142767
0.0142926
0.0143036
0.0143093
0.0141364
0.0141209
0.0141425
0.0141624
0.0141848
0.014211
0.0142396
0.0142685
0.0142952
0.014318
0.0143357
0.0143478
0.0143539
0.0141072
0.0141065
0.0141289
0.0141504
0.0141738
0.0142019
0.0142343
0.0142685
0.0143015
0.0143311
0.0143556
0.0143744
0.014387
0.0143933
0.0141151
0.0141117
0.0141352
0.0141581
0.0141856
0.0142192
0.0142568
0.0142952
0.0143311
0.0143624
0.0143878
0.014407
0.0144198
0.0144261
0.0140911
0.0141156
0.0141395
0.014165
0.0141967
0.014235
0.0142767
0.014318
0.0143556
0.0143878
0.0144137
0.014433
0.0144457
0.014452
0.0140979
0.0141197
0.0141433
0.0141711
0.0142063
0.0142481
0.0142926
0.0143357
0.0143744
0.014407
0.014433
0.0144522
0.0144648
0.0144711
0.014099
0.0140973
0.0141212
0.0141458
0.0141755
0.0142133
0.0142574
0.0143037
0.0143478
0.014387
0.0144198
0.0144457
0.0144648
0.0144773
0.0144835
0.0141033
0.0141006
0.0141238
0.0141479
0.0141782
0.0142171
0.0142623
0.0143093
0.0143539
0.0143933
0.0144261
0.014452
0.0144711
0.0144835
0.0144897
0.0138573
0.0138623
0.0138689
0.0138783
0.0138614
0.0138635
0.0138606
0.0138651
0.0138771
0.0139005
0.0138727
0.0138747
0.0138758
0.0138768
0.0138766
0.0138792
0.0138892
0.0138805
0.0138845
0.0138878
0.0138899
0.0138907
0.0138914
0.0138919
0.0138934
0.0139076
0.0138903
0.0138957
0.0138982
0.0139005
0.0139034
0.0139064
0.0139094
0.0139119
0.0139138
0.0139076
0.0138949
0.0139009
0.0139053
0.0139092
0.0139147
0.0139216
0.0139289
0.0139357
0.013941
0.0139439
0.0138892
0.0138904
0.0139009
0.0139078
0.0139142
0.013923
0.0139344
0.0139471
0.0139596
0.0139703
0.0139781
0.0139823
0.0138772
0.0138805
0.0138957
0.0139053
0.0139142
0.0139261
0.0139417
0.0139599
0.0139785
0.0139955
0.0140095
0.0140194
0.0140246
0.0139006
0.0138845
0.0138982
0.0139092
0.013923
0.0139417
0.0139644
0.0139887
0.0140122
0.0140328
0.0140492
0.0140604
0.0140662
0.013869
0.0138728
0.0138878
0.0139005
0.0139147
0.0139344
0.0139599
0.0139887
0.014018
0.014045
0.014068
0.0140858
0.0140979
0.014104
0.0138784
0.0138748
0.01389
0.0139034
0.0139217
0.0139472
0.0139785
0.0140122
0.014045
0.0140744
0.0140988
0.0141175
0.01413
0.0141363
0.0138615
0.0138759
0.0138908
0.0139064
0.013929
0.0139596
0.0139956
0.0140328
0.014068
0.0140988
0.014124
0.0141431
0.0141558
0.0141621
0.0138636
0.0138769
0.0138914
0.0139095
0.0139358
0.0139704
0.0140096
0.0140492
0.0140858
0.0141175
0.0141431
0.0141623
0.014175
0.0141813
0.0138574
0.0138607
0.0138767
0.013892
0.013912
0.013941
0.0139782
0.0140195
0.0140605
0.014098
0.01413
0.0141558
0.014175
0.0141877
0.014194
0.0138625
0.0138652
0.0138793
0.0138935
0.0139139
0.013944
0.0139824
0.0140246
0.0140662
0.0141041
0.0141363
0.0141621
0.0141813
0.014194
0.0142003
0.013612
0.0136191
0.013629
0.013644
0.0136493
0.0136368
0.0136296
0.0136373
0.0136397
0.0136717
0.0136483
0.0136443
0.0136416
0.013637
0.0136343
0.0136375
0.013659
0.013657
0.0136543
0.01365
0.0136462
0.0136427
0.0136399
0.0136384
0.0136395
0.0137508
0.0136695
0.0136605
0.0136553
0.0136511
0.0136486
0.0136478
0.0136481
0.013649
0.0136502
0.0137508
0.013679
0.0136647
0.0136591
0.0136558
0.0136557
0.0136581
0.0136622
0.0136668
0.0136706
0.013673
0.013659
0.0136694
0.0136646
0.0136608
0.0136589
0.0136613
0.0136678
0.0136768
0.0136866
0.0136955
0.0137021
0.0137058
0.0136397
0.013657