/*--------------------------------*- C++ -*----------------------------------*\
| =========                 |                                                 |
| \\      /  F ield         | OpenFOAM: The Open Source CFD Toolbox           |
|  \\    /   O peration     | Version:  2.1.1                                 |
|   \\  /    A nd           | Web:      www.OpenFOAM.org                      |
|    \\/     M anipulation  |                                                 |
\*---------------------------------------------------------------------------*/
FoamFile
{
    version     2.0;
    format      ascii;
    class       volScalarField;
    location    "0.0045";
    object      p;
}
// * * * * * * * * * * * * * * * * * * * * * * * * * * * * * * * * * * * * * //

dimensions      [0 2 -2 0 0 0 0];

internalField   nonuniform List<scalar> 
10191
(
0.0239427
0.0227609
0.0233923
0.0230167
0.0201526
0.0199632
0.0200781
0.0200482
0.0238729
0.0222208
0.0200683
0.0199327
0.0198153
0.0198587
0.0198211
0.019818
0.0240287
0.0200818
0.0199819
0.0198954
0.0199054
0.0199711
0.0199405
0.0199652
0.0199635
0.0201544
0.0199317
0.0198894
0.0198579
0.0199174
0.0198831
0.0198583
0.0198504
0.0198347
0.019832
0.0201874
0.0197782
0.0199505
0.0199152
0.0199315
0.0198999
0.0198943
0.0199
0.0198869
0.0198924
0.0198884
0.024032
0.0199353
0.019952
0.0199113
0.0199021
0.0198697
0.019873
0.0198454
0.0198342
0.0198179
0.0198095
0.0198042
0.0238739
0.0200822
0.01989
0.0199156
0.0199023
0.0198953
0.0198809
0.0198646
0.0198458
0.0198384
0.0198236
0.0198206
0.0198155
0.0222213
0.0199821
0.0198581
0.0199317
0.0198699
0.019881
0.0198376
0.0198324
0.0198009
0.0197896
0.0197696
0.019762
0.0197551
0.0233926
0.0200686
0.0198957
0.0199177
0.0199002
0.0198733
0.0198649
0.0198326
0.0198193
0.0197911
0.0197796
0.0197603
0.0197538
0.019747
0.023017
0.0199329
0.0199056
0.0198834
0.0198946
0.0198457
0.0198461
0.0198011
0.0197911
0.0197556
0.019743
0.0197201
0.0197118
0.0197038
0.0201527
0.0198155
0.0199713
0.0198585
0.0199003
0.0198345
0.0198387
0.0197898
0.0197796
0.019743
0.0197303
0.0197067
0.0196986
0.0196904
0.0199633
0.0198588
0.0199406
0.0198504
0.019887
0.019818
0.0198237
0.0197697
0.0197604
0.0197201
0.0197068
0.0196809
0.0196719
0.019663
0.0239427
0.020078
0.019821
0.0199652
0.0198346
0.0198923
0.0198094
0.0198205
0.0197619
0.0197538
0.0197118
0.0196986
0.0196719
0.0196629
0.0196537
0.0227608
0.0200481
0.0198178
0.0199633
0.0198317
0.0198881
0.0198039
0.0198152
0.019755
0.019747
0.0197039
0.0196905
0.0196631
0.0196537
0.0196441
0.0228954
0.0217134
0.0223449
0.0219692
0.0191038
0.0189145
0.0190283
0.0189994
0.0228253
0.0211728
0.0190199
0.0188833
0.018764
0.0188076
0.0187634
0.0187656
0.0229812
0.0190349
0.0189321
0.0188444
0.0188519
0.0189202
0.0188876
0.0189189
0.0189106
0.0191306
0.0188849
0.0188393
0.0188056
0.018864
0.0188295
0.018801
0.0187934
0.0187774
0.0187736
0.0191121
0.0187274
0.0189034
0.0188622
0.0188791
0.0188452
0.018836
0.0188396
0.0188244
0.0188294
0.0188248
0.0229851
0.0188829
0.0189024
0.0188575
0.0188479
0.0188117
0.0188198
0.018784
0.0187663
0.018747
0.0187369
0.0187317
0.0228265
0.0190353
0.0188394
0.0188621
0.0188478
0.0188364
0.0188189
0.0188011
0.0187782
0.0187669
0.0187493
0.0187446
0.0187388
0.0211734
0.0189325
0.0188058
0.0188792
0.0188117
0.0188189
0.0187712
0.0187624
0.0187264
0.0187118
0.0186888
0.0186792
0.0186714
0.0223454
0.0190204
0.0188448
0.0188644
0.0188455
0.0188201
0.0188013
0.0187625
0.0187445
0.0187114
0.0186961
0.0186733
0.0186646
0.0186566
0.0219696
0.0188837
0.0188523
0.0188299
0.0188365
0.0187845
0.0187786
0.0187266
0.0187115
0.0186701
0.0186531
0.018626
0.0186152
0.0186057
0.0191041
0.0187642
0.0189204
0.0188014
0.0188401
0.0187669
0.0187674
0.018712
0.0186962
0.0186531
0.0186356
0.0186073
0.0185964
0.0185864
0.0189146
0.0188077
0.0188877
0.0187935
0.0188246
0.018747
0.0187494
0.0186888
0.0186733
0.018626
0.0186073
0.0185764
0.0185644
0.0185535
0.0228955
0.0190283
0.0187634
0.0189188
0.0187772
0.018829
0.0187365
0.0187442
0.0186789
0.0186645
0.0186151
0.0185964
0.0185643
0.0185521
0.0185408
0.0217133
0.0189993
0.0187654
0.0189103
0.0187731
0.0188241
0.018731
0.0187381
0.0186709
0.0186564
0.0186057
0.0185864
0.0185535
0.0185409
0.018529
0.0218523
0.0206703
0.0213018
0.020926
0.01806
0.01787
0.0179841
0.0179556
0.0217822
0.0201288
0.0179751
0.0178381
0.017715
0.0177609
0.0177153
0.017717
0.0219384
0.0179916
0.0178861
0.0177977
0.0178031
0.0178731
0.0178368
0.0178694
0.0178603
0.0180717
0.0178375
0.017792
0.0177569
0.0178125
0.0177768
0.0177458
0.0177386
0.017721
0.0177168
0.0180846
0.0176813
0.0178573
0.0178128
0.0178301
0.0177868
0.017777
0.0177815
0.0177649
0.0177696
0.0177635
0.0219422
0.017839
0.0178578
0.0178066
0.0177954
0.0177538
0.0177523
0.0177152
0.0177014
0.0176819
0.0176711
0.017664
0.0217837
0.0179923
0.0177924
0.0178127
0.0177951
0.0177791
0.0177571
0.0177344
0.0177079
0.0176951
0.0176752
0.0176691
0.0176615
0.0201298
0.0178867
0.0177572
0.01783
0.0177533
0.0177569
0.0177039
0.0176908
0.0176497
0.0176314
0.0176049
0.0175931
0.0175838
0.0213026
0.0179759
0.0177982
0.017813
0.0177871
0.0177525
0.0177345
0.0176908
0.0176679
0.0176289
0.0176091
0.0175821
0.0175709
0.0175611
0.0209267
0.0178387
0.0178036
0.0177773
0.0177781
0.0177172
0.0177087
0.01765
0.0176289
0.0175807
0.0175585
0.0175265
0.0175126
0.0175013
0.0180603
0.0177154
0.0178734
0.0177464
0.0177832
0.0177063
0.0176966
0.0176317
0.0176092
0.0175585
0.0175353
0.0175015
0.0174873
0.0174753
0.0178702
0.0177611
0.017837
0.0177388
0.0177653
0.0176828
0.0176757
0.017605
0.0175821
0.0175265
0.0175015
0.0174647
0.0174489
0.0174358
0.0218524
0.0179841
0.0177153
0.0178693
0.0177206
0.0177684
0.0176682
0.0176678
0.0175926
0.0175706
0.0175124
0.0174873
0.0174488
0.0174326
0.0174189
0.0206702
0.0179554
0.0177168
0.0178599
0.017716
0.0177617
0.0176594
0.0176596
0.0175831
0.0175608
0.0175011
0.0174752
0.0174357
0.0174189
0.0174047
0.0208145
0.0196324
0.0202636
0.0198877
0.017021
0.0168301
0.0169449
0.0169163
0.0207437
0.0190895
0.016935
0.0167966
0.01667
0.0167185
0.0166708
0.0166727
0.0209002
0.0169521
0.0168439
0.0167551
0.0167585
0.0168298
0.01679
0.0168236
0.0168135
0.0170429
0.0167968
0.0167486
0.0167106
0.0167644
0.0167286
0.0166933
0.0166858
0.0166661
0.0166615
0.0170329
0.0166388
0.0168159
0.016766
0.0167789
0.0167381
0.0167237
0.0167254
0.0167058
0.0167097
0.0167025
0.0209043
0.0167959
0.0168149
0.0167583
0.0167456
0.0166989
0.0166941
0.0166552
0.0166352
0.0166131
0.0165995
0.0165914
0.0207458
0.0169531
0.0167486
0.0167647
0.0167434
0.0167239
0.0166972
0.0166699
0.016639
0.0166221
0.0165984
0.0165902
0.0165813
0.0190909
0.0168448
0.0167108
0.0167778
0.0166968
0.016696
0.0166367
0.0166183
0.0165711
0.016548
0.0165173
0.0165027
0.0164918
0.0202648
0.0169361
0.016756
0.0167649
0.0167378
0.0166932
0.0166692
0.016618
0.0165892
0.016543
0.0165182
0.016486
0.0164718
0.0164601
0.0198886
0.0167975
0.0167592
0.0167292
0.0167241
0.0166555
0.0166391
0.0165711
0.016543
0.0164867
0.0164584
0.0164206
0.0164032
0.0163898
0.0170216
0.0166705
0.0168303
0.0166937
0.0167261
0.0166362
0.0166227
0.0165481
0.0165182
0.0164583
0.0164288
0.0163884
0.0163705
0.016356
0.0168304
0.0167188
0.0167903
0.016686
0.016706
0.0166133
0.0165985
0.0165172
0.016486
0.0164205
0.0163884
0.0163445
0.0163245
0.0163087
0.0208146
0.0169449
0.0166708
0.0168235
0.0166658
0.0167091
0.0165986
0.0165895
0.0165022
0.0164715
0.0164029
0.0163704
0.0163243
0.0163035
0.0162868
0.0196324
0.0169162
0.0166724
0.0168132
0.0166609
0.0167014
0.0165898
0.0165802
0.0164911
0.0164597
0.0163895
0.0163559
0.0163086
0.0162868
0.0162694
0.0197825
0.0186003
0.019231
0.0188551
0.0159878
0.0157954
0.0159113
0.0158821
0.0197108
0.0180555
0.0158991
0.0157601
0.0156294
0.0156809
0.0156304
0.015633
0.0198672
0.0159173
0.015806
0.0157173
0.0157178
0.0157909
0.0157473
0.0157819
0.0157706
0.0159987
0.015758
0.0157092
0.0156688
0.0157207
0.0156823
0.0156427
0.0156352
0.015613
0.0156078
0.0160101
0.0156013
0.015778
0.0157242
0.0157344
0.0156899
0.015671
0.015671
0.0156477
0.0156508
0.0156424
0.0198723
0.0157602
0.0157779
0.0157135
0.0157037
0.0156514
0.0156381
0.0155934
0.0155685
0.0155431
0.0155268
0.0155174
0.0197137
0.0159193
0.0157101
0.0157215
0.0156909
0.0156713
0.0156393
0.015606
0.0155689
0.0155475
0.0155191
0.015509
0.0154984
0.0180578
0.0158078
0.0156695
0.0157313
0.0156377
0.0156356
0.0155692
0.0155445
0.0154898
0.0154612
0.0154254
0.0154074
0.0153948
0.0192328
0.0159009
0.0157188
0.0157215
0.0156889
0.0156346
0.0156041
0.015544
0.0155082
0.0154534
0.0154225
0.0153844
0.0153668
0.015353
0.0188565
0.0157615
0.0157189
0.0156831
0.0156711
0.0155931
0.0155684
0.0154896
0.0154534
0.0153875
0.0153522
0.0153078
0.0152863
0.0152705
0.0159886
0.0156302
0.0157916
0.0156431
0.0156713
0.0155687
0.0155476
0.0154611
0.0154225
0.0153521
0.0153146
0.0152672
0.0152446
0.0152274
0.0157959
0.0156813
0.0157477
0.0156353
0.0156478
0.0155431
0.0155191
0.0154253
0.0153843
0.0153077
0.0152671
0.0152155
0.0151902
0.0151714
0.0197827
0.0159114
0.0156305
0.0157818
0.0156128
0.0156505
0.0155262
0.0155084
0.015407
0.0153665
0.0152861
0.0152444
0.0151901
0.0151636
0.0151434
0.0186003
0.015882
0.0156328
0.0157704
0.0156074
0.0156418
0.0155166
0.0154976
0.0153942
0.0153526
0.0152702
0.0152272
0.0151713
0.0151434
0.0151221
0.0187573
0.0175748
0.0182053
0.0178294
0.0149613
0.0147665
0.0148838
0.0148539
0.0186844
0.0170277
0.0148684
0.0147291
0.0145922
0.0146486
0.0145949
0.0145984
0.0188407
0.0148883
0.0147725
0.014684
0.0146815
0.0147583
0.014709
0.0147448
0.0147319
0.0149792
0.0147258
0.0146737
0.0146306
0.01468
0.0146392
0.0145949
0.0145869
0.0145615
0.0145561
0.0149732
0.0145682
0.0147449
0.0146831
0.0146898
0.0146424
0.0146192
0.0146184
0.0145904
0.0145932
0.0145828
0.0188467
0.0147274
0.0147465
0.0146727
0.0146469
0.0145916
0.0145803
0.0145309
0.0145007
0.0144719
0.0144524
0.0144417
0.0186885
0.014892
0.0146769
0.0146878
0.0146602
0.0146213
0.0145789
0.0145405
0.0144962
0.0144705
0.0144365
0.0144237
0.0144111
0.0170311
0.0147759
0.0146338
0.0146925
0.0145941
0.0145799
0.0145007
0.0144687
0.0144053
0.0143704
0.0143287
0.0143073
0.0142925
0.0182078
0.0148712
0.0146868
0.0146825
0.0146439
0.0145807
0.0145406
0.0144686
0.014423
0.014359
0.0143206
0.014276
0.0142545
0.0142383
0.0178314
0.0147311
0.0146834
0.0146405
0.0146201
0.0145313
0.0144963
0.0144053
0.014359
0.0142824
0.0142392
0.0141876
0.0141617
0.0141432
0.0149623
0.0145929
0.0147596
0.0145951
0.0146186
0.0145009
0.0144705
0.0143704
0.0143206
0.0142391
0.0141927
0.0141376
0.0141099
0.0140897
0.0147671
0.014649
0.0147094
0.0145872
0.0145904
0.0144718
0.0144365
0.0143287
0.014276
0.0141875
0.0141375
0.0140775
0.0140466
0.0140243
0.0187576
0.0148839
0.014595
0.0147448
0.0145616
0.0145929
0.0144519
0.0144233
0.0143069
0.0142542
0.0141614
0.0141097
0.0140463
0.0140133
0.0139892
0.0175748
0.0148537
0.0145982
0.0147317
0.0145559
0.0145824
0.0144411
0.0144105
0.014292
0.014238
0.014143
0.0140896
0.0140241
0.0139891
0.013963
0.01774
0.0165573
0.017187
0.0168114
0.0139434
0.0137443
0.0138633
0.0138323
0.0176649
0.0160068
0.0138438
0.0137045
0.0135624
0.0136231
0.0135648
0.0135697
0.0178204
0.0138657
0.0137431
0.0136545
0.0136488
0.0137281
0.0136748
0.013713
0.0136976
0.0139559
0.0136968
0.0136463
0.0135931
0.0136433
0.013597
0.0135468
0.0135414
0.0135151
0.0135088
0.0139571
0.01354
0.0137211
0.0136518
0.0136498
0.0135973
0.0135681
0.0135658
0.0135326
0.0135357
0.0135223
0.0178287
0.0137017
0.0137179
0.0136363
0.0136115
0.0135412
0.013525
0.0134678
0.0134324
0.0133992
0.0133764
0.0133641
0.0176708
0.0138722
0.0136527
0.0136566
0.013615
0.0135725
0.0135212
0.0134736
0.0134209
0.0133895
0.0133494
0.0133335
0.0133186
0.0160116
0.013749
0.0135991
0.0136547
0.0135442
0.0135225
0.013431
0.0133902
0.0133167
0.0132748
0.0132267
0.0132014
0.0131843
0.0171904
0.013848
0.0136594
0.0136485
0.0136011
0.0135271
0.0134745
0.0133904
0.0133335
0.013259
0.0132126
0.0131611
0.0131351
0.0131165
0.0168141
0.0137074
0.0136521
0.0135995
0.0135705
0.0134691
0.0134215
0.0133169
0.0132591
0.0131712
0.0131193
0.0130602
0.0130295
0.0130084
0.0139449
0.0135637
0.013729
0.0135474
0.0135659
0.0134327
0.0133897
0.0132749
0.0132126
0.0131192
0.0130631
0.013
0.0129669
0.0129439
0.0137452
0.0136236
0.0136748
0.0135407
0.013532
0.013399
0.0133494
0.0132267
0.0131611
0.0130601
0.0129999
0.0129311
0.0128942
0.0128686
0.0177404
0.0138636
0.0135649
0.0137126
0.0135145
0.0135349
0.0133759
0.0133331
0.0132011
0.0131349
0.0130292
0.0129667
0.0128939
0.0128539
0.0128257
0.0165573
0.0138321
0.0135694
0.0136973
0.0135085
0.0135218
0.0133635
0.0133182
0.0131839
0.0131162
0.0130082
0.0129437
0.0128684
0.0128257
0.0127955
0.0167319
0.0155492
0.0161775
0.0158018
0.0129324
0.0127292
0.0128505
0.0128179
0.0166536
0.0149939
0.0128274
0.0126865
0.0125401
0.0126043
0.012541
0.0125476
0.0168068
0.0128481
0.0127205
0.0126328
0.0126217
0.0127055
0.0126455
0.0126839
0.0126661
0.0129318
0.0126641
0.0126151
0.0125673
0.0126123
0.0125545
0.0125165
0.0125009
0.0124673
0.0124603
0.0129614
0.0125157
0.0126758
0.01262
0.0126138
0.0125558
0.0125181
0.0125148
0.0124746
0.0124743
0.0124587
0.016818
0.0126836
0.0127209
0.0126022
0.0125724
0.0124925
0.012469
0.0124029
0.0123629
0.0123237
0.0122978
0.0122833
0.0166612
0.0128588
0.012633
0.0126299
0.0125769
0.0125246
0.0124624
0.0124049
0.0123425
0.012304
0.0122574
0.012238
0.0122207
0.0150002
0.0127299
0.0125772
0.0126203
0.0124965
0.0124638
0.0123585
0.0123076
0.0122233
0.0121738
0.0121189
0.0120896
0.0120701
0.0161817
0.0128333
0.0126426
0.0126214
0.012562
0.012472
0.0124062
0.0123079
0.0122391
0.0121532
0.0120982
0.0120392
0.0120089
0.0119876
0.0158052
0.0126905
0.0126294
0.0125727
0.0125237
0.0124045
0.0123434
0.0122237
0.0121534
0.0120536
0.0119924
0.0119257
0.0118901
0.0118663
0.0129343
0.0125417
0.0127041
0.0125024
0.0125122
0.0123634
0.0123046
0.012174
0.0120983
0.0119924
0.0119264
0.0118552
0.0118167
0.011791
0.0127303
0.0126047
0.012644
0.0124958
0.0124723
0.0123233
0.0122576
0.012119
0.0120392
0.0119256
0.011855
0.0117777
0.0117349
0.0117065
0.0167325
0.0128508
0.012541
0.0126831
0.0124658
0.0124731
0.0122971
0.0122377
0.0120893
0.0120087
0.0118898
0.0118164
0.0117344
0.0116885
0.0116584
0.0155493
0.0128178
0.0125472
0.0126656
0.0124597
0.012458
0.0122827
0.0122203
0.0120698
0.0119874
0.0118661
0.0117908
0.0117064
0.0116585
0.011628
0.0157346
0.0145517
0.015178
0.0148016
0.0119293
0.0117215
0.0118454
0.0118109
0.0156518
0.0139901
0.0118193
0.0116747
0.0115252
0.0115918
0.0115248
0.0115327
0.0158032
0.0118405
0.011705
0.0116197
0.011603
0.0116847
0.0116179
0.0116578
0.0116373
0.011972
0.011653
0.0116019
0.0115455
0.0115871
0.0115259
0.0114727
0.0114566
0.0114219
0.011414
0.0119095
0.011495
0.0116797
0.0115973
0.0115786
0.0115161
0.0114698
0.0114592
0.0114129
0.0114103
0.0113926
0.0158131
0.0116543
0.0116859
0.0115697
0.0115364
0.0114448
0.011412
0.0113354
0.0112898
0.0112436
0.0112146
0.0111978
0.0156602
0.0118496
0.0116125
0.0116053
0.0115397
0.0114766
0.0114002
0.0113329
0.0112593
0.0112135
0.0111597
0.0111365
0.0111166
0.0139971
0.0117116
0.0115547
0.0115859
0.0114489
0.0114017
0.0112824
0.01122
0.0111239
0.0110668
0.0110045
0.0109713
0.0109494
0.0151828
0.0118258
0.0116297
0.0115956
0.0115221
0.0114154
0.0113345
0.0112203
0.0111388
0.0110408
0.0109771
0.0109107
0.0108762
0.0108524
0.0148055
0.011679
0.0116089
0.0115322
0.0114738
0.0113377
0.0112606
0.0111245
0.0110411
0.0109291
0.0108591
0.0107848
0.010745
0.0107187
0.0119314
0.0115273
0.0116861
0.0114725
0.0114596
0.0112906
0.0112141
0.0110671
0.0109772
0.010859
0.0107835
0.0107048
0.0106618
0.0106336
0.0117228
0.0115929
0.011618
0.0114555
0.0114123
0.0112436
0.01116
0.0110047
0.0109109
0.0107848
0.0107045
0.0106192
0.0105732
0.0105438
0.0157352
0.0118459
0.011525
0.0116575
0.0114211
0.0114096
0.0112142
0.0111363
0.0109711
0.010876
0.0107448
0.0106615
0.0105727
0.0105263
0.0104964
0.0145518
0.0118109
0.0115325
0.0116369
0.0114134
0.011392
0.0111974
0.0111164
0.0109492
0.0108523
0.0107185
0.0106334
0.0105436
0.0104965
0.0104667
0.0147494
0.0135662
0.0141896
0.0138118
0.010935
0.0107207
0.0108483
0.0108111
0.0146601
0.0129959
0.0108193
0.010668
0.0105177
0.0105865
0.0105172
0.0105264
0.0148051
0.0108379
0.0106932
0.0106103
0.0105883
0.0106682
0.0105921
0.010633
0.0106089
0.0108816
0.010626
0.0105933
0.0105249
0.0105651
0.0104904
0.0104352
0.0104125
0.0103767
0.0103672
0.0110091
0.0104897
0.0106656
0.010576
0.0105434
0.0104747
0.0104184
0.0104012
0.0103474
0.0103422
0.010322
0.0148204
0.0106507
0.0106754
0.0105381
0.010501
0.0103921
0.0103521
0.0102626
0.0102115
0.0101574
0.0101258
0.0101065
0.014669
0.0108478
0.0106015
0.0105847
0.0105043
0.0104261
0.0103337
0.0102556
0.0101696
0.0101163
0.0100551
0.0100282
0.0100057
0.0130033
0.0107024
0.0105348
0.0105515
0.0103965
0.0103353
0.0101996
0.0101256
0.0100173
0.00995282
0.00988322
0.00984672
0.00982214
0.0141946
0.0108255
0.0106181
0.0105732
0.0104808
0.0103557
0.0102573
0.010126
0.0100315
0.00992141
0.00984954
0.00977636
0.00973812
0.00971215
0.0138159
0.0106722
0.0105932
0.010495
0.0104221
0.0102651
0.0101711
0.0100179
0.00992176
0.00979805
0.00972032
0.00963983
0.00959686
0.00956849
0.0109373
0.0105199
0.0106705
0.010437
0.0104028
0.0102126
0.0101171
0.00995316
0.00984978
0.00972014
0.00963626
0.00955206
0.00950733
0.00947879
0.0107223
0.0105881
0.0105932
0.0104131
0.0103478
0.0101579
0.0100556
0.00988353
0.0097766
0.0096398
0.00955171
0.00946509
0.00942021
0.00939179
0.0147501
0.0108489
0.0105177
0.0106331
0.0103765
0.010342
0.0101256
0.0100281
0.00984658
0.00973803
0.00959659
0.00950701
0.0094199
0.00937561
0.00934719
0.0135663
0.0108111
0.0105264
0.0106087
0.0103668
0.0103216
0.0101062
0.0100055
0.00982201
0.00971211
0.00956838
0.00947867
0.00939167
0.00934726
0.00931957
0.0137779
0.0125944
0.0132133
0.012833
0.00994958
0.00972649
0.00985906
0.0098182
0.0136792
0.0120118
0.00982677
0.00966424
0.00951754
0.00958597
0.00951669
0.00952562
0.0138225
0.00983632
0.009684
0.00960234
0.0095758
0.00965292
0.00956717
0.00960766
0.00958038
0.0100053
0.00964392
0.00956961
0.00949681
0.00954394
0.00944978
0.00939738
0.00936469
0.00932836
0.00931608
0.00987412
0.00948769
0.00966273
0.00955319
0.00950387
0.00942874
0.00936132
0.00933739
0.00927535
0.00926751
0.00924444
0.0138291
0.00960152
0.00965477
0.00950614
0.00946082
0.00933273
0.00928567
0.00918131
0.00912556
0.00906307
0.00902918
0.0090072
0.0136878
0.00985365
0.00961467
0.00956688
0.00946346
0.00937024
0.00925985
0.00917032
0.00907132
0.00901115
0.00894241
0.00891252
0.00888754
0.0120194
0.00969694
0.00951845
0.00951597
0.0093374
0.00926124
0.00910743
0.00902267
0.00890208
0.00883149
0.00875541
0.00871649
0.00868973
0.0132183
0.00983283
0.00961053
0.00955316
0.0094356
0.0092894
0.00917193
0.00902295
0.00891636
0.00879491
0.008717
0.00863807
0.0085978
0.00856984
0.0128371
0.0096684
0.00958044
0.00945405
0.00936502
0.00918392
0.00907287
0.00890278
0.00879534
0.00866186
0.00857872
0.00849451
0.00845154
0.00842351
0.00995196
0.00952016
0.00965551
0.00939962
0.00933922
0.00912689
0.00901207
0.00883182
0.00871724
0.00857822
0.00849178
0.00840871
0.00836708
0.00833999
0.00972811
0.00958764
0.00956859
0.00936582
0.0092763
0.00906383
0.00894306
0.00875579
0.00863841
0.00849443
0.00840874
0.00832625
0.00828538
0.00825925
0.0137787
0.00985971
0.00951728
0.00960805
0.00932851
0.0092676
0.0090292
0.00891255
0.0087164
0.00859776
0.00845126
0.00836688
0.00828515
0.00824577
0.00821961
0.0125945
0.00981818
0.00952554
0.00958022
0.00931585
0.00924427
0.00900706
0.00888751
0.00868968
0.00856987
0.00842344
0.00833998
0.00825918
0.00821969
0.00819476
0.0128213
0.0116379
0.0122498
0.0118652
0.00897081
0.00873852
0.00887657
0.0088309
0.0127084
0.0110373
0.00883949
0.00865932
0.00852606
0.00858677
0.00851953
0.00852714
0.0128415
0.00884422
0.00867845
0.00859606
0.0085626
0.0086338
0.00854019
0.00857959
0.00854888
0.00886283
0.00859794
0.0085783
0.00847711
0.00851889
0.00840334
0.00835257
0.0083086
0.0082729
0.00825725
0.00904252
0.00849481
0.00864499
0.00853191
0.00846171
0.00837618
0.00829492
0.00826417
0.00819406
0.00818374
0.00815764
0.0128532
0.00861738
0.00865402
0.00846336
0.0084119
0.00826329
0.00820914
0.00808887
0.0080296
0.00795844
0.00792331
0.00789843
0.0127162
0.00885312
0.00858909
0.00853982
0.00841458
0.00830533
0.00817498
0.00807485
0.00796315
0.00789728
0.00782212
0.00779034
0.00776322
0.0110441
0.00868672
0.00848663
0.00846874
0.00826691
0.00817621
0.00800378
0.00791022
0.00777859
0.0077045
0.00762354
0.00758383
0.00755553
0.0122544
0.0088447
0.00860234
0.00852546
0.00838127
0.0082121
0.0080762
0.00791037
0.00779389
0.00766388
0.00758275
0.00750159
0.00746275
0.00743567
0.0118691
0.00866311
0.00856678
0.00840746
0.0082983
0.00809125
0.00796462
0.00777928
0.00766433
0.00752471
0.00744394
0.00736408
0.00732588
0.00730012
0.00897317
0.00852871
0.00863637
0.00835478
0.00826603
0.00803094
0.0078982
0.00770485
0.00758301
0.00744367
0.00736456
0.00728812
0.00725218
0.00722792
0.00874025
0.0085886
0.00854179
0.00830994
0.00819523
0.00795936
0.00782287
0.00762398
0.00750195
0.00736406
0.0072882
0.00721425
0.00717987
0.00715679
0.0128221
0.0088772
0.00852019
0.00858013
0.00827325
0.00818401
0.00792346
0.00779046
0.00758378
0.00746272
0.00732566
0.00725205
0.00717968
0.00714679
0.00712386
0.011638
0.00883085
0.00852706
0.00854881
0.00825717
0.00815762
0.00789842
0.00776329
0.00755556
0.00743576
0.0073001
0.00722797
0.00715678
0.00712396
0.00710228
0.0118808
0.0106981
0.0112984
0.0109069
0.00799269
0.00775347
0.00789561
0.00784491
0.011746
0.0100692
0.00784995
0.00764115
0.00753838
0.00757999
0.00751871
0.00752274
0.0118704
0.00784139
0.00766354
0.00758223
0.00753923
0.00760282
0.00750303
0.00754098
0.0075067
0.00802733
0.00758663
0.00756447
0.00744013
0.00747544
0.00734061
0.00729163
0.00723559
0.007202
0.00718251
0.00786134
0.00748971
0.00763125
0.00749459
0.00740158
0.00730686
0.00721069
0.00717458
0.00709689
0.00708515
0.00705626
0.0118754
0.00757371
0.00762322
0.00740148
0.00734758
0.00717447
0.00711464
0.00697864
0.006918
0.00683894
0.00680457
0.00677702
0.011752
0.00784621
0.00756943
0.00749575
0.00734792
0.0072226
0.00707243
0.00696397
0.00684113
0.00677247
0.00669309
0.00666121
0.00663239
0.0100746
0.00766889
0.00744585
0.00740547
0.00717657
0.00707326
0.00688354
0.00678519
0.0066455
0.00657173
0.00648967
0.00645412
0.00642712
0.0113025
0.00785404
0.00758672
0.00747994
0.00731041
0.00711669
0.00696495
0.00678515
0.00666348
0.00653129
0.00645604
0.00638177
0.00634927
0.00632506
0.0109104
0.00764421
0.00754272
0.00734406
0.00721355
0.00698069
0.00684246
0.00664619
0.00653178
0.00639877
0.00633025
0.00625957
0.00622921
0.00620696
0.00799498
0.00754123
0.00760526
0.00729371
0.00717631
0.00691925
0.00677334
0.00657209
0.00645628
0.00633011
0.00626478
0.00619941
0.0061715
0.00615095
0.0077552
0.00758186
0.00750468
0.00723702
0.00709816
0.00683994
0.0066939
0.00649016
0.00638215
0.00625964
0.00619954
0.00613729
0.00611107
0.00609191
0.0118816
0.00789626
0.00751938
0.00754158
0.00720245
0.00708552
0.0068048
0.00666139
0.00645411
0.00634926
0.00622904
0.00617141
0.00611091
0.00608615
0.00606709
0.0106982
0.00784491
0.00752275
0.00750674
0.00718255
0.00705637
0.00677713
0.00663256
0.00642722
0.0063252
0.00620699
0.00615105
0.00609193
0.00606719
0.00604955
0.0109623
0.00977964
0.0103613
0.00995956
0.0070111
0.00676658
0.00691529
0.00685685
0.0107911
0.00910285
0.00685372
0.00661416
0.00653344
0.00655676
0.00650911
0.0065091
0.0108946
0.00681708
0.00663052
0.00654885
0.0065016
0.00655661
0.00645129
0.00649042
0.00645202
0.0068753
0.00652559
0.00653538
0.00638275
0.00641365
0.00625435
0.00621132
0.00614146
0.00611271
0.00608917
0.0070173
0.0064893
0.00658359
0.00643441
0.00631874
0.006217
0.00610576
0.00606783
0.00598379
0.00597352
0.00594251
0.0109017
0.00654299
0.00659238
0.00631695
0.0062624
0.00606332
0.00600253
0.00585158
0.00579428
0.00570946
0.00567858
0.00564939
0.0107955
0.00681897
0.00653324
0.00643624
0.00626286
0.00612178
0.0059532
0.00584177
0.00571071
0.00564467
0.00556606
0.00554082
0.00551486
0.00910702
0.00663359
0.00638448
0.00632065
0.00606479
0.00595386
0.00575121
0.00565574
0.00551735
0.00545708
0.00538403
0.00535826
0.00533524
0.0103649
0.00685715
0.0065522
0.00641661
0.00621934
0.00600388
0.00584249
0.00565575
0.0055433
0.00542379
0.00536565
0.00530306
0.00528059
0.00526094
0.00996277
0.00661727
0.00650472
0.00625729
0.00610816
0.00585333
0.00571191
0.00551803
0.00542423
0.00531031
0.00526163
0.00520458
0.00518453
0.00516684
0.00701316
0.00653572
0.00655876
0.00621321
0.00606941
0.00579542
0.00564549
0.00545744
0.00536589
0.00526154
0.00521608
0.00516445
0.00514619
0.00513022
0.00676824
0.0065585
0.0064529
0.0061429
0.0059851
0.0057105
0.0055669
0.00538456
0.00530347
0.00520471
0.00516461
0.00511635
0.00509966
0.00508509
0.0109631
0.00691595
0.0065098
0.00649105
0.00611322
0.00597396
0.00567886
0.00554103
0.00535829
0.0052806
0.0051844
0.00514613
0.00509952
0.00508411
0.00506965
0.00977981
0.00685696
0.00650921
0.00645217
0.00608934
0.00594275
0.00564961
0.00551511
0.0053354
0.00526113
0.00516692
0.00513035
0.00508513
0.00506976
0.00505657
0.0100651
0.00887822
0.00942524
0.00901297
0.00600202
0.00576249
0.00592273
0.00584855
0.00982826
0.00811392
0.00581302
0.00554085
0.00551124
0.00551766
0.0054848
0.00547919
0.0098973
0.00572988
0.00554106
0.00548659
0.00544606
0.00550886
0.00539856
0.00544414
0.00539942
0.00594135
0.00543496
0.00546779
0.00529553
0.00534
0.00515385
0.0051288
0.00504536
0.00502582
0.00499836
0.00587241
0.00544808
0.00552665
0.00535999
0.0052188
0.00512303
0.00500181
0.00497233
0.00488474
0.00488033
0.00484735
0.00989774
0.00542558
0.00552248
0.0052025
0.00516774
0.00494656
0.00489814
0.00473469
0.0046885
0.00460322
0.00458432
0.00455832
0.00983163
0.00573133
0.00546923
0.00535952
0.00516662
0.00502321
0.00484261
0.00473922
0.00461104
0.00456348
0.00449507
0.00448204
0.00446041
0.00811752
0.00554438
0.00529858
0.00522062
0.00494757
0.00484312
0.00463912
0.00456589
0.00444309
0.00440479
0.00434403
0.00433029
0.00431206
0.0094286
0.00581621
0.00548978
0.00534284
0.00512516
0.00489913
0.00473985
0.00456592
0.00448065
0.00438123
0.00434464
0.00429558
0.0042839
0.00426879
0.00901602
0.00554389
0.0054491
0.00515664
0.00500411
0.00473635
0.0046122
0.00444373
0.00438168
0.00429193
0.00426463
0.00422155
0.00421188
0.00419888
0.00600392
0.00551337
0.00551087
0.00513059
0.00497388
0.00468959
0.0045643
0.00440517
0.0043449
0.00426456
0.00423924
0.00420169
0.00419324
0.00418195
0.00576415
0.00551936
0.00540017
0.00504682
0.00488612
0.00460431
0.00449596
0.00434459
0.00429602
0.00422172
0.00420187
0.00416797
0.00416109
0.00415124
0.0100659
0.00592344
0.00548553
0.0054448
0.00502639
0.00488083
0.00458465
0.0044823
0.00433035
0.00428394
0.00421178
0.00419319
0.00416096
0.00415502
0.00414536
0.0088785
0.00584884
0.00547945
0.00539973
0.00499866
0.00484771
0.00455863
0.00446074
0.00431229
0.00426903
0.00419901
0.00418211
0.0041513
0.00414547
0.00413703
0.00914986
0.00796766
0.00849265
0.00800231
0.00482519
0.00454037
0.00473355
0.00463118
0.00885547
0.00701298
0.00456776
0.00419326
0.00420091
0.00419516
0.00419048
0.00418571
0.00878104
0.00442232
0.00417165
0.00412908
0.00409151
0.00417762
0.0040626
0.00413033
0.00408302
0.00481929
0.00407297
0.00413257
0.00392048
0.00398563
0.00375705
0.00375963
0.00366557
0.00366372
0.00363662
0.00471021
0.00416461
0.0042225
0.00402382
0.00384017
0.0037518
0.00361599
0.00360215
0.0035203
0.00353831
0.00351381
0.00877123
0.00406064
0.00421638
0.00381357
0.00381041
0.00356221
0.00353612
0.00337241
0.00335936
0.0032872
0.00328891
0.00327005
0.00885913
0.00442505
0.00413575
0.00402318
0.00380861
0.00366906
0.00348698
0.00341444
0.00330703
0.00328893
0.00323787
0.00324238
0.00322814
0.00701692
0.004176
0.00392469
0.00384244
0.00356327
0.00348716
0.00331194
0.00328188
0.00318663
0.00317919
0.00313607
0.00313775
0.00312562
0.00849604
0.00457102
0.00413255
0.00398874
0.00375404
0.00353692
0.00341497
0.00328187
0.00323889
0.00317021
0.00316054
0.00312873
0.00312988
0.0031205
0.00800534
0.00419637
0.00409467
0.00375984
0.00361832
0.00337403
0.00330813
0.00318722
0.00317064
0.0031126
0.00311112
0.0030847
0.00308662
0.00307876
0.004827
0.00420297
0.00417956
0.00376136
0.00360378
0.0033604
0.00328973
0.00317953
0.00316079
0.00311106
0.00310887
0.00308706
0.00308868
0.00308227
0.00454205
0.00419685
0.00406423
0.00366705
0.00352173
0.00328831
0.00323877
0.00313663
0.00312918
0.00308488
0.00308724
0.00306845
0.00307112
0.00306587
0.00915074
0.00473431
0.00419126
0.00413103
0.00366433
0.00353887
0.00328926
0.00324266
0.00313784
0.00312994
0.00308655
0.00308866
0.003071
0.00307394
0.00306868
0.0079681
0.00463168
0.00418614
0.00408347
0.00363704
0.00351426
0.00327043
0.00322851
0.00312588
0.00312076
0.00307891
0.00308244
0.00306594
0.00306879
0.00306477
0.00874485
0.00744233
0.00796757
0.00734183
0.00451952
0.00435745
0.00456641
0.00440053
0.00826855
0.00613149
0.00415376
0.00374572
0.00398725
0.00387027
0.00384927
0.00380601
0.00786203
0.0038824
0.00362871
0.00382117
0.0037778
0.00397643
0.00384742
0.00394079
0.00387721
0.00423486
0.00339324
0.00377061
0.00351875
0.00371982
0.00342991
0.00349538
0.00337581
0.00340383
0.00338113
0.00433362
0.00377307
0.00385088
0.00373222
0.00351038
0.00349026
0.00336173
0.0034137
0.00335296
0.00340645
0.00339182
0.0078716
0.00341277
0.00385692
0.00339938
0.00351954
0.00327598
0.00333997
0.00320156
0.00324574
0.00319325
0.00322402
0.00321461
0.00827476
0.00388866
0.00377613
0.00373427
0.00351593
0.003445
0.0033027
0.00330237
0.00323311
0.00326428
0.00323883
0.00326719
0.00326189
0.00613665
0.00363477
0.00352413
0.00351389
0.00327728
0.00330416
0.00319262
0.00323663
0.00318454
0.0032199
0.0032001
0.00322107
0.00321669
0.00797118
0.00415731
0.00382511
0.0037234
0.00349285
0.00334083
0.00330323
0.00323656
0.00325684
0.00322927
0.00325532
0.00324544
0.00326261
0.0032602
0.00734491
0.00374909
0.00378123
0.0034334
0.00336443
0.00320339
0.0032345
0.00318517
0.00322974
0.00321259
0.0032437
0.00323802
0.00325399