/*--------------------------------*- C++ -*----------------------------------*\
| =========                 |                                                 |
| \\      /  F ield         | OpenFOAM: The Open Source CFD Toolbox           |
|  \\    /   O peration     | Version:  2.1.1                                 |
|   \\  /    A nd           | Web:      www.OpenFOAM.org                      |
|    \\/     M anipulation  |                                                 |
\*---------------------------------------------------------------------------*/
FoamFile
{
    version     2.0;
    format      ascii;
    class       volScalarField;
    location    "0.0015";
    object      p;
}
// * * * * * * * * * * * * * * * * * * * * * * * * * * * * * * * * * * * * * //

dimensions      [0 2 -2 0 0 0 0];

internalField   nonuniform List<scalar> 
10266
(
0.0548031
0.0552077
0.0565835
0.0522801
0.0523098
0.0521934
0.0523858
0.0608252
0.0551926
0.052074
0.0520685
0.052113
0.0520662
0.0521764
0.0523103
0.0627969
0.0553426
0.0522183
0.0522253
0.0521912
0.0522185
0.0521495
0.0521398
0.0522152
0.0523167
0.0606295
0.0574542
0.0521277
0.0521301
0.0521385
0.0521409
0.0521536
0.0521785
0.0521233
0.0521341
0.0521783
0.0524057
0.0731
0.0521886
0.0521899
0.0521801
0.0521845
0.0521699
0.0521717
0.0521815
0.0521729
0.0521872
0.0520207
0.0524051
0.070834
0.0521537
0.0521552
0.0521563
0.0521597
0.0521597
0.0521663
0.052159
0.0521642
0.0521747
0.0521874
0.0521787
0.0649036
0.0521802
0.0521807
0.052177
0.0521781
0.0521725
0.0521742
0.0521708
0.0521726
0.0521644
0.0521733
0.0521345
0.0523174
0.0622246
0.0521674
0.0521684
0.0521672
0.0521694
0.0521662
0.0521702
0.0521635
0.052171
0.0521593
0.052182
0.0521239
0.0522159
0.0633726
0.0553073
0.0521809
0.0521813
0.0521787
0.0521794
0.0521746
0.0521765
0.0521705
0.0521745
0.0521669
0.0521723
0.0521793
0.0521407
0.0523113
0.060403
0.0521767
0.0521773
0.0521752
0.0521764
0.0521717
0.0521748
0.0521666
0.052173
0.0521604
0.0521708
0.0521546
0.0521506
0.0521775
0.0627617
0.052184
0.0521843
0.0521816
0.0521824
0.0521768
0.0521798
0.0521701
0.0521789
0.0521608
0.0521856
0.052142
0.0522198
0.0520674
0.0523872
0.068283
0.052183
0.0521834
0.0521807
0.0521818
0.0521757
0.0521794
0.0521682
0.052178
0.0521576
0.0521815
0.05214
0.0521928
0.0521144
0.0521949
0.0641245
0.0521865
0.0521868
0.0521838
0.0521849
0.0521782
0.0521823
0.0521697
0.0521819
0.0521567
0.0521915
0.0521317
0.052227
0.05207
0.0523114
0.0638944
0.0521864
0.0521868
0.0521837
0.052185
0.052178
0.0521824
0.0521692
0.0521818
0.0521557
0.0521905
0.0521296
0.0522203
0.0520758
0.0522821
0.0632402
0.0537304
0.0541353
0.0555111
0.051209
0.0512393
0.051122
0.0513138
0.0597534
0.0541204
0.0510013
0.0510013
0.0510405
0.0509935
0.0511037
0.0512377
0.0617247
0.0542701
0.0511463
0.0511498
0.0511193
0.0511465
0.0510774
0.0510677
0.0511429
0.0512444
0.0595573
0.0563815
0.0510532
0.0510533
0.0510646
0.0510675
0.0510812
0.0511057
0.0510506
0.0510614
0.0511054
0.0513314
0.0720214
0.0511164
0.0511174
0.0511078
0.0511123
0.0510973
0.0510994
0.0511093
0.0511005
0.0511147
0.0509485
0.0513343
0.0697629
0.0510799
0.0510815
0.0510829
0.0510863
0.0510868
0.0510931
0.0510861
0.0510916
0.0511022
0.0511151
0.0511064
0.0638318
0.0511064
0.0511069
0.0511034
0.0511046
0.0510992
0.0511011
0.0510982
0.0510998
0.0510919
0.051101
0.0510619
0.0512452
0.0611526
0.0510928
0.0510939
0.0510929
0.0510953
0.0510924
0.0510968
0.0510902
0.0510983
0.0510864
0.0511098
0.0510511
0.0511437
0.0623004
0.0542349
0.051106
0.0511064
0.051104
0.0511049
0.0511005
0.0511028
0.0510971
0.0511015
0.0510938
0.0511001
0.0511065
0.0510687
0.0512388
0.059331
0.051101
0.0511017
0.0510998
0.0511015
0.0510971
0.0511007
0.0510929
0.0510997
0.0510876
0.0510982
0.0510823
0.0510786
0.051105
0.0616899
0.051108
0.0511084
0.051106
0.0511072
0.0511019
0.0511054
0.0510961
0.0511055
0.0510875
0.0511135
0.0510687
0.0511479
0.0509949
0.0513154
0.0672113
0.0511065
0.0511071
0.0511046
0.0511062
0.0511005
0.0511047
0.0510941
0.0511044
0.0510844
0.0511093
0.0510662
0.0511209
0.0510421
0.0511236
0.0630528
0.0511098
0.0511103
0.0511075
0.051109
0.0511028
0.0511074
0.0510953
0.0511084
0.0510831
0.0511191
0.0510548
0.0511516
0.051003
0.0512411
0.0628226
0.0511095
0.0511101
0.0511073
0.051109
0.0511025
0.0511075
0.0510947
0.0511082
0.051082
0.0511185
0.0510553
0.0511485
0.0510033
0.0512111
0.0621681
0.052658
0.0530628
0.0544384
0.050136
0.050165
0.0500493
0.0502413
0.0586814
0.0530481
0.049927
0.0499196
0.049966
0.0499206
0.0500309
0.0501649
0.0606524
0.0531975
0.0500751
0.0500817
0.0500479
0.0500744
0.0500052
0.0499953
0.0500705
0.0501719
0.0584849
0.0553091
0.0499802
0.0499858
0.0499921
0.0499943
0.0500085
0.0500327
0.0499777
0.0499887
0.050033
0.050261
0.0709629
0.0500445
0.0500461
0.0500357
0.0500399
0.0500247
0.0500267
0.050037
0.0500279
0.0500423
0.0498761
0.0502597
0.0686906
0.050006
0.0500076
0.0500095
0.0500127
0.0500138
0.05002
0.0500131
0.0500189
0.0500295
0.0500424
0.0500334
0.0627595
0.0500329
0.0500334
0.0500298
0.0500312
0.0500259
0.050028
0.0500255
0.0500269
0.0500191
0.0500284
0.0499892
0.0501728
0.0600802
0.0500184
0.0500194
0.0500187
0.0500213
0.0500187
0.0500233
0.0500168
0.0500257
0.0500134
0.0500376
0.0499783
0.0500714
0.0612281
0.0531623
0.0500312
0.0500317
0.0500295
0.0500306
0.0500265
0.050029
0.0500237
0.0500284
0.0500207
0.0500275
0.0500336
0.0499964
0.0501661
0.0582586
0.0500257
0.0500265
0.0500249
0.0500268
0.0500228
0.0500267
0.0500193
0.0500264
0.0500148
0.0500257
0.0500096
0.0500064
0.0500322
0.0606178
0.0500323
0.0500329
0.0500306
0.0500321
0.0500272
0.0500311
0.0500222
0.0500322
0.0500139
0.0500413
0.0499956
0.0500758
0.049922
0.050243
0.0661393
0.0500305
0.0500312
0.050029
0.0500309
0.0500256
0.0500302
0.05002
0.050031
0.050011
0.0500373
0.0499937
0.0500497
0.0499677
0.050051
0.0619805
0.0500335
0.0500342
0.0500317
0.0500334
0.0500276
0.0500327
0.0500209
0.050035
0.0500093
0.0500479
0.0499876
0.0500835
0.0499212
0.0501668
0.0617502
0.0500332
0.0500339
0.0500313
0.0500333
0.0500272
0.0500327
0.0500203
0.0500348
0.0500082
0.0500468
0.0499824
0.0500773
0.049929
0.050138
0.0610955
0.0515855
0.05199
0.0533657
0.0490649
0.0490948
0.0489774
0.0491689
0.057609
0.0519755
0.0488548
0.0488572
0.0488941
0.0488476
0.048958
0.049092
0.0595797
0.0521247
0.0490025
0.049007
0.0489755
0.0490019
0.0489326
0.0489227
0.0489979
0.0490993
0.0574124
0.0542366
0.0489054
0.048903
0.0489174
0.0489208
0.0489356
0.0489597
0.0489046
0.0489159
0.0489601
0.0491871
0.0698821
0.0489717
0.0489716
0.0489628
0.0489672
0.048952
0.0489538
0.0489646
0.0489552
0.0489696
0.0488035
0.049188
0.0676182
0.0489319
0.0489335
0.0489358
0.048939
0.0489408
0.048947
0.0489402
0.0489461
0.0489568
0.0489699
0.0489607
0.0616871
0.0489594
0.0489599
0.0489564
0.0489577
0.0489525
0.0489547
0.0489525
0.0489539
0.0489463
0.0489557
0.0489164
0.0491002
0.0590077
0.0489441
0.0489452
0.0489447
0.0489472
0.0489449
0.0489501
0.0489434
0.0489527
0.0489403
0.0489653
0.0489053
0.0489989
0.0601555
0.0520897
0.0489564
0.048957
0.048955
0.0489562
0.0489525
0.0489552
0.0489503
0.0489551
0.0489478
0.0489546
0.0489607
0.0489238
0.0490932
0.0571862
0.0489506
0.0489515
0.0489501
0.0489522
0.0489486
0.0489527
0.0489457
0.0489532
0.0489417
0.0489531
0.0489368
0.0489339
0.0489593
0.0595456
0.0489568
0.0489575
0.0489555
0.0489571
0.0489526
0.0489568
0.0489483
0.0489589
0.0489403
0.0489686
0.0489221
0.0490034
0.0488491
0.0491708
0.065067
0.0489548
0.0489556
0.0489536
0.0489557
0.0489508
0.0489558
0.048946
0.0489577
0.0489373
0.0489645
0.048919
0.0489773
0.0488959
0.0489793
0.060908
0.0489577
0.0489583
0.048956
0.048958
0.0489526
0.0489581
0.0489467
0.0489615
0.0489352
0.0489734
0.0489048
0.0490086
0.0488592
0.0490968
0.0606776
0.0489573
0.048958
0.0489557
0.0489578
0.0489522
0.048958
0.048946
0.0489614
0.048934
0.048974
0.0489076
0.0490047
0.0488568
0.049067
0.060023
0.0505125
0.0509169
0.0522928
0.0479904
0.0480186
0.0479037
0.0480959
0.0565363
0.0509025
0.0477796
0.0477708
0.0478185
0.0477743
0.0478849
0.0480189
0.0585069
0.0510519
0.047931
0.0479368
0.0479036
0.0479293
0.0478599
0.04785
0.0479252
0.0480266
0.0563399
0.0531641
0.0478333
0.0478415
0.0478458
0.0478476
0.0478627
0.0478866
0.0478316
0.0478431
0.0478873
0.0481148
0.0688135
0.0478998
0.0479018
0.047891
0.0478945
0.0478792
0.0478808
0.0478919
0.0478824
0.047897
0.047731
0.0481148
0.0665461
0.0478581
0.04786
0.0478623
0.0478654
0.0478677
0.0478739
0.0478667
0.0478732
0.047884
0.0478972
0.0478879
0.0606147
0.0478859
0.0478863
0.0478831
0.0478843
0.0478793
0.0478813
0.0478793
0.0478811
0.0478734
0.0478829
0.0478436
0.0480276
0.0579353
0.0478699
0.0478711
0.0478709
0.0478734
0.0478715
0.0478767
0.0478704
0.0478799
0.0478673
0.0478928
0.0478323
0.0479263
0.0590828
0.0510169
0.0478817
0.0478823
0.0478806
0.0478818
0.0478786
0.0478813
0.047877
0.0478819
0.0478747
0.0478817
0.0478876
0.0478512
0.0480203
0.0561135
0.0478758
0.0478768
0.0478755
0.0478777
0.0478744
0.0478787
0.0478721
0.0478801
0.0478685
0.0478804
0.0478639
0.0478614
0.0478864
0.058473
0.0478815
0.0478822
0.0478804
0.0478821
0.0478781
0.0478824
0.0478744
0.0478855
0.0478666
0.047896
0.0478491
0.047931
0.0477758
0.0480978
0.0639943
0.0478794
0.0478802
0.0478784
0.0478806
0.0478762
0.0478814
0.0478721
0.0478844
0.0478638
0.0478929
0.0478474
0.0479055
0.0478204
0.0479057
0.059835
0.047882
0.0478826
0.0478806
0.0478827
0.0478778
0.0478834
0.0478725
0.0478881
0.0478617
0.0479037
0.047843
0.0479385
0.0477732
0.0480208
0.0596045
0.0478816
0.0478823
0.0478802
0.0478824
0.0478772
0.0478833
0.0478718
0.0478881
0.0478604
0.0479024
0.0478356
0.0479335
0.0477819
0.0479927
0.0589497
0.0494392
0.0498438
0.0512198
0.0469179
0.0469463
0.0468312
0.0470232
0.0554636
0.0498296
0.0467065
0.046699
0.0467454
0.0467012
0.0468119
0.0469459
0.0574342
0.0499793
0.0468583
0.0468633
0.0468309
0.0468566
0.0467871
0.0467773
0.0468525
0.046954
0.0552675
0.0520917
0.0467593
0.046767
0.0467721
0.0467742
0.0467898
0.0468135
0.0467586
0.0467702
0.0468145
0.0470422
0.0677407
0.0468267
0.0468286
0.0468181
0.0468216
0.0468062
0.0468079
0.0468193
0.0468097
0.0468242
0.0466583
0.0470418
0.0654736
0.0467839
0.046786
0.0467885
0.0467917
0.0467944
0.0468008
0.0467936
0.0468002
0.0468113
0.0468245
0.046815
0.0595422
0.0468123
0.0468128
0.0468096
0.0468109
0.046806
0.0468081
0.0468064
0.0468083
0.0468004
0.0468101
0.0467706
0.0469549
0.0568627
0.0467955
0.0467968
0.0467967
0.0467995
0.0467979
0.0468032
0.0467966
0.0468068
0.0467941
0.0468201
0.0467593
0.0468536
0.05801
0.0499441
0.0468073
0.046808
0.0468063
0.0468077
0.0468046
0.0468076
0.0468034
0.0468086
0.0468014
0.0468088
0.0468145
0.0467785
0.0469473
0.0550408
0.046801
0.0468021
0.0468009
0.0468034
0.0468003
0.0468051
0.0467985
0.046807
0.0467953
0.0468076
0.0467909
0.0467887
0.0468134
0.0574004
0.0468062
0.046807
0.0468054
0.0468073
0.0468036
0.0468084
0.0468002
0.0468121
0.0467929
0.0468232
0.0467757
0.0468583
0.0467028
0.0470251
0.0629214
0.046804
0.046805
0.0468032
0.0468058
0.0468016
0.0468074
0.0467979
0.0468113
0.0467901
0.0468203
0.0467738
0.046833
0.0467472
0.0468332
0.058762
0.0468062
0.0468071
0.0468052
0.0468076
0.0468029
0.0468091
0.0467981
0.0468147
0.0467878
0.0468309
0.0467687
0.0468651
0.0467015
0.0469485
0.0585315
0.0468061
0.0468068
0.0468048
0.0468073
0.0468024
0.0468091
0.0467974
0.0468148
0.0467865
0.0468297
0.0467619
0.0468611
0.0467088
0.0469203
0.0578767
0.048366
0.048771
0.0501472
0.045847
0.0458771
0.0457598
0.0459509
0.054391
0.0487568
0.0456346
0.045637
0.0456744
0.0456284
0.0457389
0.045873
0.0563614
0.0489063
0.0457843
0.0457884
0.0457577
0.0457837
0.0457143
0.0457045
0.0457797
0.0458811
0.0541946
0.0510187
0.0456843
0.0456832
0.0456967
0.0457005
0.0457167
0.0457404
0.0456855
0.0456972
0.0457415
0.045969
0.0666663
0.0457529
0.0457527
0.0457442
0.0457485
0.0457332
0.0457351
0.0457464
0.0457368
0.0457513
0.0455854
0.0459691
0.064401
0.0457094
0.0457113
0.0457142
0.0457179
0.0457209
0.0457276
0.0457203
0.0457272
0.0457384
0.0457516
0.0457421
0.0584695
0.0457387
0.0457394
0.045736
0.0457376
0.0457325
0.0457351
0.0457331
0.0457354
0.0457272
0.0457373
0.0456976
0.0458821
0.0557898
0.045721
0.0457226
0.0457223
0.0457256
0.0457239
0.0457297
0.0457232
0.0457336
0.0457208
0.0457473
0.0456862
0.0457808
0.0569371
0.0488711
0.0457329
0.0457338
0.045732
0.0457339
0.0457307
0.0457342
0.0457296
0.0457356
0.045728
0.045736
0.0457414
0.0457058
0.0458742
0.0539679
0.0457261
0.0457275
0.0457261
0.0457293
0.0457258
0.0457315
0.0457245
0.0457338
0.0457219
0.0457347
0.0457179
0.0457159
0.0457404
0.0563276
0.045731
0.0457321
0.0457303
0.045733
0.045729
0.0457346
0.0457261
0.0457389
0.0457191
0.0457502
0.0457021
0.0457855
0.0456298
0.0459527
0.0618488
0.0457285
0.0457299
0.045728
0.0457313
0.0457267
0.0457336
0.0457236
0.0457381
0.0457161
0.0457469
0.0456989
0.04576
0.0456757
0.0457614
0.0576893
0.0457305
0.0457318
0.0457296
0.0457329
0.0457278
0.0457352
0.0457236
0.0457414
0.0457134
0.0457558
0.0456864
0.0457899
0.0456384
0.0458786
0.057459
0.0457305
0.0457315
0.0457293
0.0457327
0.0457274
0.0457352
0.045723
0.0457416
0.0457122
0.0457561
0.045687
0.0457874
0.0456368
0.0458494
0.0568043
0.0472931
0.0476981
0.0490743
0.0447742
0.0448041
0.044687
0.0448781
0.0533183
0.0476841
0.0445614
0.0445629
0.0446011
0.0445553
0.0446659
0.0447999
0.0552884
0.0478332
0.0447114
0.0447162
0.044685
0.0447109
0.0446414
0.0446317
0.0447068
0.0448082
0.0531216
0.0499455
0.0446109
0.0446101
0.0446233
0.0446271
0.0446437
0.0446672
0.0446123
0.0446242
0.0446684
0.0448957
0.0655925
0.0446798
0.0446797
0.0446711
0.0446755
0.04466
0.0446622
0.0446734
0.0446639
0.0446782
0.0445125
0.0448965
0.0633282
0.0446353
0.0446373
0.0446403
0.0446443
0.0446472
0.0446543
0.0446469
0.044654
0.0446656
0.0446787
0.0446691
0.0573966
0.0446651
0.0446661
0.0446624
0.0446645
0.044659
0.0446622
0.0446597
0.0446627
0.044654
0.0446645
0.0446246
0.0448093
0.0547168
0.0446465
0.0446482
0.0446479
0.0446517
0.0446498
0.0446564
0.0446497
0.0446604
0.0446474
0.0446744
0.0446131
0.0447079
0.055864
0.047798
0.0446587
0.0446599
0.0446579
0.0446604
0.0446567
0.0446611
0.0446556
0.0446627
0.0446546
0.0446632
0.0446682
0.0446329
0.0448012
0.052895
0.0446511
0.0446527
0.0446511
0.044655
0.0446511
0.0446578
0.0446504
0.0446606
0.0446483
0.0446617
0.0446448
0.0446431
0.0446673
0.0552548
0.044656
0.0446576
0.0446556
0.0446589
0.0446545
0.0446612
0.044652
0.0446659
0.0446454
0.0446774
0.0446288
0.0447128
0.0445566
0.0448797
0.0607758
0.0446532
0.0446549
0.0446527
0.0446568
0.0446516
0.0446598
0.0446492
0.0446649
0.0446423
0.0446744
0.0446264
0.0446878
0.0446011
0.0446881
0.0566164
0.044655
0.0446566
0.0446543
0.0446583
0.0446528
0.0446615
0.0446491
0.0446681
0.0446395
0.0446844
0.0446199
0.0447196
0.0445566
0.0448036
0.0563861
0.044655
0.0446564
0.0446539
0.0446582
0.0446522
0.0446616
0.0446484
0.0446683
0.0446381
0.0446834
0.044614
0.0447155
0.0445628
0.0447756
0.0557313
0.0462201
0.0466249
0.048001
0.0436999
0.0437286
0.0436132
0.0438048
0.0522454
0.0466112
0.0434871
0.0434815
0.0435262
0.043482
0.0435928
0.0437269
0.0542154
0.0467604
0.0436396
0.0436444
0.0436125
0.0436381
0.0435684
0.0435588
0.0436338
0.0437353
0.0520487
0.0488727
0.0435382
0.0435445
0.0435513
0.0435538
0.0435706
0.043594
0.0435391
0.0435512
0.0435955
0.0438233
0.0645232
0.0436072
0.0436089
0.0435988
0.0436026
0.0435869
0.0435893
0.0436004
0.043591
0.0436052
0.0434397
0.0438229
0.0622553
0.0435616
0.043564
0.0435666
0.0435708
0.0435734
0.0435811
0.0435733
0.043581
0.0435926
0.0436057
0.043596
0.0563238
0.0435917
0.0435927
0.043589
0.0435914
0.0435856
0.0435892
0.0435862
0.0435899
0.0435808
0.0435916
0.0435515
0.0437364
0.053644
0.0435719
0.0435738
0.0435735
0.0435777
0.0435754
0.0435822
0.0435758
0.0435872
0.0435739
0.0436015
0.0435399
0.043635
0.054791
0.0467252
0.0435848
0.0435862
0.043584
0.0435869
0.0435829
0.0435879
0.0435826
0.04359
0.0435812
0.0435904
0.0435949
0.0435601
0.0437281
0.0518221
0.043576
0.0435779
0.0435762
0.0435806
0.0435763
0.043584
0.0435761
0.0435873
0.0435745
0.0435887
0.0435717
0.0435702
0.0435943
0.054182
0.0435815
0.0435832
0.043581
0.0435849
0.04358
0.0435877
0.0435778
0.0435929
0.0435716
0.0436044
0.0435553
0.0436399
0.0434835
0.0438069
0.0597029
0.0435779
0.0435798
0.0435774
0.0435823
0.0435766
0.043586
0.0435745
0.0435915
0.0435682
0.0436014
0.0435529
0.043615
0.043528
0.0436155
0.0555435
0.0435798
0.0435817
0.0435792
0.043584
0.043578
0.0435878
0.0435746
0.043595
0.0435654
0.0436113
0.043546
0.0436463
0.0434843
0.0437311
0.0553131
0.0435795
0.0435814
0.0435787
0.0435837
0.0435772
0.0435877
0.0435738
0.043595
0.043564
0.0436104
0.0435404
0.0436426
0.0434895
0.0437029
0.0546583
0.0451469
0.0455518
0.0469279
0.042627
0.0426556
0.0425402
0.0427318
0.0511724
0.0455382
0.042414
0.0424084
0.042453
0.0424089
0.0425197
0.0426537
0.0531424
0.0456876
0.0425667
0.0425713
0.0425395
0.0425651
0.0424953
0.0424858
0.0425608
0.0426625
0.0509759
0.0478001
0.0424646
0.0424711
0.0424779
0.0424804
0.0424975
0.0425208
0.0424659
0.0424781
0.0425224
0.0427501
0.0634487
0.042534
0.0425359
0.0425257
0.0425296
0.0425138
0.0425163
0.0425274
0.042518
0.0425322
0.0423668
0.04275
0.0611826
0.0424877
0.0424902
0.0424928
0.0424972
0.0424996
0.0425078
0.0424997
0.0425078
0.0425195
0.0425327
0.042523
0.055251
0.0425183
0.0425194
0.0425156
0.0425183
0.0425124
0.0425163
0.0425129
0.0425171
0.0425075
0.0425187
0.0424784
0.0426635
0.052571
0.0424975
0.0424995
0.042499
0.0425037
0.0425012
0.0425094
0.042502
0.0425138
0.0425002
0.0425285
0.0424667
0.0425621
0.053718
0.0456522
0.042511
0.0425125
0.0425101
0.0425133
0.0425091
0.0425146
0.0425078
0.0425168
0.0425078
0.0425174
0.0425217
0.0424872
0.042655
0.0507493
0.0425012
0.0425031
0.0425013
0.0425062
0.0425017
0.0425101
0.0425015
0.0425139
0.0425005
0.0425156
0.0424985
0.0424972
0.0425212
0.0531092
0.0425071
0.0425089
0.0425065
0.0425109
0.0425057
0.0425141
0.0425035
0.0425198
0.0424978
0.0425313
0.0424817
0.042567
0.0424105
0.0427342
0.0586302
0.0425028
0.0425049
0.0425023
0.0425078
0.0425018
0.0425121
0.0424998
0.0425182
0.042494
0.042528
0.0424785
0.0425419
0.042456
0.0425433
0.0544709
0.0425048
0.0425069
0.0425042
0.0425096
0.0425032
0.042514
0.0425001
0.0425218
0.0424913
0.0425368
0.0424668
0.0425723
0.0424175
0.0426601
0.0542405
0.0425041
0.0425063
0.0425034
0.0425092
0.0425023
0.0425138
0.0424991
0.0425218
0.0424898
0.0425371
0.0424663
0.0425693
0.0424171
0.0426311
0.0535856
0.044074
0.044479
0.0458552
0.0415552
0.0415848
0.0414679
0.041659
0.0500994
0.0444649
0.0413416
0.0413432
0.0413812
0.0413359
0.0414467
0.0415806
0.0520694
0.0446147
0.0414926
0.0414963
0.0414661
0.0414919
0.0414222
0.0414127
0.0414878
0.0415895
0.049903
0.0467273
0.0413907
0.041391
0.0414035
0.0414069
0.0414243
0.0414476
0.0413926
0.041405
0.0414494
0.0416772
0.0623762
0.0414603
0.041461
0.041452
0.0414563
0.0414406
0.0414431
0.0414544
0.041445
0.0414592
0.0412939
0.0416769
0.0601098
0.0414136
0.0414161
0.0414187
0.0414235
0.0414258
0.0414345
0.0414261
0.0414347
0.0414463
0.0414597
0.0414499
0.054178
0.0414449
0.0414462
0.0414423
0.0414451
0.0414389
0.041443
0.0414395
0.0414441
0.0414343
0.0414456
0.0414053
0.0415906
0.0514981
0.041423
0.0414251
0.0414245
0.0414295
0.0414268
0.0414348
0.0414278
0.0414406
0.0414265
0.0414555
0.0413934
0.0414891
0.0526449
0.0445792
0.0414371
0.0414386
0.0414362
0.0414397
0.0414351
0.0414412
0.0414352
0.0414438
0.0414345
0.0414442
0.0414485
0.0414142
0.0415819
0.0496762
0.0414264
0.0414284
0.0414266
0.0414319
0.0414272
0.0414363
0.0414274
0.0414405
0.0414266
0.0414425
0.0414253
0.0414243
0.0414482
0.0520362
0.0414326
0.0414345
0.041432
0.0414369
0.0414313
0.0414405
0.0414294
0.0414467
0.0414241
0.0414582
0.0414082
0.041494
0.0413374
0.0416612
0.0575573
0.0414277
0.04143
0.0414273
0.0414334
0.041427
0.0414382
0.0414253
0.0414449
0.04142
0.0414551
0.0414056
0.0414692
0.0413821
0.0414702
0.053398
0.04143
0.0414322
0.0414294
0.0414353
0.0414285
0.0414403
0.0414257
0.0414487
0.0414174
0.0414647
0.0413981
0.0415012
0.0413383
0.0415859
0.0531675
0.0414288
0.0414312
0.0414282
0.0414346
0.0414275
0.04144
0.0414245
0.0414485
0.0414159
0.0414643
0.0413939
0.0414964
0.0413433
0.0415576
0.0525126
0.0430013
0.0434063
0.0447824
0.0404812
0.04051
0.0403945
0.0405859
0.0490264
0.0433919
0.0402679
0.0402621
0.0403071
0.0402628
0.0403736
0.0405075
0.0509963
0.0435415
0.0404202
0.040426
0.0403934
0.0404188
0.0403491
0.0403397
0.0404147
0.0405164
0.0488299
0.0456541
0.0403179
0.0403236
0.0403309
0.0403336
0.040351
0.0403744
0.0403193
0.0403319
0.0403762
0.0406041
0.0613023
0.0403871
0.0403888
0.0403788
0.040383
0.0403673
0.0403697
0.0403813
0.0403719
0.0403861
0.0402208
0.0406039
0.0590368
0.0403398
0.0403422
0.0403448
0.0403499
0.0403519
0.0403612
0.0403524
0.0403615
0.0403729
0.0403867
0.0403767
0.053105
0.0403715
0.0403728
0.0403687
0.0403717
0.0403654
0.0403698
0.0403662
0.040371
0.040361
0.0403725
0.0403321
0.0405176
0.050425
0.0403485
0.0403507
0.04035
0.0403554
0.0403527
0.0403619
0.0403537
0.0403672
0.0403527
0.0403825
0.04032
0.0404161
0.0515717
0.043506
0.0403631
0.0403647
0.0403622
0.040366
0.0403613
0.0403677
0.0403608
0.0403704
0.0403611
0.0403709
0.0403753
0.0403412
0.0405088
0.0486032
0.0403516
0.0403538
0.0403519
0.0403577
0.0403529
0.0403625
0.040353
0.0403671
0.0403527
0.0403694
0.040352
0.0403512
0.0403751
0.0509632
0.0403581
0.0403602
0.0403577
0.0403629
0.0403571
0.0403669
0.0403554
0.0403734
0.0403504
0.040385
0.0403347
0.040421
0.0402643
0.0405883
0.0564843
0.0403528
0.0403552
0.0403525
0.040359
0.0403524
0.0403644
0.040351
0.0403714
0.040346
0.0403817
0.0403315
0.040396
0.0403098
0.0403976
0.052325
0.0403551
0.0403575
0.0403546
0.0403611
0.040354
0.0403666
0.0403514
0.0403753
0.0403434
0.0403905
0.04032
0.0404265
0.0402709
0.0405143
0.0520946
0.0403537
0.0403563
0.0403533
0.0403602
0.0403528
0.0403662
0.0403501
0.0403751
0.0403418
0.0403907
0.0403189
0.0404239
0.0402709
0.0404853
0.0514397
0.0419287
0.0423335
0.0437095
0.0394094
0.0394391
0.0393221
0.0395129
0.0479534
0.0423189
0.0391959
0.0391973
0.0392355
0.0391899
0.0393006
0.0394345
0.0499233
0.0424683
0.0393459
0.0393508
0.0393197
0.0393455
0.0392758
0.0392666
0.0393417
0.0394435
0.0477568
0.0445809
0.0392438
0.0392431
0.0392564
0.03926
0.0392777
0.0393013
0.039246
0.0392588
0.039303
0.0395309
0.0602283
0.0393131
0.0393135
0.0393047
0.0393095
0.039294
0.0392963
0.0393083
0.0392988
0.0393131
0.0391476
0.039531
0.0579637
0.0392658
0.039268
0.0392707
0.0392762
0.039278
0.0392879
0.0392786
0.0392882
0.0392995
0.0393137
0.0393035
0.0520318
0.0392978
0.0392991
0.039295
0.0392981
0.0392918
0.0392964
0.0392928
0.0392979
0.0392877
0.0392994
0.0392589
0.0394446
0.0493518
0.0392741
0.0392763
0.0392757
0.0392814
0.0392785
0.0392881
0.0392796
0.0392939
0.039279
0.0393096
0.0392466
0.0393431
0.0504985
0.0424328
0.0392892
0.0392908
0.0392883
0.0392923
0.0392875
0.0392942
0.0392874
0.0392971
0.0392878
0.0392975
0.0393021
0.0392682
0.0394357
0.0475301
0.039277
0.0392793
0.0392774
0.0392835
0.0392786
0.0392887
0.0392789
0.0392937
0.0392787
0.0392963
0.0392787
0.0392781
0.0393019
0.0498901
0.0392838
0.0392859
0.0392834
0.0392889
0.0392829
0.0392933
0.0392814
0.0393
0.0392767
0.0393118
0.0392613
0.0393479
0.0391912
0.0395151
0.0554112
0.039278
0.0392805
0.0392778
0.0392847
0.039278
0.0392905
0.0392767
0.0392979
0.0392721
0.0393087
0.0392587
0.039323
0.0392359
0.0393243
0.051252
0.0392805
0.0392829
0.0392801
0.0392869
0.0392796
0.0392928
0.0392772
0.0393019
0.0392697
0.0393182
0.0392509
0.0393548
0.0391923
0.03944
0.0510215
0.039279
0.0392816
0.0392787
0.039286
0.0392783
0.0392922
0.0392758
0.0393015
0.039268
0.0393178
0.0392474
0.0393497
0.0391969
0.0394117
0.0503665
0.040856
0.0412605
0.0426365
0.038336
0.0383657
0.0382488
0.0384395
0.0468803
0.0412459
0.038123
0.0381245
0.0381625
0.0381169
0.0382276
0.0383616
0.0488504
0.0413955
0.0382724
0.0382772
0.0382462
0.038272
0.0382026
0.0381935
0.0382688
0.0383708
0.046684
0.043508
0.0381706
0.0381696
0.0381831
0.0381867
0.0382044
0.0382283
0.0381727
0.0381858
0.0382298
0.0384583
0.0591565
0.0382394
0.0382398
0.0382311
0.0382359
0.0382208
0.0382227
0.0382354
0.0382257
0.0382402
0.0380746
0.0384577
0.0568906
0.0381921
0.0381943
0.0381969
0.0382026
0.038204
0.0382146
0.0382048
0.038215
0.038226
0.0382407
0.0382301
0.0509587
0.0382241
0.0382254
0.0382213
0.0382245
0.0382182
0.0382229
0.0382194
0.0382246
0.0382144
0.0382263
0.0381857
0.0383718
0.0482787
0.0381999
0.0382022
0.0382015
0.0382075
0.0382043
0.0382144
0.0382055
0.0382205
0.0382051
0.0382366
0.0381731
0.0382701
0.0494253
0.0413598
0.0382152
0.0382169
0.0382143
0.0382185
0.0382135
0.0382206
0.0382138
0.0382237
0.0382144
0.0382241
0.0382289
0.0381951
0.0383628
0.0464571
0.0382025
0.0382049
0.038203
0.0382093
0.0382043
0.0382149
0.0382047
0.0382201
0.0382047
0.0382232
0.0382052
0.038205
0.0382288
0.048817
0.0382094
0.0382116
0.038209
0.0382148
0.0382087
0.0382195
0.0382074
0.0382265
0.038203
0.0382385
0.0381878
0.0382746
0.0381181
0.038442
0.0543381
0.0382032
0.0382059
0.0382032
0.0382104
0.0382035
0.0382165
0.0382024
0.0382243
0.0381981
0.0382351
0.0381847
0.0382497
0.0381633
0.0382515
0.0501788
0.0382059
0.0382084
0.0382056
0.0382127
0.0382053
0.0382189
0.038203
0.0382283
0.0381958
0.038244
0.0381734
0.0382804
0.038124
0.0383679
0.0499483
0.0382044
0.038207
0.0382041
0.0382116
0.0382038
0.0382182
0.0382015
0.0382278
0.0381941
0.0382437
0.0381714
0.038278
0.0381245
0.0383392
0.0492933
0.0397828
0.0401873
0.0415632
0.0372609
0.0372896
0.0371745
0.0373656
0.0458071
0.0401732
0.0370491
0.0370428
0.0370882
0.0370438
0.0371547
0.0372891
0.0477778
0.0403232
0.0371993
0.0372049
0.0371727
0.0371984
0.0371293
0.0371205
0.0371962
0.0372986
0.0456115
0.0424356
0.0370983
0.0371041
0.0371111
0.0371136
0.0371312
0.0371554
0.0370994
0.0371129
0.0371567
0.0373858
0.0580844
0.0371661
0.0371679
0.0371578
0.0371624
0.0371475
0.0371491
0.0371626
0.0371527
0.0371674
0.0370018
0.0373842
0.0558175
0.0371188
0.0371211
0.0371234
0.0371291
0.0371301
0.0371414
0.0371308
0.0371418
0.0371523
0.0371679
0.0371566
0.0498858
0.0371504
0.0371516
0.0371474
0.0371507
0.0371445
0.0371492
0.0371458
0.0371514
0.037141
0.0371532
0.0371124
0.0372994
0.0472059
0.0371259
0.0371281
0.0371274
0.0371335
0.0371302
0.0371406
0.0371314
0.037147
0.037131
0.0371636
0.0370995
0.0371973
0.0483521
0.0402873
0.0371412
0.0371428
0.0371402
0.0371445
0.0371395
0.0371468
0.0371399
0.0371501
0.0371409
0.0371505
0.0371556
0.0371221
0.0372902
0.0453844
0.0371281
0.0371305
0.0371286
0.037135
0.0371299
0.0371409
0.0371305
0.0371465
0.0371307
0.0371499
0.0371317
0.0371318
0.0371558
0.0477439
0.0371351
0.0371373
0.0371347
0.0371407
0.0371345
0.0371456
0.0371334
0.0371529
0.0371293
0.037165
0.0371144
0.0372012
0.037045
0.0373685
0.0532648
0.0371287
0.0371313
0.0371286
0.037136
0.0371291
0.0371424
0.0371282
0.0371505
0.0371243
0.0371617
0.0371117
0.0371763
0.0370894
0.037178
0.0491056
0.0371314
0.037134
0.0371311
0.0371385
0.0371309
0.037145
0.0371289
0.0371546
0.0371222
0.0371715
0.0371038
0.0372072
0.0370465
0.0372935
0.0488748
0.0371298
0.0371324
0.0371294
0.0371372
0.0371294
0.0371442
0.0371273
0.037154
0.0371203
0.0371707
0.037101
0.0372021
0.0370502
0.0372656
0.04822
0.0387095
0.0391142
0.0404902
0.0361879
0.0362174
0.0361011
0.0362917
0.0447341
0.0391006
0.0359773
0.0359789
0.0360167
0.0359711
0.036082
0.036217
0.0467057
0.0392516
0.0361242
0.0361283
0.0360983
0.0361244
0.0360559
0.0360474
0.0361238
0.0362273
0.0445396
0.0413635
0.0360245
0.0360235
0.0360371
0.0360403
0.0360578
0.0360824
0.0360259
0.0360398
0.0360833
0.0363128
0.0570114
0.0360916
0.0360923
0.0360834
0.0360885
0.036074
0.0360759
0.0360897
0.0360798
0.0360949
0.0359292
0.0363112
0.0547455
0.0360451
0.0360474
0.0360497
0.0360555
0.0360561
0.0360679
0.0360564
0.0360684
0.036078
0.0360953
0.0360831
0.0488134
0.0360764
0.0360776
0.0360734
0.0360768
0.0360706
0.0360753
0.0360719
0.0360779
0.0360675
0.0360801
0.0360389
0.0362276
0.0461332
0.0360518
0.0360541
0.0360533
0.0360595
0.036056
0.0360667
0.036057
0.0360734
0.0360566
0.0360907
0.0360257
0.0361247
0.047279
0.0392152
0.0360671
0.0360687
0.036066
0.0360705
0.0360654
0.0360729
0.0360661
0.0360763
0.0360673
0.036077
0.0360824
0.0360491
0.0362181
0.044312
0.0360538
0.0360562
0.0360542
0.0360608
0.0360556
0.0360669
0.0360565
0.0360727
0.0360565
0.0360761
0.0360581
0.0360586
0.0360828
0.0466708
0.0360609
0.036063
0.0360603
0.0360665
0.0360603
0.0360716
0.0360592
0.0360791
0.0360555
0.0360914
0.0360409
0.0361275
0.0359722
0.0362948
0.0521918
0.0360542
0.0360568
0.036054
0.0360616
0.0360547
0.0360684
0.036054
0.0360766
0.0360503
0.0360878
0.0360381
0.0361026
0.0360165
0.0361049
0.0480325
0.0360569
0.0360595
0.0360565
0.0360641
0.0360566
0.036071
0.0360548
0.0360808
0.0360483
0.0360975
0.0360294
0.0361331
0.0359745
0.0362202
0.0478015
0.0360552
0.0360578
0.0360548
0.0360628
0.0360549
0.0360701
0.0360532
0.0360801
0.0360463
0.036096
0.0360234
0.0361322
0.035978
0.0361927
0.0471468
0.0376373
0.0380419
0.0394179
0.0351125
0.0351404
0.0350264
0.0352169
0.0436615
0.0380292
0.0349041
0.0348975
0.0349433
0.0348984
0.0350095
0.0351461
0.045635
0.0381818
0.0350497
0.0350541
0.0350237
0.0350496
0.0349824
0.0349743
0.035052
0.0351574
0.0434697
0.0402942
0.0349526
0.0349589
0.0349652
0.034967
0.0349841
0.035009
0.034952
0.0349666
0.0350098
0.0352273
0.0558877
0.0350177
0.0350197
0.0350095
0.0350143
0.0349998
0.0350011
0.0350166
0.0350068
0.0350227
0.0348569
0.0352494
0.0536743
0.0349718
0.0349743
0.0349762
0.0349819
0.0349818
0.0349934
0.0349815
0.0349947
0.0350026
0.0350231
0.0350094
0.0477416
0.0350022
0.0350034
0.0349993
0.0350027
0.0349966
0.0350016
0.0349996
0.0350046
0.0349936
0.0350069
0.034965
0.0351572
0.0450614
0.0349777
0.0349801
0.0349793
0.0349855
0.0349819
0.0349928
0.0349828
0.0349992
0.0349816
0.0350173
0.0349514
0.0350526
0.0462066
0.0381444
0.0349929
0.0349945
0.0349919
0.0349964
0.0349913
0.0349987
0.0349913
0.0350022
0.0349939
0.035003
0.035009
0.034976
0.0351474
0.0432407
0.0349793
0.0349818
0.0349798
0.0349866
0.0349814
0.0349926
0.0349815
0.0349986
0.0349824
0.0350026
0.0349842
0.0349853
0.03501