/*--------------------------------*- C++ -*----------------------------------*\
| =========                 |                                                 |
| \\      /  F ield         | OpenFOAM: The Open Source CFD Toolbox           |
|  \\    /   O peration     | Version:  2.1.1                                 |
|   \\  /    A nd           | Web:      www.OpenFOAM.org                      |
|    \\/     M anipulation  |                                                 |
\*---------------------------------------------------------------------------*/
FoamFile
{
    version     2.0;
    format      ascii;
    class       volScalarField;
    location    "0.001";
    object      p;
}
// * * * * * * * * * * * * * * * * * * * * * * * * * * * * * * * * * * * * * //

dimensions      [0 2 -2 0 0 0 0];

internalField   nonuniform List<scalar> 
10266
(
0.0555174
0.0529827
0.0527798
0.0529165
0.052826
0.0528864
0.0528529
0.0528788
0.0528667
0.0528793
0.0528757
0.0528823
0.0528818
0.0528848
0.0528849
0.0559332
0.0530253
0.0527734
0.052926
0.0528219
0.0528898
0.0528539
0.0528797
0.0528675
0.0528799
0.0528762
0.0528826
0.052882
0.0528849
0.052885
0.0573086
0.0528991
0.0528196
0.0528927
0.0528393
0.0528799
0.0528564
0.0528771
0.0528674
0.0528781
0.0528748
0.0528806
0.0528799
0.0528825
0.0528825
0.0530947
0.0527674
0.0529226
0.0528399
0.0528862
0.0528593
0.0528778
0.0528688
0.0528783
0.0528755
0.052881
0.0528805
0.0528832
0.0528832
0.0615497
0.05288
0.052852
0.0528568
0.0528716
0.0528612
0.0528734
0.0528669
0.0528747
0.0528719
0.0528763
0.0528753
0.0528772
0.052877
0.0559084
0.0530131
0.0528419
0.0528797
0.0528723
0.0528667
0.0528739
0.0528698
0.0528757
0.0528739
0.0528785
0.0528781
0.0528807
0.0528808
0.0635302
0.0529164
0.0528254
0.0528825
0.0528606
0.0528713
0.0528645
0.0528706
0.0528669
0.0528698
0.0528679
0.052869
0.0528683
0.0560587
0.0530182
0.0528354
0.0528729
0.0528645
0.052872
0.0528704
0.0528737
0.0528721
0.0528779
0.0528769
0.0528808
0.0528806
0.0613526
0.0528803
0.0528879
0.0528761
0.0528649
0.0528602
0.052867
0.0528605
0.0528604
0.0528571
0.052856
0.0528548
0.0581782
0.053108
0.0527193
0.052887
0.0528723
0.0528811
0.0528714
0.05287
0.0528851
0.0528806
0.0528909
0.0528898
0.073946
0.0531078
0.0528794
0.052835
0.0528241
0.0528794
0.0528543
0.0528413
0.0528389
0.0528299
0.0528281
0.0716007
0.0656613
0.0530171
0.0529147
0.0528401
0.0528498
0.05292
0.0528922
0.0529266
0.0529202
0.0629484
0.0641237
0.0530117
0.0528767
0.0527662
0.052813
0.0527692
0.0527742
0.0560249
0.0611207
0.0635057
0.0530891
0.0528954
0.0530133
0.0529831
0.0690083
0.0648635
0.0646204
0.0639704
0.0544313
0.051897
0.0516933
0.0518332
0.0517408
0.0518022
0.0517672
0.0517929
0.0517801
0.0517922
0.0517881
0.0517943
0.0517932
0.0517959
0.0517959
0.054855
0.0519442
0.051691
0.0518469
0.0517349
0.0518057
0.0517682
0.0517942
0.0517809
0.0517929
0.0517886
0.0517947
0.0517936
0.0517963
0.0517962
0.0562278
0.0518162
0.0517366
0.0518102
0.0517544
0.0517955
0.0517708
0.0517913
0.0517811
0.0517916
0.0517875
0.0517929
0.0517918
0.0517942
0.051794
0.0520113
0.0516835
0.0518396
0.0517546
0.0518025
0.0517738
0.0517924
0.0517826
0.0517919
0.0517885
0.0517936
0.0517928
0.0517952
0.0517952
0.0604665
0.0517961
0.0517683
0.0517727
0.051787
0.0517763
0.0517883
0.0517812
0.0517886
0.0517853
0.0517894
0.051788
0.0517898
0.0517895
0.0548247
0.0519287
0.0517581
0.0517949
0.0517882
0.0517817
0.0517889
0.0517843
0.0517899
0.0517878
0.0517921
0.0517914
0.0517939
0.0517938
0.0624463
0.0518323
0.0517407
0.0517984
0.0517756
0.0517868
0.0517793
0.0517852
0.0517812
0.0517838
0.0517817
0.0517825
0.0517818
0.0549744
0.051934
0.0517509
0.0517887
0.0517799
0.0517872
0.0517858
0.0517887
0.0517868
0.0517924
0.0517912
0.0517952
0.051795
0.0602685
0.0517958
0.0518035
0.0517916
0.0517803
0.0517753
0.051782
0.0517757
0.0517751
0.0517719
0.0517703
0.051769
0.0570939
0.0520241
0.0516351
0.0518026
0.051788
0.051797
0.0517873
0.0517853
0.051801
0.0517964
0.0518066
0.0518058
0.0728624
0.0520226
0.0517947
0.0517504
0.0517394
0.0517946
0.0517699
0.051756
0.0517532
0.0517418
0.0517419
0.0705166
0.0645771
0.0519329
0.0518305
0.0517561
0.0517658
0.0518362
0.0518085
0.0518405
0.0518365
0.0618643
0.0630395
0.0519271
0.0517921
0.0516816
0.0517285
0.0516888
0.0516895
0.0549404
0.0600366
0.0624219
0.0520052
0.051812
0.0519305
0.0519
0.0679246
0.0637797
0.0635365
0.0628864
0.0533427
0.0508109
0.0506054
0.0507494
0.0506566
0.0507187
0.0506813
0.0507073
0.0506936
0.0507055
0.0507007
0.0507065
0.0507052
0.0507076
0.0507075
0.0537718
0.0508572
0.0505965
0.0507633
0.0506589
0.0507238
0.0506822
0.0507089
0.0506946
0.0507061
0.0507013
0.050707
0.0507057
0.0507081
0.0507079
0.055144
0.0507314
0.0506496
0.0507266
0.0506712
0.0507119
0.050686
0.0507056
0.0506948
0.0507049
0.0507006
0.0507056
0.0507041
0.0507063
0.050706
0.050928
0.0505975
0.0507554
0.0506695
0.0507185
0.0506883
0.0507073
0.0506966
0.0507055
0.0507017
0.0507065
0.0507053
0.0507075
0.0507074
0.0593825
0.0507112
0.0506839
0.0506882
0.0507022
0.0506913
0.0507028
0.0506955
0.0507026
0.0506989
0.0507027
0.0507011
0.0507026
0.0507022
0.0537404
0.0508439
0.0506737
0.0507099
0.0507037
0.0506968
0.0507038
0.0506987
0.0507042
0.0507016
0.0507057
0.0507048
0.0507071
0.050707
0.0613619
0.0507478
0.0506557
0.0507141
0.0506902
0.0507022
0.0506939
0.0506998
0.0506955
0.0506978
0.0506956
0.0506962
0.0506954
0.0538897
0.0508495
0.0506661
0.0507041
0.0506952
0.0507024
0.0507011
0.0507035
0.0507014
0.0507071
0.0507058
0.0507098
0.0507095
0.0591841
0.0507109
0.0507189
0.0507069
0.0506956
0.05069
0.050697
0.0506908
0.0506895
0.0506865
0.0506844
0.0506831
0.0560092
0.0509388
0.0505506
0.050718
0.0507035
0.0507127
0.0507028
0.0507007
0.0507167
0.0507125
0.0507235
0.050722
0.0717738
0.0509386
0.05071
0.0506656
0.0506545
0.0507097
0.0506853
0.0506709
0.0506688
0.0506626
0.0506569
0.0694324
0.0634928
0.0508484
0.0507461
0.0506718
0.0506816
0.0507521
0.0507252
0.0507591
0.0507533
0.0607798
0.0619551
0.0508424
0.0507073
0.0505967
0.0506421
0.050596
0.0506034
0.0538558
0.0589523
0.0613378
0.050921
0.0507275
0.0508445
0.0508152
0.0668406
0.0626955
0.0624521
0.0618019
0.052261
0.0497277
0.0495201
0.0496643
0.0495692
0.0496339
0.0495951
0.0496218
0.0496073
0.0496188
0.0496137
0.049619
0.0496174
0.0496196
0.0496194
0.0526835
0.0497717
0.0495171
0.049677
0.0495676
0.0496381
0.049596
0.0496235
0.0496084
0.0496195
0.0496143
0.0496195
0.049618
0.0496202
0.0496199
0.0540568
0.0496465
0.049564
0.0496419
0.0495846
0.049627
0.0496003
0.04962
0.0496087
0.0496183
0.0496138
0.0496184
0.0496167
0.0496186
0.0496183
0.049842
0.049513
0.0496708
0.0495841
0.0496338
0.0496026
0.0496221
0.0496107
0.0496191
0.049615
0.0496194
0.049618
0.04962
0.0496198
0.0582973
0.0496259
0.0495991
0.0496031
0.0496172
0.0496061
0.0496171
0.0496096
0.0496166
0.0496126
0.0496161
0.0496143
0.0496157
0.0496151
0.0526554
0.0497587
0.049589
0.0496248
0.0496187
0.049612
0.0496185
0.0496133
0.0496183
0.0496155
0.0496193
0.0496183
0.0496204
0.0496203
0.0602769
0.049663
0.0495704
0.0496296
0.0496047
0.0496173
0.0496082
0.0496144
0.0496099
0.0496118
0.0496096
0.0496099
0.0496091
0.0528047
0.0497647
0.0495812
0.0496193
0.0496104
0.0496175
0.0496163
0.0496182
0.0496161
0.0496218
0.0496205
0.0496244
0.0496241
0.0580993
0.0496259
0.0496342
0.049622
0.0496107
0.0496047
0.0496121
0.0496057
0.0496038
0.0496007
0.0495982
0.0495968
0.0549244
0.0498538
0.049466
0.0496334
0.0496188
0.0496284
0.0496179
0.0496161
0.0496321
0.0496278
0.0496371
0.0496371
0.0706887
0.0498537
0.0496251
0.0495808
0.0495694
0.0496248
0.0496004
0.0495855
0.0495822
0.0495682
0.0495702
0.0683483
0.0624085
0.0497639
0.0496616
0.0495873
0.0495971
0.0496677
0.049641
0.0496733
0.0496688
0.0596953
0.0608704
0.0497575
0.0496224
0.0495117
0.0495582
0.049521
0.0495193
0.0527711
0.0578678
0.0602535
0.0498367
0.0496437
0.0497623
0.0497324
0.0657562
0.0616109
0.0613675
0.0607175
0.0511777
0.048642
0.0484319
0.0485815
0.0484851
0.0485494
0.0485089
0.0485362
0.0485211
0.048532
0.0485268
0.0485316
0.0485299
0.0485318
0.0485315
0.0515934
0.0486828
0.0484285
0.0485939
0.0484846
0.0485537
0.04851
0.048538
0.0485223
0.048533
0.0485276
0.0485322
0.0485305
0.0485324
0.0485321
0.0529687
0.0485607
0.0484762
0.0485572
0.048499
0.0485422
0.0485144
0.0485344
0.0485226
0.0485315
0.0485269
0.0485312
0.0485294
0.0485311
0.0485307
0.0487561
0.0484274
0.0485856
0.0484986
0.0485488
0.0485169
0.0485367
0.0485249
0.0485329
0.0485286
0.0485323
0.0485309
0.0485326
0.0485324
0.0572116
0.0485401
0.0485139
0.0485177
0.0485321
0.0485204
0.0485314
0.0485237
0.0485302
0.0485264
0.0485295
0.0485277
0.0485289
0.0485282
0.05157
0.0486733
0.048504
0.0485396
0.0485336
0.048527
0.0485333
0.048528
0.0485325
0.0485296
0.048533
0.0485319
0.0485338
0.0485336
0.0591916
0.048578
0.0484851
0.0485449
0.0485194
0.048532
0.0485224
0.0485288
0.0485242
0.0485256
0.0485236
0.0485236
0.0485228
0.0517197
0.0486799
0.0484962
0.0485343
0.0485254
0.0485325
0.0485314
0.0485329
0.048531
0.0485364
0.0485353
0.048539
0.0485387
0.0570146
0.0485409
0.0485493
0.0485371
0.0485256
0.0485195
0.0485267
0.0485204
0.0485181
0.0485151
0.0485126
0.0485109
0.0538397
0.0487688
0.0483813
0.0485487
0.0485339
0.0485438
0.0485329
0.0485315
0.0485475
0.0485441
0.0485551
0.0485533
0.0696043
0.048769
0.0485402
0.0484959
0.0484842
0.0485396
0.0485154
0.0485003
0.0484984
0.0484935
0.048486
0.067264
0.0613241
0.0486793
0.0485769
0.0485026
0.0485125
0.0485832
0.0485573
0.0485921
0.0485857
0.0586109
0.0597856
0.0486725
0.0485374
0.0484264
0.0484706
0.0484231
0.0484325
0.0516863
0.056783
0.0591689
0.0487517
0.048558
0.0486742
0.048646
0.0646714
0.0605258
0.0602823
0.0596322
0.0500921
0.0475587
0.0473461
0.0474962
0.0473977
0.0474645
0.0474228
0.0474506
0.0474346
0.0474456
0.0474399
0.0474442
0.0474424
0.0474439
0.0474439
0.0505044
0.0475957
0.0473453
0.0475061
0.047399
0.0474686
0.047424
0.0474526
0.0474358
0.0474467
0.0474409
0.0474451
0.0474433
0.0474448
0.0474446
0.051881
0.0474751
0.0473892
0.0474718
0.0474128
0.0474572
0.0474283
0.0474487
0.0474362
0.047445
0.0474401
0.0474438
0.047442
0.0474434
0.0474431
0.04767
0.0473417
0.0475
0.047413
0.0474635
0.0474311
0.0474513
0.0474389
0.0474469
0.0474424
0.0474458
0.0474443
0.0474457
0.0474454
0.0561259
0.0474542
0.0474285
0.047432
0.0474469
0.0474346
0.0474458
0.0474377
0.0474439
0.04744
0.0474426
0.0474408
0.0474418
0.0474412
0.0504845
0.0475879
0.0474188
0.0474543
0.0474484
0.0474416
0.047448
0.0474428
0.0474469
0.047444
0.047447
0.047446
0.0474476
0.0474475
0.0581064
0.0474929
0.0473997
0.0474599
0.0474337
0.0474467
0.0474365
0.0474431
0.0474382
0.0474394
0.0474372
0.047437
0.0474363
0.0506347
0.0475949
0.047411
0.0474493
0.0474403
0.0474476
0.0474467
0.0474478
0.0474459
0.0474511
0.0474501
0.0474535
0.0474534
0.0559298
0.0474557
0.0474643
0.047452
0.0474403
0.0474338
0.047441
0.0474349
0.0474322
0.0474292
0.0474265
0.0474249
0.052755
0.0476838
0.0472965
0.0474638
0.047449
0.047459
0.0474479
0.0474466
0.0474629
0.0474594
0.0474702
0.0474687
0.0685198
0.0476841
0.0474552
0.0474108
0.047399
0.0474544
0.0474303
0.0474146
0.0474126
0.047407
0.0474004
0.0661797
0.0602395
0.0475945
0.0474921
0.0474178
0.0474277
0.0474983
0.0474727
0.0475068
0.0475009
0.0575262
0.0587007
0.0475873
0.0474522
0.0473411
0.0473854
0.047339
0.0473469
0.0506014
0.0556982
0.0580841
0.0476669
0.0474734
0.0475898
0.0475614
0.0635865
0.0594408
0.0591972
0.058547
0.0490062
0.046474
0.0462596
0.0464112
0.0463122
0.0463798
0.0463365
0.0463651
0.0463479
0.0463592
0.0463528
0.046357
0.0463549
0.0463561
0.0463564
0.0494162
0.0465078
0.0462581
0.0464217
0.0463139
0.0463834
0.0463381
0.0463671
0.0463493
0.0463605
0.0463542
0.0463583
0.0463562
0.0463575
0.0463574
0.0507938
0.0463894
0.0463022
0.0463867
0.0463267
0.0463721
0.0463421
0.046363
0.0463495
0.0463586
0.0463532
0.0463568
0.0463547
0.0463558
0.0463556
0.0465837
0.0462561
0.0464144
0.0463275
0.0463781
0.0463453
0.0463659
0.0463528
0.0463611
0.0463561
0.0463595
0.0463578
0.046359
0.0463588
0.0550402
0.0463682
0.0463431
0.0463463
0.0463615
0.0463487
0.0463602
0.0463516
0.0463578
0.0463533
0.0463558
0.0463537
0.0463546
0.0463541
0.0493991
0.0465024
0.0463335
0.0463688
0.0463631
0.0463561
0.0463628
0.0463575
0.0463616
0.0463585
0.0463614
0.0463603
0.0463616
0.0463616
0.057021
0.0464077
0.0463142
0.0463747
0.0463478
0.0463608
0.0463505
0.0463572
0.0463521
0.0463531
0.0463507
0.0463504
0.0463497
0.0495493
0.0465097
0.0463258
0.046364
0.046355
0.0463625
0.0463611
0.0463627
0.0463607
0.0463658
0.0463648
0.0463682
0.0463682
0.0548446
0.0463705
0.0463792
0.046367
0.0463551
0.046349
0.0463557
0.0463492
0.0463457
0.0463429
0.04634
0.0463386
0.0516698
0.0465989
0.0462114
0.0463788
0.046364
0.0463743
0.046363
0.0463615
0.0463769
0.0463738
0.0463831
0.046383
0.067436
0.0465988
0.04637
0.0463256
0.0463138
0.046369
0.0463451
0.0463294
0.0463255
0.0463129
0.0463123
0.0650947
0.0591545
0.0465095
0.0464072
0.0463329
0.0463429
0.0464141
0.0463873
0.0464168
0.0464158
0.0564412
0.0576156
0.0465022
0.0463671
0.0462563
0.046302
0.0462655
0.046263
0.0495163
0.0546132
0.0569993
0.0465823
0.0463898
0.0465083
0.0464784
0.0625017
0.058356
0.0581127
0.0574624
0.0479207
0.0453895
0.0451742
0.0453275
0.045225
0.0452945
0.0452503
0.0452795
0.0452611
0.045273
0.0452656
0.0452701
0.0452674
0.0452688
0.0452688
0.048329
0.045422
0.0451745
0.0453338
0.0452275
0.0452978
0.045252
0.0452816
0.0452626
0.0452746
0.0452673
0.0452718
0.0452691
0.0452705
0.0452703
0.0497072
0.0453039
0.0452161
0.0453012
0.0452403
0.0452869
0.0452558
0.0452774
0.045263
0.0452725
0.0452661
0.04527
0.0452673
0.0452685
0.0452682
0.0454978
0.0451704
0.0453289
0.0452416
0.0452925
0.0452594
0.0452804
0.0452666
0.0452754
0.0452698
0.0452735
0.0452713
0.0452726
0.0452724
0.0539546
0.0452823
0.0452577
0.0452604
0.045276
0.0452627
0.0452746
0.0452654
0.0452717
0.0452664
0.0452692
0.0452665
0.0452674
0.0452668
0.0483137
0.0454169
0.0452481
0.0452833
0.0452779
0.0452706
0.0452777
0.0452718
0.0452763
0.0452727
0.0452759
0.0452744
0.045276
0.0452759
0.0559355
0.0453223
0.0452286
0.0452894
0.0452623
0.0452754
0.0452649
0.0452712
0.0452658
0.0452669
0.0452641
0.0452637
0.045263
0.0484638
0.0454244
0.0452405
0.0452788
0.0452697
0.0452776
0.0452758
0.0452778
0.0452754
0.0452808
0.0452796
0.0452829
0.0452829
0.0537593
0.0452853
0.045294
0.045282
0.0452697
0.0452629
0.0452699
0.0452636
0.0452607
0.0452571
0.0452539
0.0452525
0.0505846
0.0455139
0.0451262
0.0452936
0.0452789
0.0452892
0.0452781
0.0452766
0.0452934
0.0452894
0.0452995
0.0452988
0.0663509
0.0455133
0.0452847
0.0452404
0.0452284
0.0452836
0.0452597
0.0452431
0.0452408
0.0452338
0.0452297
0.0640093
0.0580694
0.0454245
0.0453222
0.045248
0.0452578
0.0453281
0.0453031
0.0453373
0.0453299
0.0553561
0.0565305
0.0454169
0.0452819
0.0451707
0.0452151
0.0451698
0.0451763
0.0484312
0.0535282
0.0559144
0.0454974
0.0453043
0.0454208
0.0453922
0.0614167
0.057271
0.0570276
0.0563771
0.0468358
0.0443041
0.0440883
0.044241
0.0441411
0.0442097
0.044164
0.044194
0.0441745
0.044187
0.0441783
0.0441835
0.04418
0.0441816
0.0441812
0.0472429
0.0443354
0.044086
0.0442498
0.0441434
0.0442125
0.044166
0.0441962
0.0441767
0.0441889
0.0441803
0.0441854
0.044182
0.0441837
0.0441832
0.0486213
0.0442182
0.0441297
0.0442161
0.0441544
0.0442018
0.0441696
0.0441919
0.0441762
0.0441866
0.0441789
0.0441834
0.0441799
0.0441814
0.0441808
0.0444119
0.0440847
0.0442429
0.0441562
0.0442071
0.0441737
0.044195
0.0441808
0.0441899
0.0441832
0.0441874
0.0441847
0.0441862
0.0441858
0.052869
0.0441965
0.0441721
0.0441747
0.0441906
0.0441767
0.0441889
0.0441782
0.0441857
0.0441794
0.0441827
0.0441794
0.0441805
0.0441797
0.0472282
0.0443313
0.0441627
0.0441977
0.0441926
0.0441848
0.0441924
0.0441857
0.0441909
0.0441868
0.0441904
0.0441885
0.0441903
0.0441901
0.05485
0.044237
0.0441431
0.0442042
0.0441768
0.0441898
0.0441789
0.0441853
0.0441791
0.0441805
0.0441773
0.0441772
0.0441763
0.0473787
0.0443392
0.0441551
0.0441936
0.0441843
0.0441926
0.0441901
0.0441927
0.04419
0.0441957
0.0441942
0.0441977
0.0441977
0.0526742
0.0441999
0.0442087
0.0441969
0.0441843
0.0441773
0.0441844
0.0441774
0.0441738
0.0441707
0.0441677
0.0441663
0.0494995
0.0444283
0.0440411
0.0442085
0.0441938
0.0442042
0.0441931
0.0441912
0.0442067
0.0442041
0.0442141
0.0442132
0.0652634
0.0444284
0.0441996
0.0441552
0.0441431
0.0441982
0.0441745
0.0441582
0.044155
0.0441465
0.0441412
0.0629244
0.0569845
0.0443395
0.0442372
0.0441631
0.044173
0.0442446
0.0442183
0.0442502
0.0442474
0.0542711
0.0554454
0.0443318
0.0441968
0.0440859
0.0441303
0.0440879
0.0440916
0.0473462
0.0524433
0.0548295
0.0444125
0.0442198
0.0443369
0.0443078
0.0603317
0.0561861
0.0559426
0.055292
0.0457506
0.0432196
0.0430036
0.0431578
0.0430531
0.0431239
0.0430776
0.0431084
0.0430875
0.0431009
0.0430912
0.043097
0.0430927
0.0430947
0.0430938
0.0461574
0.0432507
0.0430032
0.0431634
0.0430556
0.0431263
0.0430798
0.0431104
0.0430893
0.0431028
0.0430933
0.043099
0.043095
0.043097
0.0430962
0.0475359
0.0431331
0.0430444
0.0431307
0.0430681
0.0431162
0.0430832
0.0431063
0.0430896
0.0431005
0.0430918
0.0430968
0.0430926
0.0430944
0.0430935
0.0433263
0.0429993
0.0431577
0.0430703
0.0431214
0.0430877
0.0431095
0.043094
0.0431041
0.0430967
0.0431014
0.0430981
0.0430999
0.0430993
0.0517835
0.0431109
0.0430867
0.043089
0.0431051
0.0430907
0.0431035
0.0430926
0.0431
0.0430925
0.0430962
0.0430924
0.0430937
0.0430926
0.0461425
0.0432458
0.0430773
0.0431122
0.0431073
0.0430991
0.0431072
0.0431002
0.0431055
0.0431009
0.0431048
0.0431026
0.0431046
0.0431042
0.0537645
0.0431516
0.0430575
0.0431188
0.0430911
0.0431041
0.043093
0.0430995
0.0430926
0.0430942
0.0430905
0.0430906
0.0430895
0.0462935
0.043254
0.0430698
0.0431084
0.043099
0.0431075
0.0431048
0.0431075
0.0431046
0.0431107
0.0431089
0.0431126
0.0431124
0.051589
0.0431145
0.0431234
0.0431117
0.0430987
0.0430915
0.0430988
0.0430915
0.0430887
0.0430846
0.0430815
0.04308
0.0484144
0.0433429
0.0429561
0.0431233
0.0431087
0.0431191
0.043108
0.0431064
0.0431233
0.043119
0.0431281
0.0431279
0.0641784
0.0433434
0.0431145
0.0430699
0.0430577
0.0431129
0.0430891
0.0430718
0.0430687
0.0430575
0.0430549
0.0618397
0.0558996
0.0432545
0.0431521
0.0430781
0.0430878
0.043158
0.043133
0.0431638
0.0431622
0.0531861
0.0543603
0.0432466
0.0431116
0.0430003
0.0430456
0.0430069
0.0430068
0.0462611
0.0513583
0.0537446
0.0433277
0.0431354
0.0432532
0.0432235
0.0592469
0.0551013
0.0548577
0.0542071
0.0446654
0.0421348
0.0419184
0.042072
0.0419678
0.0420385
0.0419915
0.0420229
0.0420006
0.0420149
0.0420043
0.0420104
0.0420056
0.0420078
0.0420066
0.0450721
0.0421657
0.0419192
0.0420767
0.0419695
0.0420406
0.0419938
0.0420248
0.0420027
0.0420169
0.0420065
0.0420127
0.042008
0.0420103
0.0420092
0.0464506
0.0420479
0.0419589
0.0420452
0.0419821
0.0420307
0.041997
0.0420207
0.042003
0.0420145
0.0420049
0.0420103
0.0420056
0.0420076
0.0420064
0.0422408
0.0419137
0.042072
0.0419849
0.0420358
0.0420018
0.042024
0.0420077
0.0420183
0.0420103
0.0420153
0.0420116
0.0420136
0.0420128
0.050698
0.0420253
0.0420012
0.0420033
0.0420196
0.0420046
0.0420178
0.0420062
0.042014
0.0420058
0.0420098
0.0420055
0.0420069
0.0420057
0.0450569
0.0421602
0.0419919
0.0420267
0.0420218
0.0420134
0.0420218
0.0420144
0.04202
0.0420149
0.0420192
0.0420167
0.0420188
0.0420183
0.0526791
0.0420663
0.0419719
0.0420334
0.0420053
0.0420185
0.0420067
0.0420136
0.0420061
0.0420079
0.0420038
0.042004
0.0420028
0.0452081
0.0421686
0.0419844
0.0420231
0.0420136
0.0420223
0.0420193
0.0420222
0.0420191
0.0420253
0.0420234
0.0420274
0.0420271
0.0505037
0.0420292
0.0420381
0.0420264
0.0420133
0.0420057
0.0420133
0.0420052
0.042002
0.0419982
0.0419955
0.0419939
0.0473293
0.0422577
0.0418709
0.0420381
0.0420235
0.042034
0.0420227
0.0420209
0.0420364
0.0420338
0.0420437
0.0420437
0.0630945
0.0422581
0.0420292
0.0419846
0.0419723
0.0420275
0.0420039
0.0419868
0.0419838
0.0419754
0.0419737
0.0607548
0.0548145
0.0421694
0.0420671
0.041993
0.0420031
0.0420746
0.0420487
0.042082
0.0420739
0.0521009
0.0532749
0.0421613
0.0420265
0.0419155
0.0419596
0.0419156
0.04192
0.0451759
0.0502731
0.0526596
0.0422427
0.0420501
0.0421667
0.0421377
0.0581619
0.0540162
0.0537725
0.0531218
0.0435806
0.0410487
0.0408322
0.0409859
0.0408842
0.0409537
0.0409055
0.0409376
0.0409147
0.0409291
0.0409175
0.040924
0.0409186
0.0409211
0.0409196
0.0439869
0.0410787
0.0408279
0.040994
0.0408878
0.0409558
0.0409079
0.0409394
0.0409168
0.0409311
0.0409198
0.0409263
0.0409212
0.0409236
0.0409224
0.0453653
0.0409621
0.0408726
0.0409602
0.040897
0.0409454
0.0409109
0.0409351
0.040916
0.0409284
0.0409181
0.0409238
0.0409186
0.0409208
0.0409194
0.0411552
0.0408283
0.0409865
0.0408993
0.0409502
0.0409159
0.0409384
0.0409219
0.0409325
0.0409239
0.0409292
0.0409252
0.0409273
0.0409264
0.0496126
0.0409398
0.0409157
0.0409177
0.0409341
0.0409185
0.0409319
0.0409186
0.0409277
0.0409192
0.0409234
0.0409187
0.0409202
0.0409189
0.0439715
0.0410747
0.0409064
0.0409412
0.0409362
0.0409278
0.0409361
0.040928
0.0409342
0.0409289
0.0409334
0.0409307
0.040933
0.0409324
0.0515936
0.0409808
0.0408863
0.040948
0.0409194
0.0409329
0.0409204
0.0409277
0.0409196
0.0409217
0.0409173
0.0409175
0.0409161
0.0441226
0.0410832
0.040899
0.0409378
0.0409282
0.0409371
0.0409339
0.0409368
0.0409336
0.04094
0.0409379
0.040942
0.0409416
0.0494183
0.0409438
0.0409527
0.0409409
0.0409279
0.0409198
0.0409277
0.0409192
0.0409162
0.0409121
0.0409094
0.0409077
0.0462439
0.0411725
0.0407856
0.0409528
0.0409382
0.0409488
0.0409372
0.0409358
0.0409512
0.0409484
0.0409577
0.0409572
0.0620102
0.0411727
0.0409438
0.0408992
0.0408868
0.0409421
0.0409185
0.040901
0.0408976
0.0408865
0.0408825
0.0596695
0.0537292
0.0410842
0.0409819
0.0409078
0.0409179
0.0409894
0.0409633
0.0409937
0.0409932
0.0510156
0.0521896
0.0410761
0.0409413
0.0408302
0.040875
0.0408361
0.0408362
0.0440905
0.0491879
0.0515744
0.0411577
0.0409654
0.0410831
0.0410534
0.0570768
0.0529311
0.0526874
0.0520367
0.0424957
0.0399645
0.0397483
0.0399018
0.039796
0.0398674
0.0398194
0.0398519
0.0398275
0.0398431
0.0398308
0.0398377
0.0398319
0.0398345
0.0398329
0.0429018
0.039995
0.0397491
0.0399056
0.0397976
0.0398689
0.0398218
0.0398537
0.0398299
0.0398451
0.0398332
0.03984
0.0398344
0.039837
0.0398356
0.04428
0.0398772
0.0397882
0.0398742
0.0398105
0.0398594
0.0398248
0.0398493
0.0398298
0.0398424
0.0398315
0.0398374
0.0398318
0.0398341
0.0398326
0.0400697
0.0397429
0.0399008
0.0398137
0.0398644
0.0398301
0.0398526
0.039835
0.0398466
0.0398375
0.0398431
0.0398387
0.039841
0.0398399
0.0485272
0.0398543
0.0398302
0.0398321
0.0398486
0.0398324
0.0398463
0.0398335
0.0398419
0.0398328
0.039837
0.0398321
0.0398337
0.0398322
0.0428861
0.0399894
0.039821
0.0398558
0.0398505
0.0398423
0.0398507
0.0398426
0.0398486
0.039843
0.0398476
0.0398447
0.0398471
0.0398464
0.0505082
0.0398955
0.0398007
0.0398627
0.0398335
0.0398474
0.0398342
0.0398419
0.0398333
0.0398356
0.0398309
0.0398312
0.0398297
0.0430369
0.039998
0.0398136
0.0398524
0.0398428
0.0398517
0.0398482
0.0398514
0.0398481
0.0398546
0.0398524
0.0398565
0.039856
0.0483329
0.0398583
0.0398674
0.0398552
0.0398424
0.0398339
0.0398426
0.0398334
0.039831
0.0398262
0.0398236
0.0398218
0.0451583
0.0400874
0.0397001
0.0398675
0.0398529
0.0398637
0.0398516
0.0398511
0.0398673
0.0398635
0.039873
0.039873
0.0609253
0.0400872
0.0398583
0.0398138
0.0398013
0.0398568
0.039833
0.0398153
0.0398123
0.0398033
0.0398022
0.058584
0.0526438
0.0399991
0.0398967
0.0398226
0.0398325
0.0399028
0.0398783
0.0399111
0.0399037
0.0499302
0.0511042
0.0399908
0.0398559
0.0397445
0.0397889
0.0397461
0.0397495
0.0430051
0.0481027
0.0504891
0.0400723
0.03988
0.0399968
0.0399678
0.0559915
0.0518458
0.0516021
0.0509514
0.0414108
0.0388789
0.0386626
0.0388144
0.0387126
0.0387821
0.0387336
0.0387663
0.0387417
0.0387572
0.0387443
0.0387514
0.0387451
0.0387478
0.0387462
0.0418166
0.0389091
0.0386629
0.0388205
0.0387125
0.0387832
0.0387359
0.0387679
0.0387441
0.0387591
0.0387467
0.0387536
0.0387478
0.0387504
0.0387489
0.0431946
0.0387916
0.0387027
0.0387886
0.038725
0.0387736
0.0387388
0.0387635
0.0387436
0.0387564
0.0387449
0.038751
0.038745
0.0387475
0.0387459
0.038984
0.0386576
0.0388151
0.0387281
0.0387786
0.0387443
0.038767
0.0387499
0.0387607
0.0387512
0.0387569
0.0387523
0.0387547
0.0387535
0.0474418
0.038769
0.0387445
0.0387466
0.0387631
0.0387462
0.0387603
0.0387459
0.0387556
0.0387464
0.0387507
0.0387455
0.0387472
0.0387457
0.0418008
0.0389042
0.0387356
0.0387705
0.0387646
0.0387569
0.0387649
0.0387562
0.0387627
0.038757
0.0387617
0.0387587
0.0387612
0.0387604
0.049423
0.0388103
0.0387151
0.0387775
0.0387473
0.0387616
0.0387481
0.0387562
0.0387473
0.0387493
0.0387445
0.038745
0.0387434
0.0419518
0.038913
0.0387283
0.0387671
0.0387574
0.0387665
0.0387632
0.0387658
0.0387625
0.038769
0.0387668
0.038771
0.0387704
0.0472477
0.0387728
0.0387822
0.0387695
0.0387571
0.0387481
0.0387563
0.038747
0.0387449
0.0387401
0.0387376
0.0387358
0.0440731
0.0390019
0.0386148
0.0387824
0.0387677
0.0387787
0.0387661
0.0387656
0.0387809
0.0387778
0.0387873
0.0387864
0.0598392
0.0390021
0.0387728
0.0387284
0.0387157
0.0387714
0.0387475
0.0387294
0.0387265
0.038716
0.0387115
0.0574987
0.0515586
0.0389141
0.0388117
0.0387375
0.0387475
0.0388187
0.0387928
0.0388238
0.0388228
0.048845
0.0500189
0.0389058
0.0387707
0.0386597
0.0387042
0.0386641
0.0386653
0.04192
0.0470176
0.049404
0.038987
0.0387951
0.0389124
0.0388834
0.0549062
0.0507605
0.0505167
0.0498661
0.0403255
0.0377922
0.0375773
0.0377303
0.0376267
0.0376962
0.0376479
0.0376804
0.0376553
0.0376711
0.0376578
0.037665
0.0376584
0.0376612
0.0376596
0.0407312
0.0378217
0.037572
0.0377361
0.0376318
0.0376982
0.0376502
0.0376818
0.0376574
0.0376729
0.0376602
0.0376673
0.0376611
0.0376639
0.0376622
0.0421092
0.0377054
0.0376166
0.037703
0.0376403
0.0376879
0.0376529
0.0376774
0.037657
0.0376701
0.0376584
0.0376646
0.0376584
0.0376609
0.0376592
0.037898
0.0375723
0.0377292
0.0376426
0.0376927
0.0376585
0.0376808
0.0376625
0.0376745
0.0376649
0.0376707
0.0376659
0.0376685
0.0376671
0.0463565
0.0376838
0.0376592
0.0376607
0.0376773
0.0376599
0.0376746
0.037661
0.0376697
0.03766
0.0376645
0.0376591
0.0376608
0.0376592
0.0407157
0.0378193
0.0376502
0.0376851
0.0376784
0.0376705
0.0376792
0.0376711
0.037677
0.0376709
0.037676
0.0376727
0.0376753
0.0376744
0.0483381
0.0377253
0.0376294
0.0376923
0.0376613
0.0376763
0.0376621
0.0376698
0.0376603
0.0376641
0.0376586
0.0376591
0.0376573
0.0408673
0.0378284
0.0376429
0.0376819
0.0376719
0.0376811
0.0376772
0.0376802
0.0376768
0.0376836
0.0376812
0.0376854
0.0376846
0.046163
0.0376872
0.0376972
0.0376833
0.0376714
0.0376614
0.0376717
0.0376612
0.0376595
0.0376542
0.0376519
0.03765
0.0429883
0.0379167
0.0375297
0.0376974
0.0376824
0.0376936
0.0376808
0.0376805
0.0376965
0.0376925
0.0377021
0.0377019
0.0587545
0.0379167
0.0376871
0.0376429
0.03763
0.0376861
0.0376619
0.0376442
0.037641
0.0376313
0.0376309
0.0564136
0.0504735
0.0378296
0.0377268
0.0376524
0.0376621
0.0377319
0.0377073
0.0377396
0.0377328
0.04776
0.0489336
0.037821
0.0376855
0.037574
0.0376185
0.0375766
0.037579
0.0408354
0.0459327
0.0483188
0.0379016
0.0377097
0.0378263
0.0377973
0.0538209
0.0496753
0.0494312
0.0487806
0.0392402
0.0367072
0.0364931
0.0366427
0.0365412
0.0366098
0.0365621
0.0365944
0.0365691
0.0365849
0.0365712
0.0365786
0.0365718
0.0365747
0.0365729
0.039646
0.0367371
0.0364944
0.0366467
0.0365411
0.0366108
0.0365644
0.0365957
0.0365715
0.0365867
0.0365737
0.0365808
0.0365745
0.0365773
0.0365756
0.041024
0.03662
0.0365328
0.0366164
0.0365541
0.0366014
0.036567
0.0365914
0.0365712
0.036584
0.036572
0.0365782
0.0365718
0.0365744
0.0365725
0.0368118
0.0364873
0.0366428
0.0365571
0.0366065
0.0365727
0.036595
0.0365779
0.0365886
0.0365786
0.0365845
0.0365795
0.0365822
0.0365807
0.0452712
0.0365988
0.0365733
0.0365753
0.0365915
0.0365738
0.0365884
0.0365734
0.0365834
0.0365737
0.0365782
0.0365726
0.0365744
0.0365727
0.039631
0.0367349
0.0365648
0.0365997
0.0365927
0.0365857
0.0365932
0.0365844
0.0365909
0.0365849
0.0365901
0.0365866
0.0365893
0.0365882
0.0472537
0.0366406
0.0365435
0.0366071
0.036575
0.0365897
0.0365755
0.0365837
0.0365742
0.036578
0.0365721
0.036573
0.0365713
0.0397833
0.0367447
0.0365574
0.0365967
0.0365863
0.0365954
0.0365916
0.0365945
0.036591
0.0365978
0.0365953
0.0365995
0.0365987
0.0450787
0.0366017
0.0366125
0.0365965
0.0365856
0.0365746
0.0365858
0.0365749
0.0365734
0.0365681
0.0365659
0.0365638
0.0419041
0.0368319
0.0364447
0.0366127
0.0365972
0.0366085
0.036595
0.0365947
0.0366097
0.0366064
0.0366161
0.0366147
0.0576717
0.0368307
0.0366012
0.0365572
0.036544
0.0366006
0.0365761
0.0365579
0.0365553
0.0365448
0.0365403
0.0553287
0.0493887
0.0367458
0.0366421
0.0365674
0.036577
0.0366478
0.0366217
0.0366529
0.0366515
0.0466752
0.0478485
0.0367369
0.0366005
0.0364895
0.0365337
0.0364928
0.0364938
0.0397512
0.0448483
0.0472337
0.0368158
0.0366246
0.0367413
0.0367136
0.0527358
0.04859
0.0483458
0.0476954
0.038156
0.03562
0.0354081
0.0355563
0.0354568
0.0355235
0.0354765
0.0355081
0.0354829
0.0354987
0.0354848
0.0354922
0.0354851
0.0354881
0.0354861
0.0385616
0.0356485
0.0354021
0.0355615
0.0354622
0.0355253
0.0354788
0.0355094
0.0354852
0.0355003
0.0354873
0.0354945
0.0354879
0.0354908
0.035489
0.0399397
0.0355335
0.0354475
0.0355298
0.0354696
0.0355151
0.0354813
0.035505
0.0354844
0.0354976
0.0354856
0.0354919
0.0354853
0.0354879
0.035486
0.0357249
0.0354025
0.0355558
0.0354716
0.03552
0.0354869
0.0355084
0.0354902
0.0355022
0.0354923
0.0354983
0.0354931
0.0354958
0.0354942
0.0441866
0.0355141
0.0354876
0.0354892
0.0355053
0.0354876
0.0355026
0.0354885
0.0354976
0.0354875
0.035492
0.0354863
0.035488
0.0354862
0.0385474
0.0356517
0.0354793
0.0355141
0.0355063
0.0354997
0.0355077
0.0354995
0.0355056
0.0354991
0.035504
0.0355004
0.035503
0.0355018
0.0461706
0.0355565
0.0354572
0.0355213
0.0354865
0.035505
0.0354893
0.0354991
0.0354886
0.0354915
0.0354861
0.0354861
0.0354843
0.0387012
0.0356625
0.0354715
0.0355114
0.0354999
0.0355099
0.0355054
0.0355089
0.0355053
0.0355119
0.0355093
0.0355134
0.0355125
0.0439961