/*--------------------------------*- C++ -*----------------------------------*\
| =========                 |                                                 |
| \\      /  F ield         | OpenFOAM: The Open Source CFD Toolbox           |
|  \\    /   O peration     | Version:  2.1.1                                 |
|   \\  /    A nd           | Web:      www.OpenFOAM.org                      |
|    \\/     M anipulation  |                                                 |
\*---------------------------------------------------------------------------*/
FoamFile
{
    version     2.0;
    format      ascii;
    class       volVectorField;
    location    "0.001";
    object      U;
}
// * * * * * * * * * * * * * * * * * * * * * * * * * * * * * * * * * * * * * //

dimensions      [0 1 -1 0 0 0 0];

internalField   nonuniform List<vector> 
10266
(
(-0.00500451 1.2588e-06 0.0216765)
(-0.000252207 -5.493e-05 0.0910916)
(0.000176341 -4.30013e-06 0.112433)
(-0.000153393 -1.58907e-05 0.111822)
(5.95994e-05 -2.20273e-06 0.111697)
(-8.40941e-05 -4.80059e-06 0.111858)
(-5.28365e-06 -2.23186e-06 0.11197)
(-5.58218e-05 -7.07816e-07 0.112034)
(-2.84052e-05 -4.47037e-07 0.112089)
(-4.29374e-05 5.08935e-07 0.112134)
(-2.89153e-05 1.05812e-06 0.11218)
(-2.95631e-05 1.71644e-06 0.112223)
(-1.87104e-05 2.10057e-06 0.112266)
(-1.37042e-05 2.37339e-06 0.112305)
(-3.36226e-06 2.35377e-06 0.112331)
(-0.00470338 -0.000709249 0.0196847)
(-0.000253752 8.43789e-05 0.0914822)
(0.000221877 -6.1402e-05 0.112667)
(-0.000146806 4.90936e-05 0.11202)
(7.18615e-05 -2.02081e-05 0.111838)
(-8.26792e-05 1.70299e-05 0.111922)
(-6.87374e-07 -2.22514e-06 0.111992)
(-5.36771e-05 7.40088e-06 0.112035)
(-2.73498e-05 3.89465e-06 0.112081)
(-4.13406e-05 8.02807e-06 0.112123)
(-2.75645e-05 8.48346e-06 0.112167)
(-2.84075e-05 1.04454e-05 0.11221)
(-1.81146e-05 1.13164e-05 0.112251)
(-1.3339e-05 1.20933e-05 0.112285)
(-3.38401e-06 1.25455e-05 0.112305)
(-0.00127728 -0.00151199 0.0103412)
(-0.000161932 -0.00010947 0.0964449)
(8.99979e-05 -4.10904e-05 0.114909)
(-0.000104625 3.52238e-05 0.112569)
(2.44889e-05 -2.95788e-05 0.111993)
(-6.47512e-05 1.76644e-05 0.111998)
(-1.52627e-05 -4.71426e-06 0.112012)
(-4.96039e-05 1.12061e-05 0.112029)
(-2.77972e-05 6.82345e-06 0.112063)
(-3.8335e-05 1.34154e-05 0.112101)
(-2.64919e-05 1.34447e-05 0.112144)
(-2.67278e-05 1.58304e-05 0.112186)
(-1.70604e-05 1.65984e-05 0.112224)
(-1.24736e-05 1.73622e-05 0.112251)
(-3.13147e-06 1.7663e-05 0.112266)
(-0.000480934 0.000352172 0.0782065)
(0.00037299 -0.000144074 0.113483)
(-0.000132957 0.000114305 0.113557)
(4.89156e-05 -3.07649e-05 0.112119)
(-5.71681e-05 2.79591e-05 0.111984)
(-7.34989e-06 -1.21355e-06 0.111992)
(-4.20751e-05 1.74092e-05 0.111996)
(-2.51506e-05 1.25572e-05 0.112026)
(-3.47098e-05 1.98038e-05 0.112064)
(-2.51445e-05 2.07937e-05 0.112109)
(-2.52553e-05 2.4189e-05 0.112151)
(-1.65817e-05 2.60373e-05 0.112186)
(-1.22734e-05 2.74859e-05 0.11221)
(-3.0659e-06 2.82699e-05 0.112223)
(-0.00588868 0.00142253 0.02893)
(-0.000270525 -0.000193486 0.0911446)
(4.83325e-05 0.000161795 0.113408)
(-6.38144e-05 -6.46999e-05 0.112392)
(-3.71476e-05 2.65273e-05 0.11189)
(-2.57067e-05 -4.80482e-06 0.111905)
(-3.57631e-05 1.77399e-05 0.111926)
(-2.53658e-05 1.26611e-05 0.111965)
(-3.00903e-05 2.10659e-05 0.112012)
(-2.20949e-05 2.23126e-05 0.112063)
(-2.14831e-05 2.48996e-05 0.112108)
(-1.37599e-05 2.65776e-05 0.112144)
(-1.02405e-05 2.71126e-05 0.112167)
(-2.32356e-06 2.776e-05 0.112179)
(-0.00325678 0.000483928 0.0179972)
(-0.000332612 0.000399223 0.0754635)
(0.000263007 -9.93067e-05 0.112582)
(-4.0563e-05 5.57806e-05 0.113185)
(-1.58863e-06 -1.45604e-05 0.11181)
(-1.67714e-05 4.89708e-06 0.111765)
(-2.45176e-05 1.49238e-05 0.111825)
(-2.17761e-05 1.88885e-05 0.111887)
(-2.50615e-05 2.49106e-05 0.111951)
(-2.13096e-05 3.02889e-05 0.112012)
(-2.10018e-05 3.41905e-05 0.112063)
(-1.43725e-05 3.83673e-05 0.112101)
(-1.10943e-05 4.04768e-05 0.112123)
(-2.47447e-06 4.20845e-05 0.112134)
(-0.00884465 0.00184006 0.0306574)
(-0.000366784 -4.36521e-05 0.0901365)
(8.10932e-05 9.47821e-05 0.11301)
(-9.1072e-05 4.01812e-06 0.112052)
(1.30865e-06 9.51342e-06 0.111604)
(-2.17682e-05 1.59263e-05 0.111697)
(-1.53129e-05 1.57504e-05 0.111798)
(-1.86915e-05 2.21085e-05 0.111886)
(-1.28123e-05 2.66437e-05 0.111964)
(-1.34155e-05 2.53234e-05 0.112024)
(-7.48061e-06 2.8599e-05 0.112062)
(-6.5344e-06 2.66016e-05 0.11208)
(-7.52499e-07 2.7567e-05 0.112088)
(-0.0045401 -0.000446721 0.0192464)
(-0.000396416 0.000402624 0.0771298)
(0.000291284 -0.000136639 0.112767)
(-4.35795e-05 8.31129e-06 0.112789)
(-7.50277e-06 -4.20863e-05 0.111463)
(-1.91283e-05 2.02485e-05 0.111523)
(-1.55959e-05 2.24515e-05 0.111699)
(-1.4238e-05 2.47124e-05 0.111826)
(-1.81442e-05 3.67881e-05 0.111926)
(-1.90885e-05 4.17246e-05 0.111995)
(-1.30815e-05 4.93069e-05 0.112028)
(-1.21036e-05 5.2865e-05 0.112034)
(-1.60615e-06 5.5573e-05 0.112033)
(-0.00602878 0.00059528 0.0312412)
(-0.000344542 -0.000236781 0.0911779)
(4.83965e-05 0.000284105 0.112996)
(1.06077e-05 -1.00075e-05 0.111957)
(4.27775e-05 8.326e-06 0.111465)
(-1.00125e-05 -8.17225e-07 0.111605)
(-4.36928e-06 1.75082e-05 0.111763)
(4.10728e-06 2.69811e-05 0.111903)
(-9.73502e-07 8.80919e-06 0.111989)
(3.60051e-06 1.49687e-05 0.11201)
(-3.6254e-07 2.41274e-06 0.11199)
(2.03924e-06 3.33982e-06 0.111968)
(-0.00425437 -0.00185647 0.0148698)
(-0.000455896 0.000581516 0.0733098)
(0.000546902 -0.00054724 0.11307)
(-0.000283435 -4.76141e-05 0.112993)
(-7.24391e-06 4.47975e-05 0.112788)
(-3.76342e-06 9.21823e-05 0.112049)
(1.60202e-05 2.7258e-06 0.111807)
(-2.62223e-05 4.02054e-05 0.111887)
(-3.122e-05 5.62893e-05 0.111983)
(-1.92741e-05 6.75451e-05 0.111994)
(-2.33736e-05 8.02251e-05 0.111921)
(-4.32655e-07 8.48712e-05 0.111856)
(0.00234928 -0.0117076 0.016319)
(-0.000582018 0.000456789 0.073252)
(0.000237738 0.000344893 0.0911362)
(0.000137667 -0.000290961 0.112756)
(-9.53081e-05 -8.10769e-05 0.113003)
(-5.32637e-05 4.15184e-05 0.11318)
(6.19958e-05 6.36574e-05 0.112389)
(2.82999e-05 -4.795e-05 0.112114)
(2.69335e-05 -2.23473e-05 0.111991)
(1.56374e-05 -6.74319e-05 0.111834)
(6.26635e-06 -6.23994e-05 0.111696)
(0.00415821 -0.00864784 0.0187807)
(-0.00138489 -0.00061137 0.0267223)
(-0.000402289 0.000397434 0.0771185)
(4.42989e-05 0.000367372 0.0901258)
(0.000100583 -0.000261337 0.112578)
(-0.000161371 -4.84888e-05 0.113405)
(-0.000115218 0.0001357 0.113555)
(-3.33293e-05 0.000109294 0.112567)
(-6.02675e-05 0.000149701 0.112019)
(5.70193e-06 0.000154949 0.111818)
(-0.00215393 0.00140266 0.0295611)
(-0.00449415 0.000434023 0.0263878)
(-0.000398055 0.000332602 0.0754616)
(0.000191532 0.000270406 0.0911427)
(0.000146512 -0.000369143 0.11348)
(3.86386e-05 -8.86639e-05 0.114912)
(5.40477e-05 -0.000211953 0.112662)
(8.80451e-06 -0.000177736 0.112434)
(-0.00253792 0.000435364 0.0166917)
(-0.00268901 0.00157179 0.0314105)
(-0.00435115 -0.000174755 0.0265149)
(-0.000352958 0.000485497 0.0782074)
(0.000116281 0.000164042 0.0964455)
(-9.59626e-05 0.000264943 0.0914916)
(3.61989e-05 0.00025342 0.0910857)
(-0.00231367 -0.00660228 0.022024)
(0.00300404 -0.0067191 0.0247558)
(-0.00109786 0.00151883 0.0319145)
(0.000150002 0.00148243 0.0290982)
(-0.00500433 2.45524e-06 0.0216801)
(-0.000251407 -5.80965e-05 0.0910955)
(0.000175371 -2.96165e-06 0.11244)
(-0.000148107 -1.69389e-05 0.111827)
(6.42832e-05 -1.52615e-06 0.1117)
(-7.99175e-05 -5.54314e-06 0.11186)
(4.94647e-06 -2.14083e-06 0.111969)
(-4.78349e-05 -1.42283e-06 0.112031)
(-1.99973e-05 -8.2654e-07 0.112084)
(-3.52212e-05 -7.11202e-08 0.112128)
(-2.18239e-05 2.16984e-07 0.112172)
(-2.40171e-05 8.07907e-07 0.112214)
(-1.446e-05 1.23163e-06 0.112256)
(-1.12007e-05 1.46893e-06 0.112294)
(-2.71035e-06 1.64967e-06 0.11232)
(-0.00469959 -0.000711375 0.0196867)
(-0.000247114 8.15847e-05 0.0914924)
(0.000227239 -6.34133e-05 0.112673)
(-0.000142184 4.76284e-05 0.112027)
(7.71028e-05 -2.21243e-05 0.111839)
(-7.90064e-05 1.69429e-05 0.111925)
(9.69809e-06 -3.54414e-06 0.111992)
(-4.60313e-05 6.22624e-06 0.112032)
(-1.8791e-05 2.07057e-06 0.112077)
(-3.41826e-05 5.74684e-06 0.112118)
(-2.09586e-05 5.95179e-06 0.11216)
(-2.29405e-05 7.85467e-06 0.112202)
(-1.39037e-05 8.6194e-06 0.112241)
(-1.08101e-05 9.3664e-06 0.112275)
(-2.53543e-06 9.81068e-06 0.112294)
(-0.00127687 -0.00151019 0.0103418)
(-0.000159108 -0.000106344 0.096453)
(9.13434e-05 -4.32641e-05 0.114919)
(-9.90625e-05 3.55577e-05 0.112577)
(3.05176e-05 -3.19871e-05 0.111996)
(-5.99367e-05 1.6516e-05 0.112)
(-6.13739e-06 -7.07882e-06 0.112012)
(-4.21161e-05 8.80938e-06 0.112028)
(-2.04964e-05 3.68739e-06 0.112059)
(-3.13267e-05 9.86755e-06 0.112096)
(-1.97102e-05 9.76813e-06 0.112137)
(-2.13468e-05 1.18862e-05 0.112178)
(-1.29459e-05 1.24661e-05 0.112215)
(-1.0008e-05 1.30881e-05 0.112242)
(-2.25896e-06 1.33418e-05 0.112256)
(-0.000478477 0.000352602 0.0782132)
(0.000375164 -0.000144309 0.11349)
(-0.000128466 0.000114917 0.113564)
(5.26614e-05 -3.42919e-05 0.112122)
(-5.34058e-05 2.71869e-05 0.111988)
(1.77164e-06 -4.47458e-06 0.111992)
(-3.52001e-05 1.34422e-05 0.111995)
(-1.77459e-05 8.41877e-06 0.112023)
(-2.80931e-05 1.55069e-05 0.11206)
(-1.89352e-05 1.59205e-05 0.112103)
(-2.02441e-05 1.89687e-05 0.112144)
(-1.27006e-05 2.05273e-05 0.112178)
(-9.93367e-06 2.18253e-05 0.112202)
(-2.27525e-06 2.256e-05 0.112214)
(-0.00588826 0.00142254 0.0289306)
(-0.000269406 -0.000194615 0.0911495)
(5.07234e-05 0.000162175 0.113414)
(-5.91629e-05 -6.78462e-05 0.112396)
(-3.20787e-05 2.57645e-05 0.111894)
(-1.97806e-05 -7.84803e-06 0.111907)
(-2.91613e-05 1.3897e-05 0.111927)
(-1.84001e-05 8.00782e-06 0.111963)
(-2.38196e-05 1.58728e-05 0.112009)
(-1.62371e-05 1.64637e-05 0.112058)
(-1.67391e-05 1.86397e-05 0.112102)
(-1.00856e-05 1.98983e-05 0.112137)
(-7.9749e-06 2.01897e-05 0.112159)
(-1.50978e-06 2.06389e-05 0.112171)
(-0.00325691 0.000484198 0.0179977)
(-0.000332424 0.000399212 0.0754673)
(0.000265554 -9.89305e-05 0.112588)
(-3.78543e-05 5.54259e-05 0.113189)
(2.25713e-06 -1.71442e-05 0.111814)
(-1.07402e-05 2.07719e-06 0.111766)
(-1.92589e-05 1.11574e-05 0.111826)
(-1.57271e-05 1.40195e-05 0.111886)
(-1.96436e-05 1.94363e-05 0.111949)
(-1.61671e-05 2.39668e-05 0.112009)
(-1.68205e-05 2.74516e-05 0.112059)
(-1.11535e-05 3.11306e-05 0.112095)
(-9.19602e-06 3.30508e-05 0.112117)
(-1.83279e-06 3.44292e-05 0.112128)
(-0.00884453 0.00183981 0.0306582)
(-0.000365727 -4.35604e-05 0.0901408)
(8.2805e-05 9.29422e-05 0.113014)
(-8.84494e-05 2.70513e-06 0.112057)
(6.04782e-06 5.82007e-06 0.111608)
(-1.72275e-05 1.2201e-05 0.111699)
(-1.00547e-05 1.02876e-05 0.111798)
(-1.38743e-05 1.61326e-05 0.111885)
(-8.21654e-06 1.98848e-05 0.111961)
(-9.58337e-06 1.80762e-05 0.112021)
(-4.49182e-06 2.0732e-05 0.112058)
(-4.68716e-06 1.82285e-05 0.112075)
(-1.31722e-07 1.89495e-05 0.112083)
(-0.00454011 -0.000446611 0.0192468)
(-0.000396205 0.000403377 0.0771339)
(0.000292679 -0.000138013 0.112772)
(-4.15646e-05 7.27218e-06 0.112794)
(-3.88039e-06 -4.48843e-05 0.111466)
(-1.56472e-05 1.68189e-05 0.111525)
(-1.17967e-05 1.77659e-05 0.1117)
(-1.01169e-05 1.97788e-05 0.111826)
(-1.42671e-05 3.01868e-05 0.111926)
(-1.60106e-05 3.48085e-05 0.111994)
(-1.09862e-05 4.16076e-05 0.112026)
(-1.09551e-05 4.51396e-05 0.112031)
(-1.17785e-06 4.76325e-05 0.11203)
(-0.00602909 0.000595667 0.0312422)
(-0.000344414 -0.000237804 0.0911819)
(4.96439e-05 0.000282378 0.113001)
(1.29636e-05 -1.25128e-05 0.111961)
(4.54297e-05 4.67189e-06 0.111468)
(-6.25131e-06 -5.63505e-06 0.111608)
(-1.45712e-06 1.16073e-05 0.111765)
(6.72707e-06 2.06317e-05 0.111904)
(1.76861e-06 2.11561e-07 0.111989)
(5.77952e-06 5.62329e-06 0.112009)
(1.23817e-06 -7.7609e-06 0.111989)
(2.4343e-06 -7.12949e-06 0.111968)
(-0.00425447 -0.00185674 0.01487)
(-0.000456374 0.000581622 0.0733133)
(0.000547534 -0.000547868 0.113076)
(-0.000281731 -4.88503e-05 0.112997)
(-6.069e-06 4.28243e-05 0.112792)
(-2.21589e-06 8.96502e-05 0.112053)
(1.86139e-05 -1.29752e-06 0.11181)
(-2.50338e-05 3.52515e-05 0.11189)
(-3.1133e-05 5.21051e-05 0.111985)
(-1.87413e-05 6.35296e-05 0.111996)
(-2.33322e-05 7.62796e-05 0.111923)
(-2.59283e-07 8.10814e-05 0.111857)
(0.00234931 -0.0117081 0.0163199)
(-0.000582147 0.000457093 0.0732554)
(0.000238601 0.000344613 0.0911402)
(0.000139031 -0.000292302 0.112761)
(-9.3596e-05 -8.27846e-05 0.113007)
(-5.27923e-05 3.86733e-05 0.113183)
(6.44674e-05 5.91666e-05 0.112392)
(3.19911e-05 -5.20165e-05 0.112116)
(2.9315e-05 -2.76336e-05 0.111993)
(1.74213e-05 -7.20897e-05 0.111835)
(6.77139e-06 -6.74953e-05 0.111698)
(0.00415846 -0.0086482 0.0187816)
(-0.00138503 -0.000611585 0.026724)
(-0.00040273 0.00039738 0.0771225)
(4.4335e-05 0.000366593 0.0901297)
(0.000100383 -0.000263613 0.112583)
(-0.000161477 -5.04049e-05 0.11341)
(-0.000115929 0.000131517 0.11356)
(-3.33491e-05 0.000105354 0.112572)
(-6.00111e-05 0.000144258 0.112023)
(5.46245e-06 0.000150024 0.111823)
(-0.00215357 0.0014031 0.029562)
(-0.00449415 0.000434192 0.0263883)
(-0.000397951 0.00033271 0.0754651)
(0.000192158 0.000269784 0.0911464)
(0.000148158 -0.0003706 0.113485)
(3.97263e-05 -8.98378e-05 0.114916)
(5.47987e-05 -0.000213653 0.112666)
(9.87477e-06 -0.000179228 0.112438)
(-0.00253814 0.000435338 0.0166922)
(-0.00268912 0.0015717 0.0314116)
(-0.0043516 -0.000175337 0.0265155)
(-0.000354039 0.000484777 0.0782116)
(0.000116088 0.000162416 0.0964509)
(-9.60039e-05 0.000264378 0.0914967)
(3.60082e-05 0.000252305 0.0910909)
(-0.0023131 -0.00660239 0.0220243)
(0.00300414 -0.00671892 0.0247565)
(-0.00109767 0.00151927 0.0319155)
(0.000149841 0.00148296 0.0290991)
(-0.00500685 6.22994e-06 0.0216751)
(-0.000250976 -5.76643e-05 0.0910968)
(0.000175429 -2.28815e-06 0.112446)
(-0.00014423 -1.67947e-05 0.11183)
(6.78765e-05 -1.85351e-06 0.111702)
(-7.6638e-05 -5.569e-06 0.111861)
(1.27667e-05 -1.96468e-06 0.111969)
(-4.21916e-05 -1.86229e-06 0.112029)
(-1.28766e-05 -1.13047e-06 0.11208)
(-2.91939e-05 -4.56271e-07 0.112123)
(-1.61226e-05 -2.08635e-07 0.112165)
(-1.9521e-05 1.24357e-07 0.112207)
(-1.11779e-05 5.4936e-07 0.112248)
(-9.2472e-06 7.78946e-07 0.112286)
(-2.31389e-06 1.2582e-06 0.112311)
(-0.00469801 -0.000712237 0.0196898)
(-0.000245383 8.12555e-05 0.0915054)
(0.0002285 -6.42389e-05 0.112679)
(-0.000139163 4.72405e-05 0.112034)
(8.07158e-05 -2.37433e-05 0.111841)
(-7.51523e-05 1.71285e-05 0.111928)
(1.72221e-05 -5.14295e-06 0.111992)
(-4.08311e-05 5.92744e-06 0.11203)
(-1.15107e-05 8.95864e-07 0.112073)
(-2.82445e-05 4.20928e-06 0.112113)
(-1.57507e-05 3.92095e-06 0.112154)
(-1.87978e-05 5.65448e-06 0.112195)
(-1.06019e-05 6.42749e-06 0.112234)
(-8.77679e-06 7.15365e-06 0.112267)
(-1.87589e-06 7.62558e-06 0.112286)
(-0.00127664 -0.00150964 0.0103426)
(-0.000157861 -0.000106014 0.0964614)
(9.14859e-05 -4.48301e-05 0.114928)
(-9.59886e-05 3.55203e-05 0.112584)
(3.46398e-05 -3.35951e-05 0.112)
(-5.66029e-05 1.59111e-05 0.112003)
(1.18537e-06 -9.25727e-06 0.112013)
(-3.60424e-05 7.21743e-06 0.112027)
(-1.46155e-05 1.33271e-06 0.112057)
(-2.6156e-05 7.11142e-06 0.112093)
(-1.4672e-05 6.70468e-06 0.112132)
(-1.7012e-05 8.83915e-06 0.112172)
(-9.67599e-06 9.28844e-06 0.112207)
(-8.04781e-06 9.80729e-06 0.112234)
(-1.59406e-06 9.99675e-06 0.112248)
(-0.000477424 0.000352954 0.0782197)
(0.00037616 -0.000145542 0.113495)
(-0.000125427 0.000115338 0.11357)
(5.56667e-05 -3.7386e-05 0.112124)
(-5.00953e-05 2.70506e-05 0.111992)
(8.29629e-06 -6.93078e-06 0.111993)
(-3.01731e-05 1.06358e-05 0.111994)
(-1.16326e-05 4.85714e-06 0.112021)
(-2.2865e-05 1.18659e-05 0.112057)
(-1.40179e-05 1.21154e-05 0.112098)
(-1.62152e-05 1.48583e-05 0.112139)
(-9.63261e-06 1.61706e-05 0.112172)
(-8.06804e-06 1.73621e-05 0.112195)
(-1.65855e-06 1.80356e-05 0.112207)
(-0.00588819 0.00142252 0.0289314)
(-0.000268634 -0.000195391 0.0911539)
(5.20607e-05 0.000162394 0.11342)
(-5.56079e-05 -7.01509e-05 0.1124)
(-2.81188e-05 2.5184e-05 0.111897)
(-1.51325e-05 -1.09334e-05 0.111908)
(-2.4199e-05 1.11174e-05 0.111928)
(-1.33561e-05 4.37111e-06 0.111961)
(-1.88951e-05 1.1756e-05 0.112007)
(-1.1669e-05 1.19528e-05 0.112054)
(-1.29559e-05 1.37184e-05 0.112097)
(-7.16839e-06 1.46814e-05 0.112131)
(-6.18259e-06 1.47494e-05 0.112154)
(-9.03508e-07 1.50507e-05 0.112165)
(-0.00325704 0.000484347 0.0179983)
(-0.000332312 0.000399228 0.0754707)
(0.00026722 -9.88477e-05 0.112592)
(-3.5582e-05 5.53655e-05 0.113192)
(4.77169e-06 -1.95303e-05 0.111818)
(-6.42185e-06 2.8819e-07 0.111767)
(-1.47894e-05 7.57459e-06 0.111827)
(-1.09555e-05 1.02802e-05 0.111885)
(-1.52914e-05 1.5085e-05 0.111947)
(-1.20542e-05 1.89605e-05 0.112006)
(-1.34971e-05 2.21343e-05 0.112056)
(-8.60396e-06 2.5402e-05 0.112092)
(-7.70138e-06 2.71552e-05 0.112113)
(-1.36826e-06 2.84142e-05 0.112123)
(-0.00884441 0.00183978 0.030659)
(-0.000365112 -4.35573e-05 0.0901444)
(8.3921e-05 9.14589e-05 0.113018)
(-8.62089e-05 1.31566e-06 0.11206)
(9.49747e-06 3.12376e-06 0.11161)
(-1.42204e-05 9.24379e-06 0.1117)
(-5.77935e-06 5.70209e-06 0.111798)
(-1.02172e-05 1.14413e-05 0.111884)
(-4.61253e-06 1.45409e-05 0.11196)
(-6.51982e-06 1.20184e-05 0.112019)
(-2.15141e-06 1.41722e-05 0.112055)
(-3.18081e-06 1.10186e-05 0.112072)
(3.41665e-07 1.15567e-05 0.11208)
(-0.00454011 -0.000446606 0.0192475)
(-0.000396188 0.000403853 0.0771372)
(0.000293665 -0.000139345 0.112775)
(-4.02475e-05 6.37573e-06 0.112797)
(-1.13237e-06 -4.75339e-05 0.111469)
(-1.30738e-05 1.43434e-05 0.111527)
(-8.7569e-06 1.43745e-05 0.111701)
(-6.52328e-06 1.58285e-05 0.111827)
(-1.15162e-05 2.49265e-05 0.111926)
(-1.39003e-05 2.97727e-05 0.111993)
(-9.58689e-06 3.58709e-05 0.112024)
(-1.0292e-05 3.97663e-05 0.112029)
(-8.66614e-07 4.21446e-05 0.112028)
(-0.00602924 0.000595713 0.0312432)
(-0.000344304 -0.000238661 0.0911849)
(5.06243e-05 0.000281005 0.113004)
(1.48365e-05 -1.43527e-05 0.111964)
(4.76937e-05 1.81901e-06 0.111471)
(-3.44538e-06 -9.29376e-06 0.11161)
(3.38731e-07 6.97295e-06 0.111766)
(9.25164e-06 1.54768e-05 0.111904)
(4.36273e-06 -6.22635e-06 0.11199)
(7.77979e-06 -1.65486e-06 0.11201)
(2.98707e-06 -1.52395e-05 0.11199)
(2.83184e-06 -1.50473e-05 0.111968)
(-0.00425454 -0.00185675 0.0148706)
(-0.000456523 0.000581399 0.073316)
(0.000548026 -0.000548409 0.11308)
(-0.000280453 -4.98431e-05 0.113001)
(-5.32018e-06 4.12444e-05 0.112795)
(-9.64097e-07 8.74887e-05 0.112055)
(2.07154e-05 -4.301e-06 0.111813)
(-2.40802e-05 3.15622e-05 0.111892)
(-3.11404e-05 4.85028e-05 0.111988)
(-1.83713e-05 6.03414e-05 0.111998)
(-2.32953e-05 7.24315e-05 0.111925)
(-3.37478e-07 7.7943e-05 0.111859)
(0.00234902 -0.0117084 0.0163202)
(-0.000581914 0.000458095 0.0732581)
(0.000239411 0.000344922 0.0911431)
(0.000140149 -0.000293328 0.112765)
(-9.22349e-05 -8.39746e-05 0.11301)
(-5.25425e-05 3.63541e-05 0.113186)
(6.64022e-05 5.58329e-05 0.112395)
(3.5095e-05 -5.53269e-05 0.112118)
(3.10431e-05 -3.16728e-05 0.111995)
(1.91813e-05 -7.59084e-05 0.111836)
(7.82591e-06 -7.13636e-05 0.1117)
(0.00415865 -0.00864837 0.0187824)
(-0.00138496 -0.00061171 0.0267247)
(-0.000403273 0.000397442 0.0771254)
(4.43167e-05 0.000365828 0.0901328)
(0.000100312 -0.000265375 0.112587)
(-0.000161575 -5.18146e-05 0.113414)
(-0.000116647 0.000128356 0.113564)
(-3.34521e-05 0.000102362 0.112576)
(-5.97723e-05 0.000140492 0.112027)
(5.29323e-06 0.000145839 0.111827)
(-0.00215369 0.00140344 0.0295628)
(-0.0044943 0.000434352 0.0263889)
(-0.000397728 0.000332851 0.0754678)
(0.000192741 0.00026915 0.0911492)
(0.000149675 -0.000371753 0.113489)
(4.0818e-05 -9.06508e-05 0.11492)
(5.53424e-05 -0.000214836 0.112669)
(1.05318e-05 -0.000180444 0.112441)
(-0.00253818 0.000435337 0.0166928)
(-0.0026894 0.00157174 0.0314126)
(-0.00435186 -0.000175805 0.0265161)
(-0.000354748 0.000483906 0.0782151)
(0.000116035 0.000160917 0.0964551)
(-9.61387e-05 0.000263369 0.0915005)
(3.5729e-05 0.000251235 0.0910947)
(-0.00231319 -0.0066025 0.0220251)
(0.00300473 -0.00671869 0.0247572)
(-0.00109767 0.00151942 0.0319162)
(0.000149998 0.00148335 0.0290996)
(-0.00500627 3.54052e-06 0.0216747)
(-0.000249421 -5.50706e-05 0.0910984)
(0.000177236 -3.12356e-06 0.112451)
(-0.00014128 -1.56764e-05 0.111834)
(7.08019e-05 -2.25768e-06 0.111704)
(-7.41138e-05 -5.09445e-06 0.111863)
(1.86658e-05 -1.84075e-06 0.111969)
(-3.8491e-05 -2.0882e-06 0.112027)
(-6.69603e-06 -1.34152e-06 0.112077)
(-2.44551e-05 -7.74902e-07 0.11212)
(-1.16869e-05 -4.6983e-07 0.11216)
(-1.57603e-05 -1.63747e-07 0.112202)
(-8.4557e-06 8.4389e-08 0.112242)
(-7.59044e-06 2.6215e-07 0.11228)
(-1.84054e-06 8.21947e-07 0.112305)
(-0.00469985 -0.00071048 0.0196927)
(-0.000249011 8.31807e-05 0.091517)
(0.000226442 -6.41289e-05 0.112683)
(-0.000135943 4.78649e-05 0.11204)
(8.31282e-05 -2.50664e-05 0.111842)
(-7.18769e-05 1.75279e-05 0.11193)
(2.24772e-05 -6.50186e-06 0.111992)
(-3.74507e-05 5.81388e-06 0.112028)
(-5.34338e-06 -8.39735e-09 0.11207)
(-2.34557e-05 3.28413e-06 0.11211)
(-1.13166e-05 2.56024e-06 0.112149)
(-1.53419e-05 3.95306e-06 0.11219)
(-8.13857e-06 4.64689e-06 0.112228)
(-7.10924e-06 5.32513e-06 0.112261)
(-1.34536e-06 5.80473e-06 0.11228)
(-0.00127676 -0.00151066 0.0103433)
(-0.000158753 -0.00010789 0.0964688)
(9.10781e-05 -4.54203e-05 0.114937)
(-9.46062e-05 3.53275e-05 0.11259)
(3.73148e-05 -3.51271e-05 0.112003)
(-5.4083e-05 1.55913e-05 0.112005)
(6.55964e-06 -1.11958e-05 0.112014)
(-3.18807e-05 6.11929e-06 0.112026)
(-9.24796e-06 -4.7282e-07 0.112054)
(-2.18742e-05 5.10025e-06 0.11209)
(-1.10132e-05 4.41535e-06 0.112128)
(-1.36714e-05 6.35166e-06 0.112168)
(-7.08088e-06 6.84563e-06 0.112202)
(-6.4313e-06 7.27834e-06 0.112228)
(-1.11067e-06 7.41671e-06 0.112242)
(-0.000478262 0.000353742 0.0782253)
(0.000376087 -0.000147406 0.113499)
(-0.000123176 0.000115697 0.113575)
(5.78968e-05 -3.99804e-05 0.112126)
(-4.72083e-05 2.70119e-05 0.111994)
(1.27627e-05 -9.27559e-06 0.111994)
(-2.66555e-05 9.27433e-06 0.111994)
(-6.38004e-06 2.29917e-06 0.112018)
(-1.85613e-05 8.69014e-06 0.112055)
(-1.00603e-05 8.94931e-06 0.112095)
(-1.29123e-05 1.15685e-05 0.112135)
(-7.2106e-06 1.26549e-05 0.112168)
(-6.53831e-06 1.37049e-05 0.112191)
(-1.18037e-06 1.43819e-05 0.112202)
(-0.00588838 0.00142278 0.0289321)
(-0.000268647 -0.000195655 0.0911575)
(5.27425e-05 0.000162368 0.113424)
(-5.33534e-05 -7.18475e-05 0.112404)
(-2.53572e-05 2.46896e-05 0.111899)
(-1.1086e-05 -1.40921e-05 0.111909)
(-2.02546e-05 9.29665e-06 0.111928)
(-9.80298e-06 1.56385e-06 0.11196)
(-1.52241e-05 8.52843e-06 0.112005)
(-8.12472e-06 8.44337e-06 0.112051)
(-9.96534e-06 9.83175e-06 0.112094)
(-4.94077e-06 1.05134e-05 0.112127)
(-4.70415e-06 1.04165e-05 0.112149)
(-3.94629e-07 1.06762e-05 0.112161)
(-0.00325717 0.000484351 0.0179988)
(-0.000332664 0.000399274 0.0754734)
(0.00026814 -9.92013e-05 0.112596)
(-3.38011e-05 5.51058e-05 0.113195)
(6.18834e-06 -2.14981e-05 0.111821)
(-3.28386e-06 -8.14173e-07 0.111768)
(-1.09279e-05 4.13032e-06 0.111828)
(-7.11413e-06 7.26618e-06 0.111884)
(-1.16903e-05 1.15472e-05 0.111946)
(-8.75533e-06 1.49176e-05 0.112004)
(-1.08523e-05 1.7833e-05 0.112054)
(-6.6277e-06 2.07585e-05 0.112089)
(-6.37801e-06 2.24589e-05 0.11211)
(-9.21573e-07 2.36198e-05 0.11212)
(-0.00884432 0.0018399 0.0306596)
(-0.000365008 -4.37912e-05 0.0901471)
(8.45846e-05 9.01688e-05 0.113021)
(-8.42917e-05 -6.46574e-08 0.112063)
(1.207e-05 1.34385e-06 0.111612)
(-1.21865e-05 6.63444e-06 0.111701)
(-2.32086e-06 1.92128e-06 0.111799)
(-7.57547e-06 7.6603e-06 0.111884)
(-1.83015e-06 1.01544e-05 0.111958)
(-4.1268e-06 6.76193e-06 0.112017)
(-3.17059e-07 8.42689e-06 0.112052)
(-1.85233e-06 4.79976e-06 0.112069)
(7.76649e-07 5.11864e-06 0.112077)
(-0.00454009 -0.000446608 0.0192479)
(-0.00039629 0.000403975 0.0771395)
(0.00029445 -0.000140661 0.112778)
(-3.93167e-05 5.57659e-06 0.1128)
(7.70472e-07 -4.99843e-05 0.111471)
(-1.12191e-05 1.25577e-05 0.111528)
(-6.08533e-06 1.1942e-05 0.111701)
(-3.52676e-06 1.23192e-05 0.111827)
(-9.68878e-06 2.07961e-05 0.111925)
(-1.26129e-05 2.62627e-05 0.111992)
(-8.57176e-06 3.19661e-05 0.112022)
(-9.65993e-06 3.62521e-05 0.112027)
(-6.43332e-07 3.85488e-05 0.112026)
(-0.00602945 0.000595705 0.0312437)
(-0.000344005 -0.00023942 0.0911871)
(5.14535e-05 0.000279734 0.113007)
(1.64185e-05 -1.58426e-05 0.111966)
(4.97464e-05 -2.49651e-07 0.111473)
(-1.70536e-06 -1.20708e-05 0.111612)
(1.28521e-06 3.50974e-06 0.111766)
(1.20394e-05 1.12771e-05 0.111905)
(6.98714e-06 -1.09642e-05 0.111991)
(9.60583e-06 -7.04308e-06 0.11201)
(4.61769e-06 -2.06391e-05 0.11199)
(3.17759e-06 -2.10567e-05 0.111969)
(-0.00425466 -0.00185678 0.0148709)
(-0.000456395 0.000581042 0.0733179)
(0.000548377 -0.000548894 0.113083)
(-0.000279353 -5.07842e-05 0.113003)
(-4.76205e-06 3.98901e-05 0.112798)
(3.14118e-07 8.55604e-05 0.112058)
(2.22923e-05 -6.19311e-06 0.111816)
(-2.35243e-05 2.8878e-05 0.111893)
(-3.10352e-05 4.54431e-05 0.11199)
(-1.80079e-05 5.77014e-05 0.111999)
(-2.32718e-05 6.923e-05 0.111927)
(-6.69809e-07 7.50339e-05 0.111861)
(0.00234919 -0.0117086 0.0163202)
(-0.000581768 0.000458316 0.0732602)
(0.000240064 0.0003447 0.0911454)
(0.000141167 -0.000294406 0.112768)
(-9.10657e-05 -8.48438e-05 0.113012)
(-5.23554e-05 3.43098e-05 0.113188)
(6.80297e-05 5.3543e-05 0.112397)
(3.777e-05 -5.7954e-05 0.11212)
(3.27048e-05 -3.47376e-05 0.111996)
(2.05104e-05 -7.8974e-05 0.111837)
(8.45181e-06 -7.44354e-05 0.1117)
(0.00415872 -0.00864868 0.0187824)
(-0.00138469 -0.000611674 0.0267245)
(-0.000403495 0.000397063 0.0771275)
(4.44925e-05 0.000365051 0.090135)
(0.000100421 -0.000266737 0.11259)
(-0.000161646 -5.28614e-05 0.113417)
(-0.000117322 0.000125863 0.113567)
(-3.35004e-05 9.98506e-05 0.112579)
(-5.97387e-05 0.000136775 0.11203)
(4.9204e-06 0.000142256 0.11183)
(-0.00215373 0.00140366 0.0295632)
(-0.00449419 0.000434266 0.0263891)
(-0.000397496 0.000332952 0.0754699)
(0.000193244 0.000268713 0.0911514)
(0.000150878 -0.000372637 0.113492)
(4.12368e-05 -9.12182e-05 0.114923)
(5.5584e-05 -0.00021592 0.112672)
(1.12565e-05 -0.000181462 0.112443)
(-0.00253829 0.000435408 0.0166931)
(-0.00268941 0.00157159 0.0314132)
(-0.00435216 -0.000176163 0.0265167)
(-0.00035543 0.000483208 0.0782179)
(0.000115894 0.000159719 0.0964586)
(-9.64128e-05 0.000262756 0.0915036)
(3.53828e-05 0.000250085 0.0910977)
(-0.00231308 -0.00660256 0.0220255)
(0.00300505 -0.00671847 0.0247577)
(-0.00109767 0.00151962 0.0319169)
(0.000150098 0.00148355 0.0291)
(-0.00500561 1.38626e-06 0.0216784)
(-0.000248806 -5.12526e-05 0.0911011)
(0.000179145 -5.24041e-06 0.112454)
(-0.000139694 -1.40614e-05 0.111836)
(7.33748e-05 -3.08055e-06 0.111705)
(-7.20009e-05 -4.54171e-06 0.111864)
(2.30473e-05 -1.88823e-06 0.111969)
(-3.63122e-05 -2.18906e-06 0.112026)
(-1.31224e-06 -1.53582e-06 0.112075)
(-2.05315e-05 -1.02474e-06 0.112117)
(-8.28971e-06 -6.5132e-07 0.112156)
(-1.26098e-05 -3.30102e-07 0.112197)
(-6.14395e-06 -8.64723e-08 0.112237)
(-6.01298e-06 1.23775e-08 0.112275)
(-1.03346e-06 2.45953e-07 0.1123)
(-0.00470227 -0.000708996 0.0196939)
(-0.000254055 8.56953e-05 0.0915246)
(0.00022321 -6.33844e-05 0.112686)
(-0.000132747 4.91254e-05 0.112044)
(8.47527e-05 -2.59473e-05 0.111843)
(-6.86488e-05 1.78356e-05 0.111932)
(2.62585e-05 -7.60426e-06 0.111992)
(-3.53838e-05 5.74606e-06 0.112027)
(-3.23264e-08 -6.19028e-07 0.112068)
(-1.94744e-05 2.68058e-06 0.112106)
(-7.75583e-06 1.89156e-06 0.112145)
(-1.21742e-05 2.97024e-06 0.112186)
(-5.9414e-06 3.33454e-06 0.112224)
(-5.77797e-06 3.77982e-06 0.112256)
(-9.83488e-07 4.16372e-06 0.112275)
(-0.00127694 -0.00151184 0.0103438)
(-0.000159012 -0.000110428 0.096474)
(9.09338e-05 -4.4835e-05 0.114943)
(-9.47431e-05 3.52182e-05 0.112594)
(3.89238e-05 -3.59753e-05 0.112005)
(-5.21657e-05 1.54879e-05 0.112006)
(1.05572e-05 -1.2824e-05 0.112014)
(-2.92036e-05 5.32113e-06 0.112025)
(-4.40125e-06 -1.79086e-06 0.112053)
(-1.80095e-05 3.50799e-06 0.112088)
(-7.99519e-06 2.6907e-06 0.112125)
(-1.11646e-05 4.44404e-06 0.112165)
(-5.33145e-06 4.7574e-06 0.112199)
(-5.18263e-06 5.0601e-06 0.112225)
(-6.60097e-07 5.30841e-06 0.112238)
(-0.000479482 0.00035467 0.0782292)
(0.000375594 -0.000150059 0.113503)
(-0.000121478 0.000115874 0.113579)
(5.94617e-05 -4.21065e-05 0.112127)
(-4.47508e-05 2.70526e-05 0.111997)
(1.58404e-05 -1.11664e-05 0.111994)
(-2.42738e-05 8.57899e-06 0.111993)
(-1.86431e-06 6.42802e-07 0.112017)
(-1.49886e-05 6.32902e-06 0.112052)
(-6.81526e-06 6.11415e-06 0.112092)
(-1.01082e-05 8.50909e-06 0.112131)
(-5.32387e-06 9.54613e-06 0.112163)
(-5.22748e-06 1.05739e-05 0.112186)
(-7.13718e-07 1.13252e-05 0.112198)
(-0.0058886 0.00142319 0.0289325)
(-0.000268997 -0.000195796 0.0911601)
(5.30663e-05 0.00016207 0.113427)
(-5.19066e-05 -7.31566e-05 0.112406)
(-2.32087e-05 2.4148e-05 0.111901)
(-7.82975e-06 -1.68747e-05 0.111911)
(-1.7345e-05 7.94596e-06 0.111928)
(-6.6211e-06 -7.81294e-07 0.11196)
(-1.25405e-05 5.90416e-06 0.112005)
(-5.8053e-06 5.60749e-06 0.11205)
(-7.73217e-06 6.57411e-06 0.112092)
(-3.26284e-06 7.07832e-06 0.112124)
(-3.40347e-06 6.85909e-06 0.112146)
(1.26865e-07 7.08087e-06 0.112157)
(-0.00325714 0.000484354 0.0179991)
(-0.000333095 0.0003987 0.0754753)
(0.000268728 -9.98635e-05 0.112599)
(-3.24864e-05 5.44541e-05 0.113197)
(7.16735e-06 -2.29837e-05 0.111822)
(-1.01656e-06 -1.78708e-06 0.111769)
(-8.1154e-06 1.61999e-06 0.111828)
(-3.87535e-06 4.98684e-06 0.111883)
(-8.60908e-06 8.30956e-06 0.111945)
(-6.14329e-06 1.15837e-05 0.112002)
(-8.64688e-06 1.44152e-05 0.112051)
(-5.04058e-06 1.7075e-05 0.112085)
(-5.22732e-06 1.87882e-05 0.112106)
(-4.61857e-07 1.97359e-05 0.112117)
(-0.00884426 0.00184004 0.0306599)
(-0.000364566 -4.42788e-05 0.0901491)
(8.52343e-05 8.90702e-05 0.113023)
(-8.24756e-05 -1.19974e-06 0.112065)
(1.43026e-05 4.63356e-08 0.111614)
(-1.05805e-05 4.50618e-06 0.111703)
(1.34431e-07 -7.88798e-07 0.1118)
(-5.94647e-06 4.37849e-06 0.111884)
(3.10875e-07 6.23627e-06 0.111958)
(-2.24033e-06 2.37313e-06 0.112016)
(1.10982e-06 3.41808e-06 0.112051)
(-7.51144e-07 -4.25857e-07 0.112068)
(1.07796e-06 -4.55339e-07 0.112075)
(-0.00454018 -0.000446663 0.0192479)
(-0.000395805 0.000403395 0.0771411)
(0.000295327 -0.000141756 0.11278)
(-3.85432e-05 4.75886e-06 0.112802)
(2.03673e-06 -5.21623e-05 0.111472)
(-9.82457e-06 1.0903e-05 0.111529)