/*--------------------------------*- C++ -*----------------------------------*\
| =========                 |                                                 |
| \\      /  F ield         | OpenFOAM: The Open Source CFD Toolbox           |
|  \\    /   O peration     | Version:  2.1.1                                 |
|   \\  /    A nd           | Web:      www.OpenFOAM.org                      |
|    \\/     M anipulation  |                                                 |
\*---------------------------------------------------------------------------*/
FoamFile
{
    version     2.0;
    format      ascii;
    class       volVectorField;
    location    "0.0025";
    object      U;
}
// * * * * * * * * * * * * * * * * * * * * * * * * * * * * * * * * * * * * * //

dimensions      [0 1 -1 0 0 0 0];

internalField   nonuniform List<vector> 
10179
(
(-6.37127e-05 -6.37185e-05 0.085577)
(-0.000147241 -6.59968e-05 0.0856414)
(-0.000234372 -6.74527e-05 0.0857087)
(-0.000323388 -6.93717e-05 0.0857835)
(-0.000426872 -7.31437e-05 0.0858649)
(-0.000530491 -7.71814e-05 0.0859619)
(-0.000668055 -8.20783e-05 0.0860713)
(-0.00080406 -8.70584e-05 0.0862182)
(-0.00102829 -9.04137e-05 0.0863906)
(-0.00125282 -8.98942e-05 0.0866721)
(-0.00183968 -7.59916e-05 0.0870744)
(-0.0027601 -4.04305e-05 0.088407)
(-0.00549901 0.000108724 0.0905622)
(-0.00798795 0.000412035 0.0898702)
(-0.000258239 0.000559868 0.0858523)
(-6.59915e-05 -0.000147228 0.0856414)
(-0.000149223 -0.000149225 0.0857084)
(-0.000236063 -0.000152035 0.0857789)
(-0.000324627 -0.0001564 0.0858578)
(-0.000427959 -0.000161899 0.0859441)
(-0.00053152 -0.000170521 0.0860472)
(-0.000668989 -0.000181236 0.0861646)
(-0.000805707 -0.000196252 0.0863197)
(-0.00102786 -0.000215634 0.0865013)
(-0.00125218 -0.000248386 0.0867869)
(-0.00183096 -0.000281719 0.0871674)
(-0.00279553 -0.000309688 0.0883523)
(-0.00552317 2.52663e-05 0.0902806)
(-0.00642049 0.00144254 0.089393)
(0.000199604 0.00404254 0.0859349)
(-6.73707e-05 -0.000234328 0.0857087)
(-0.000151777 -0.000236081 0.085779)
(-0.000240488 -0.000240399 0.0858537)
(-0.00032864 -0.000246756 0.0859381)
(-0.000433187 -0.000256595 0.0860308)
(-0.000538618 -0.000270553 0.086142)
(-0.000677815 -0.000290359 0.0862696)
(-0.00081725 -0.000320702 0.0864381)
(-0.00104024 -0.000365152 0.0866394)
(-0.00126984 -0.000447201 0.0869492)
(-0.00183736 -0.000569565 0.0873719)
(-0.00282935 -0.00074898 0.0885406)
(-0.00507892 -0.000421778 0.0903796)
(-0.00294297 0.00311108 0.0893027)
(0.0134714 0.0162921 0.0719348)
(-6.92879e-05 -0.000323321 0.0857836)
(-0.000156198 -0.000324663 0.085858)
(-0.000246827 -0.000328763 0.085938)
(-0.000336546 -0.00033682 0.0860289)
(-0.000442697 -0.000348839 0.0861324)
(-0.000549384 -0.00036503 0.0862567)
(-0.000692374 -0.000387335 0.0864022)
(-0.000838247 -0.000420033 0.086598)
(-0.00106826 -0.00046663 0.0868522)
(-0.00133591 -0.000561424 0.0872622)
(-0.00193185 -0.000725214 0.0879686)
(-0.00305012 -0.00119038 0.089535)
(-0.00429093 -0.00177876 0.0911438)
(-0.00131387 -0.00280622 0.0875154)
(0.00828024 -0.00496009 0.0650676)
(-7.30605e-05 -0.000426772 0.0858651)
(-0.000161566 -0.000427927 0.0859444)
(-0.000256284 -0.000433171 0.0860311)
(-0.000348296 -0.000442604 0.0861327)
(-0.000460627 -0.000460409 0.0862469)
(-0.000570826 -0.000483587 0.086388)
(-0.000724688 -0.000518284 0.0865595)
(-0.000888567 -0.00056742 0.0867943)
(-0.00116113 -0.000645158 0.0871238)
(-0.00153789 -0.000785077 0.0876951)
(-0.00239602 -0.0011005 0.0888713)
(-0.00403383 -0.00183326 0.0907286)
(-0.00415731 -0.00319775 0.090263)
(-0.000510586 -0.00597759 0.0886414)
(0.00925791 -0.000471057 0.0493543)
(-7.71198e-05 -0.000530332 0.0859623)
(-0.000169984 -0.000531469 0.0860477)
(-0.000270199 -0.000538703 0.0861425)
(-0.000364441 -0.000549701 0.0862567)
(-0.00048349 -0.000570731 0.0863893)
(-0.000597145 -0.000597199 0.0865536)
(-0.000766509 -0.0006345 0.0867565)
(-0.000954929 -0.000679931 0.0870455)
(-0.00129723 -0.000744574 0.0874693)
(-0.00188309 -0.000878327 0.0882983)
(-0.00322228 -0.00126727 0.0900969)
(-0.00525483 -0.00238515 0.0917409)
(-0.00384455 -0.00399006 0.0884744)
(0.00561435 -0.0048387 0.0851563)
(-8.20287e-05 -0.000667856 0.086072)
(-0.000180506 -0.000668908 0.0861654)
(-0.000289929 -0.000677908 0.0862705)
(-0.000386718 -0.000692584 0.086403)
(-0.000517977 -0.000725134 0.0865602)
(-0.00063432 -0.000766852 0.0867568)
(-0.000830365 -0.000830723 0.0870018)
(-0.0010497 -0.000905117 0.087341)
(-0.0015149 -0.00102733 0.0878528)
(-0.00241711 -0.00128708 0.0890167)
(-0.0045678 -0.00197263 0.0909941)
(-0.0067191 -0.00353835 0.0906686)
(-0.00537324 -0.00511226 0.0867601)
(-0.000758 0.00824138 0.0654605)
(-8.70171e-05 -0.000803771 0.0862193)
(-0.000195176 -0.00080551 0.0863211)
(-0.000320201 -0.000817255 0.0864395)
(-0.000419339 -0.000838366 0.0865993)
(-0.000567003 -0.000888788 0.0867954)
(-0.000679525 -0.000955102 0.0870464)
(-0.000904489 -0.00104975 0.0873416)
(-0.00114544 -0.00114558 0.0877241)
(-0.0017545 -0.00126458 0.0884299)
(-0.00305212 -0.00153256 0.0900468)
(-0.00583539 -0.00238219 0.0918614)
(-0.00532179 -0.00380964 0.0886195)
(0.00160498 -0.00298866 0.0852342)
(-9.02788e-05 -0.00102793 0.0863924)
(-0.000214152 -0.0010277 0.0865034)
(-0.00036459 -0.0010403 0.0866415)
(-0.000465856 -0.00106848 0.0868541)
(-0.000644704 -0.00116142 0.0871257)
(-0.000744024 -0.00129759 0.0874706)
(-0.00102629 -0.00151532 0.0878536)
(-0.00126419 -0.0017554 0.0884295)
(-0.00209355 -0.00209492 0.0893484)
(-0.00388038 -0.00258911 0.090971)
(-0.00663126 -0.00399765 0.0905465)
(-0.00288712 -0.00707912 0.089964)
(0.00526366 0.00881085 0.0554999)
(-8.95792e-05 -0.00125233 0.086675)
(-0.000246225 -0.00125168 0.0867903)
(-0.000446608 -0.00126963 0.0869523)
(-0.000560419 -0.00133586 0.0872651)
(-0.000784632 -0.00153779 0.0876976)
(-0.000877497 -0.00188282 0.0883)
(-0.00128512 -0.0024165 0.0890178)
(-0.00152928 -0.00305088 0.0900459)
(-0.00258423 -0.00387929 0.0909687)
(-0.00526944 -0.00526834 0.0919362)
(-0.00545512 -0.00391126 0.0903943)
(0.003447 0.000447898 0.0776155)
(-7.49238e-05 -0.00183897 0.087079)
(-0.000279067 -0.00183111 0.0871723)
(-0.000568932 -0.00183776 0.0873764)
(-0.00072426 -0.00193217 0.0879721)
(-0.00110022 -0.00239628 0.0888736)
(-0.00126628 -0.00322225 0.0900981)
(-0.00196945 -0.00456689 0.0909947)
(-0.00237675 -0.00583265 0.0918599)
(-0.00399266 -0.00662271 0.0905471)
(-0.00392436 -0.00544488 0.0903735)
(-0.000678542 -0.000679253 0.0842056)
(-3.94598e-05 -0.00275936 0.0884132)
(-0.000306084 -0.0027949 0.0883594)
(-0.000748935 -0.00282939 0.0885466)
(-0.00118877 -0.00305047 0.0895381)
(-0.00183333 -0.0040342 0.0907297)
(-0.00238406 -0.00525434 0.0917414)
(-0.00353479 -0.00671693 0.090669)
(-0.00380425 -0.00531696 0.0886199)
(-0.00707412 -0.00288009 0.0899664)
(0.000436953 0.00345828 0.0776136)
(0.00011031 -0.00549989 0.0905647)
(2.6476e-05 -0.00552267 0.0902861)
(-0.000420279 -0.00507948 0.0903837)
(-0.00177757 -0.00429124 0.0911451)
(-0.00319823 -0.0041583 0.0902634)
(-0.00398893 -0.00384532 0.0884743)
(-0.0051094 -0.00537259 0.0867601)
(-0.00298374 0.00160658 0.0852345)
(0.00881209 0.00526505 0.0554999)
(0.000413739 -0.00798901 0.0898695)
(0.00144251 -0.00641497 0.0893932)
(0.0031148 -0.00294346 0.0893092)
(-0.00280802 -0.00131382 0.0875145)
(-0.00597977 -0.000510521 0.0886414)
(-0.00483766 0.00561349 0.085156)
(0.00824514 -0.000758982 0.0654616)
(0.000581679 -0.000205858 0.0858695)
(0.00403927 0.000206803 0.0859288)
(0.0162883 0.0134754 0.0719349)
(-0.0049609 0.00827963 0.0650681)
(-0.00047191 0.00925827 0.0493545)
(-0.000216582 -0.000216674 0.133361)
(-0.000676718 -0.000218194 0.133368)
(-0.00113217 -0.000222878 0.133368)
(-0.00165384 -0.000228943 0.133396)
(-0.00218293 -0.00023863 0.133399)
(-0.00287439 -0.00025056 0.133478)
(-0.00356558 -0.000262586 0.13349)
(-0.00468737 -0.000283765 0.13371)
(-0.00571522 -0.000282767 0.133738)
(-0.00799677 -0.000303853 0.134329)
(-0.0095464 -0.000178645 0.134712)
(-0.0158677 7.19719e-06 0.139714)
(-0.022778 0.000508064 0.144323)
(-0.0517604 0.000733191 0.121853)
(-0.026233 0.00182219 0.11475)
(-0.00021841 -0.00067692 0.133368)
(-0.000684399 -0.000684213 0.133375)
(-0.00114419 -0.000703684 0.133376)
(-0.00167022 -0.000727911 0.133406)
(-0.00220534 -0.000771864 0.133412)
(-0.00289997 -0.000830353 0.133496)
(-0.00360226 -0.000914007 0.133523)
(-0.00471468 -0.00105115 0.133762)
(-0.00575322 -0.00119476 0.13385)
(-0.00793513 -0.00148702 0.134486)
(-0.00930316 -0.00149868 0.135115)
(-0.014934 -0.001419 0.140731)
(-0.0203355 0.000384738 0.146356)
(-0.0468119 0.000874522 0.123352)
(-0.0241258 0.0054779 0.11421)
(-0.000222867 -0.00113243 0.133368)
(-0.00070348 -0.00114371 0.133376)
(-0.00117614 -0.00117588 0.133375)
(-0.00172264 -0.00121264 0.133407)
(-0.00228669 -0.00128143 0.13341)
(-0.00301862 -0.00136229 0.133493)
(-0.00379145 -0.00148015 0.133521)
(-0.00497803 -0.001661 0.133754)
(-0.0061789 -0.00183314 0.133853)
(-0.00837542 -0.00222665 0.134435)
(-0.00973301 -0.00201753 0.135478)
(-0.014324 -0.00227415 0.142926)
(-0.0188116 0.000632323 0.152485)
(-0.0384412 -0.00448524 0.13636)
(-0.00691129 -0.00144821 0.0907951)
(-0.000228935 -0.00165424 0.133396)
(-0.000727611 -0.00166964 0.133406)
(-0.00121311 -0.00172229 0.133407)
(-0.00177618 -0.0017755 0.133445)
(-0.00235611 -0.00189247 0.133455)
(-0.00309999 -0.00201702 0.133551)
(-0.00390361 -0.00223632 0.133613)
(-0.00507101 -0.00254715 0.133879)
(-0.00633319 -0.00301162 0.134069)
(-0.00814776 -0.00384719 0.134794)
(-0.00960878 -0.00472648 0.13754)
(-0.0131813 -0.00753669 0.147292)
(-0.0216061 -0.0110978 0.152396)
(-0.0245992 -0.0214497 0.116552)
(-0.0323633 -0.00457992 0.0790805)
(-0.000238319 -0.00218338 0.133398)
(-0.000770952 -0.00220419 0.133412)
(-0.0012816 -0.00228568 0.133409)
(-0.00189281 -0.00235445 0.133454)
(-0.00252818 -0.0025262 0.133459)
(-0.00336118 -0.00266943 0.13356)
(-0.00431754 -0.00296347 0.13362)
(-0.00574111 -0.00328905 0.133871)
(-0.00744492 -0.00386208 0.134023)
(-0.00992373 -0.00468072 0.135294)
(-0.0133578 -0.00607464 0.140667)
(-0.0225918 -0.00892964 0.148675)
(-0.0341363 -0.0132521 0.122292)
(-0.038476 -0.0405711 0.135981)
(0.00475343 -0.00122989 0.0334294)
(-0.00024984 -0.00287507 0.133477)
(-0.000828623 -0.00289845 0.133497)
(-0.00136223 -0.00301751 0.133492)
(-0.00201674 -0.00309807 0.133551)
(-0.00267114 -0.00335921 0.133559)
(-0.00353458 -0.00353286 0.133693)
(-0.00451379 -0.00398181 0.133788)
(-0.00593792 -0.00436689 0.13406)
(-0.00760626 -0.0052074 0.134436)
(-0.0100501 -0.00631713 0.137266)
(-0.0150677 -0.0090995 0.146282)
(-0.0292248 -0.016009 0.149811)
(-0.0366482 -0.0258116 0.105942)
(-0.0206063 -0.00338499 0.110751)
(-0.000261379 -0.00356651 0.133488)
(-0.000911347 -0.00359981 0.133523)
(-0.00147994 -0.00378966 0.133519)
(-0.00223576 -0.00390027 0.133612)
(-0.00296557 -0.00431398 0.133619)
(-0.00398377 -0.0045098 0.133787)
(-0.00514361 -0.00513791 0.133867)
(-0.00692683 -0.00537633 0.134176)
(-0.00924349 -0.00616746 0.135216)
(-0.0135339 -0.00683981 0.140778)
(-0.0243064 -0.00857938 0.14867)
(-0.0387589 -0.0121306 0.123)
(-0.0441365 -0.0386145 0.136872)
(-0.0034829 0.00560478 0.0576837)
(-0.000281695 -0.00468861 0.133708)
(-0.00104674 -0.00471147 0.133762)
(-0.00166005 -0.00497593 0.133752)
(-0.00254505 -0.00506714 0.133877)
(-0.00329007 -0.00573729 0.133869)
(-0.00436639 -0.00593412 0.134058)
(-0.00538018 -0.00692124 0.134176)
(-0.00690316 -0.00690239 0.134815)
(-0.00902454 -0.00837558 0.137524)
(-0.0140771 -0.00891322 0.146042)
(-0.0297747 -0.0151922 0.151204)
(-0.0406876 -0.0233689 0.113406)
(-0.0285134 -0.00481539 0.114493)
(-0.000279816 -0.00571731 0.133735)
(-0.00118881 -0.00574813 0.133849)
(-0.00183222 -0.0061762 0.133848)
(-0.00300923 -0.00632753 0.134065)
(-0.00386425 -0.00743934 0.134018)
(-0.00520757 -0.00759933 0.13443)
(-0.00617587 -0.00923332 0.135212)
(-0.00838093 -0.00901593 0.137514)
(-0.0110979 -0.0110812 0.142791)
(-0.0208072 -0.00898959 0.149307)
(-0.036199 -0.00833618 0.124076)
(-0.0432117 -0.0391085 0.143617)
(-0.00116049 0.000950312 0.044753)
(-0.000299405 -0.00799865 0.134323)
(-0.00147786 -0.00792849 0.134484)
(-0.00222495 -0.00837166 0.134426)
(-0.00384198 -0.00814124 0.134788)
(-0.00468047 -0.0099178 0.135287)
(-0.00631257 -0.0100433 0.137258)
(-0.00684301 -0.0135235 0.140771)
(-0.00890814 -0.0140705 0.146022)
(-0.00899449 -0.0207902 0.149278)
(-0.0165448 -0.0166534 0.154829)
(-0.0248247 -0.0199866 0.118891)
(-0.0143682 -0.0042965 0.0979221)
(-0.000171864 -0.00955103 0.134705)
(-0.001487 -0.00929127 0.135109)
(-0.00201629 -0.00972963 0.135464)
(-0.00472165 -0.00959982 0.137531)
(-0.00607641 -0.0133508 0.140657)
(-0.00909572 -0.0150568 0.146269)
(-0.00859033 -0.0242909 0.148652)
(-0.0151936 -0.0297457 0.151159)
(-0.00843206 -0.036146 0.124008)
(-0.0199294 -0.0247562 0.118825)
(-0.0339882 -0.0340072 0.122259)
(1.87211e-05 -0.0158679 0.139698)
(-0.00140152 -0.014918 0.140719)
(-0.00227554 -0.0143152 0.142903)
(-0.00752726 -0.0131717 0.147281)
(-0.00892634 -0.0225853 0.148666)
(-0.0159952 -0.029214 0.149802)
(-0.0121165 -0.0387472 0.122987)
(-0.023338 -0.0406603 0.113384)
(-0.0391008 -0.0431947 0.143599)
(-0.00430737 -0.0143149 0.0978717)
(0.000531133 -0.0227875 0.144308)
(0.000403074 -0.0202912 0.146336)
(0.000628066 -0.0188046 0.152458)
(-0.0110948 -0.0215954 0.152383)
(-0.0132528 -0.0341315 0.122283)
(-0.0258052 -0.0366463 0.105937)
(-0.0386113 -0.0441376 0.136868)
(-0.00481103 -0.028511 0.114486)
(0.000953613 -0.00116224 0.0447526)
(0.00075716 -0.0517522 0.121824)
(0.000892232 -0.0467582 0.123344)
(-0.00450704 -0.038406 0.136326)
(-0.0214358 -0.0245903 0.116544)
(-0.0405716 -0.0384756 0.135978)
(-0.00338337 -0.0206059 0.110751)
(0.0056057 -0.00348316 0.0576835)
(0.00180627 -0.0262122 0.114753)
(0.00550361 -0.0241113 0.114199)
(-0.00145402 -0.00689498 0.0907777)
(-0.00458028 -0.0323649 0.0790809)
(-0.00123156 0.00475403 0.0334305)
(-0.000308417 -0.00030854 0.0910629)
(-0.000956973 -0.000309693 0.0911135)
(-0.00158935 -0.000314262 0.0912201)
(-0.00228589 -0.000319087 0.0914002)
(-0.00295627 -0.00032658 0.0916705)
(-0.00376739 -0.000335178 0.0920797)
(-0.00446317 -0.000339821 0.0926783)
(-0.00549975 -0.000354698 0.0935793)
(-0.00605664 -0.000334524 0.0949521)
(-0.00759087 -0.000364498 0.0968553)
(-0.00720142 -0.000242049 0.100253)
(-0.00922116 -0.000299888 0.108175)
(-0.00347871 0.000361873 0.12462)
(-0.0114069 7.40783e-05 0.0931848)
(0.00271958 0.000665793 0.0331475)
(-0.000309968 -0.000957244 0.0911135)
(-0.000962665 -0.000962486 0.091167)
(-0.00159881 -0.000980165 0.0912783)
(-0.00229829 -0.00100096 0.0914655)
(-0.00297236 -0.00103781 0.091746)
(-0.0037806 -0.00108596 0.0921688)
(-0.00448269 -0.00114647 0.09279)
(-0.00549375 -0.00126021 0.0937245)
(-0.0060666 -0.00134468 0.0951525)
(-0.00749814 -0.00164604 0.0970682)
(-0.00715404 -0.00173578 0.100386)
(-0.00860882 -0.00249664 0.108294)
(-0.0026569 -0.00116426 0.124703)
(-0.0101546 -0.00216186 0.092797)
(0.00286645 4.80594e-05 0.0316173)
(-0.0003142 -0.00158966 0.0912201)
(-0.000979887 -0.00159822 0.0912784)
(-0.00162776 -0.00162741 0.0913999)
(-0.00234333 -0.00165567 0.0916018)
(-0.00304088 -0.00170973 0.0919092)
(-0.00387511 -0.00176803 0.0923685)
(-0.00463585 -0.00183869 0.0930548)
(-0.00569388 -0.00196381 0.0940922)
(-0.00643562 -0.00200334 0.0956509)
(-0.00795455 -0.00233475 0.0976534)
(-0.00805722 -0.00210733 0.101279)
(-0.00904113 -0.00281015 0.111201)
(-0.00440792 0.00101847 0.130208)
(-0.0107143 -0.00189587 0.102795)
(0.00195087 -0.00302859 0.0317775)
(-0.000318913 -0.00228631 0.0914002)
(-0.00100048 -0.00229746 0.0914655)
(-0.00165626 -0.00234279 0.0916018)
(-0.00238036 -0.00237947 0.0918248)
(-0.00308429 -0.00246627 0.092167)
(-0.00390834 -0.00254575 0.0926659)
(-0.00467674 -0.00267142 0.0934263)
(-0.00565701 -0.00284017 0.094541)
(-0.00644203 -0.00298552 0.0961311)
(-0.00755482 -0.00339255 0.0981507)
(-0.0075038 -0.00340707 0.103083)
(-0.00615576 -0.0037829 0.116161)
(-0.00389225 -0.000147248 0.126304)
(-0.0057258 -0.00403906 0.0811414)
(-0.00789434 -0.00376172 0.0258851)
(-0.000325857 -0.00295669 0.0916705)
(-0.00103658 -0.00297077 0.091746)
(-0.00171001 -0.00303943 0.091909)
(-0.0024668 -0.00308191 0.0921668)
(-0.00320706 -0.00320454 0.0925776)
(-0.00407964 -0.00328359 0.0931629)
(-0.00493154 -0.00344252 0.0940958)
(-0.00602101 -0.00359129 0.0954194)
(-0.00701259 -0.00377746 0.0972901)
(-0.00820994 -0.00412991 0.100446)
(-0.00781438 -0.00423685 0.109868)
(-0.00649587 -0.00318223 0.124765)
(-0.00644523 0.00140185 0.0995591)
(-0.00125281 -0.00249722 0.0289586)
(0.0045345 0.00581247 0.0142787)
(-0.000333699 -0.00376798 0.0920797)
(-0.00108361 -0.00377846 0.0921687)
(-0.00176784 -0.00387324 0.0923683)
(-0.00254557 -0.00390532 0.0926657)
(-0.00328596 -0.00407659 0.0931626)
(-0.00414594 -0.00414326 0.0938237)
(-0.00498977 -0.00436154 0.0949018)
(-0.00601357 -0.00449189 0.0962137)
(-0.00695645 -0.0047465 0.0981697)
(-0.00760007 -0.00507293 0.102828)
(-0.00633441 -0.00494909 0.116908)
(-0.00585833 -0.00393222 0.126332)
(-0.00971807 -0.00714539 0.0792481)
(0.00187605 0.00244554 0.0371595)
(-0.000337339 -0.00446393 0.0926784)
(-0.00114277 -0.00447926 0.0927897)
(-0.0018381 -0.00463289 0.0930544)
(-0.00267077 -0.00467179 0.0934258)
(-0.00344534 -0.00492628 0.0940952)
(-0.00436454 -0.00498407 0.0949014)
(-0.00529017 -0.00528285 0.0962709)
(-0.00641829 -0.00537242 0.0977546)
(-0.00745574 -0.00557829 0.100989)
(-0.00775381 -0.00569123 0.10982)
(-0.0064066 -0.00396315 0.125375)
(-0.00761768 0.000343196 0.100126)
(-0.0030884 -0.00200465 0.0275362)
(0.00634415 0.00531708 0.0263919)
(-0.000350617 -0.00550066 0.0935794)
(-0.00125414 -0.00548934 0.0937239)
(-0.0019621 -0.00569026 0.0940914)
(-0.0028377 -0.0056512 0.09454)
(-0.00359289 -0.00601516 0.095418)
(-0.0044923 -0.00600776 0.0962123)
(-0.00537768 -0.00641066 0.0977529)
(-0.00624295 -0.00624154 0.0991684)
(-0.00700606 -0.00634129 0.104204)
(-0.00631899 -0.00578205 0.116308)
(-0.00665755 -0.00415415 0.126594)
(-0.0107084 -0.00790646 0.0829094)
(-9.77039e-05 0.00188205 0.0366607)
(-0.000328596 -0.00605852 0.0949524)
(-0.00133645 -0.00605988 0.0951511)
(-0.00200137 -0.00643112 0.0956493)
(-0.00298269 -0.0064341 0.096129)
(-0.0037804 -0.00700509 0.0972875)
(-0.00474759 -0.00694769 0.0981661)
(-0.00558862 -0.00744473 0.100983)
(-0.00634852 -0.00699972 0.104196)
(-0.00688855 -0.00688539 0.114038)
(-0.00591281 -0.00494757 0.124236)
(-0.00785912 0.000228063 0.0999576)
(-0.00207533 -0.00352186 0.0314733)
(0.00325023 0.00281658 0.0193408)
(-0.000355933 -0.0075922 0.0968554)
(-0.00163361 -0.00748992 0.0970655)
(-0.00233183 -0.00794899 0.0976501)
(-0.00338718 -0.00754643 0.0981467)
(-0.00413112 -0.00820293 0.100441)
(-0.00507081 -0.00759205 0.102821)
(-0.00569925 -0.00774375 0.109808)
(-0.00579189 -0.00631011 0.116288)
(-0.00495659 -0.00590888 0.124197)
(-0.00436814 -0.00442931 0.127507)
(-0.00476061 -0.0076616 0.0781059)
(0.000182477 -0.00638202 0.0295112)
(-0.000229648 -0.00720662 0.100253)
(-0.00172054 -0.00714092 0.100379)
(-0.0021051 -0.00805271 0.101274)
(-0.00340287 -0.00749408 0.103077)
(-0.00424049 -0.00780766 0.109861)
(-0.00494839 -0.00632525 0.1169)
(-0.00397738 -0.00639446 0.125358)
(-0.00416999 -0.00663578 0.126576)
(0.000173096 -0.00781388 0.0999058)
(-0.0076183 -0.00470666 0.0781683)
(-0.0113452 -0.0113418 0.0343597)
(-0.000282715 -0.00922169 0.10817)
(-0.00247372 -0.00859535 0.108277)
(-0.00281077 -0.00903405 0.111188)
(-0.00377548 -0.00614756 0.11615)
(-0.00318356 -0.00649137 0.124754)
(-0.00392412 -0.00585123 0.126317)
(0.000346564 -0.00760985 0.100103)
(-0.00788427 -0.0106862 0.0828865)
(-0.00353586 -0.00207773 0.0314634)
(-0.0063698 0.000190073 0.0294919)
(0.00039167 -0.00349061 0.12461)
(-0.00113981 -0.00263065 0.124672)
(0.0010147 -0.0044071 0.130183)
(-0.000147646 -0.00388392 0.126288)
(0.00139766 -0.00644226 0.0995506)
(-0.00714228 -0.00971617 0.0792423)
(-0.00200469 -0.00308997 0.0275369)
(0.00188243 -9.71836e-05 0.0366607)
(0.00281572 0.0032539 0.0193394)
(9.63348e-05 -0.0113906 0.093178)
(-0.00213243 -0.0101249 0.0927747)
(-0.001912 -0.0106905 0.102783)
(-0.00403121 -0.00571819 0.0811284)
(-0.00249824 -0.00125488 0.0289608)
(0.00244659 0.00187506 0.0371598)
(0.00531718 0.0063431 0.0263923)
(0.000654141 0.00273356 0.0331616)
(5.4929e-05 0.0028686 0.0315575)
(-0.00303318 0.00195617 0.0317755)
(-0.00375923 -0.00789906 0.0258853)
(0.00581215 0.00453508 0.0142803)
(-0.000275023 -0.000275213 0.103409)
(-0.000853572 -0.000274831 0.10346)
(-0.00141056 -0.000278052 0.103565)
(-0.00202432 -0.000281021 0.103732)
(-0.00259928 -0.000285479 0.103979)
(-0.0033014 -0.000291227 0.104314)
(-0.00388563 -0.000291443 0.104803)
(-0.00477033 -0.000301755 0.105406)
(-0.0052372 -0.00027506 0.106389)
(-0.00645738 -0.000283297 0.107263)
(-0.00644303 -0.000153238 0.108777)
(-0.00766352 -0.000185182 0.11022)
(-0.00234826 0.000192214 0.119057)
(0.0022937 0.00032055 0.0893867)
(0.00140126 0.000187443 0.0274778)
(-0.000275127 -0.000853889 0.10346)
(-0.000857674 -0.000857509 0.103512)
(-0.00141716 -0.000870871 0.10362)
(-0.00203229 -0.000885829 0.10379)
(-0.00261009 -0.000913206 0.104043)
(-0.00330808 -0.000950046 0.104386)
(-0.00389717 -0.000993041 0.104885)
(-0.00475502 -0.00107829 0.10551)
(-0.00522307 -0.00111866 0.106533)
(-0.00634363 -0.00129558 0.107474)
(-0.00635618 -0.0012932 0.108874)
(-0.0073144 -0.00189384 0.11023)
(-0.00183132 -0.00143203 0.118611)
(0.00219374 -0.00127949 0.0894004)
(0.00152647 8.03823e-05 0.0277488)
(-0.000278014 -0.00141092 0.103565)
(-0.000870552 -0.0014166 0.10362)
(-0.00143883 -0.00143858 0.103735)
(-0.00206647 -0.00145814 0.103915)
(-0.00266316 -0.00149827 0.104186)
(-0.00338056 -0.00154372 0.104554)
(-0.00401291 -0.00159427 0.105095)
(-0.00489388 -0.00169556 0.105808)
(-0.00545699 -0.00170373 0.106954)
(-0.00663369 -0.00194137 0.108035)
(-0.00698481 -0.00183625 0.109453)
(-0.0077725 -0.00274019 0.112346)
(-0.00273437 -0.000608238 0.122879)
(0.00146488 -0.000993735 0.0967159)
(0.000583045 -0.00255727 0.0272376)
(-0.000281 -0.00202482 0.103732)
(-0.000885379 -0.00203158 0.10379)
(-0.0014587 -0.0020662 0.103915)
(-0.00209177 -0.00209115 0.104105)
(-0.00269521 -0.00215767 0.104396)
(-0.00340277 -0.00221931 0.104781)
(-0.00404591 -0.00231085 0.105354)
(-0.00485968 -0.00244074 0.106118)
(-0.00548312 -0.0025106 0.107234)
(-0.00650162 -0.00278007 0.108097)
(-0.00698528 -0.00285792 0.109644)
(-0.00598075 -0.00310558 0.11487)
(-0.0014438 0.000154964 0.118809)
(0.00164735 0.00231967 0.0758464)
(-0.0089276 -0.00350582 0.02418)
(-0.000285049 -0.00259982 0.103979)
(-0.000912109 -0.00260872 0.104043)
(-0.0014986 -0.00266213 0.104185)
(-0.00215794 -0.00269331 0.104396)
(-0.00279097 -0.002789 0.104727)
(-0.00353159 -0.00285471 0.105158)
(-0.00422844 -0.00297316 0.105834)
(-0.00509276 -0.00309396 0.106734)
(-0.00584729 -0.00320135 0.107872)
(-0.0070074 -0.00352716 0.108826)
(-0.00677789 -0.00379113 0.112327)
(-0.00411097 -0.0031824 0.118895)
(0.00214311 0.00106798 0.0932685)
(-0.001705 -0.0022998 0.0335371)
(0.00289425 0.00358024 0.0116574)
(-0.000290309 -0.00330217 0.104314)
(-0.00094803 -0.00330635 0.104385)
(-0.00154374 -0.00337939 0.104553)
(-0.00221896 -0.00340058 0.10478)
(-0.00285658 -0.00352952 0.105158)
(-0.00358402 -0.00358243 0.105621)
(-0.00427959 -0.00371901 0.106381)
(-0.0051031 -0.00380295 0.107245)
(-0.00598412 -0.00388052 0.108082)
(-0.00694162 -0.00416276 0.109215)
(-0.00577535 -0.00378054 0.115359)
(-0.00112262 -0.00205337 0.118564)
(0.00102619 0.00134544 0.0733994)
(0.00110224 0.00290452 0.0312676)
(-0.000289922 -0.0038867 0.104803)
(-0.000989999 -0.00389442 0.104884)
(-0.00159414 -0.00401102 0.105093)
(-0.0023102 -0.00404221 0.105352)
(-0.00297564 -0.00422462 0.105833)
(-0.00372095 -0.00427537 0.10638)
(-0.00445241 -0.0044466 0.107299)
(-0.00529184 -0.00451572 0.108085)
(-0.00622067 -0.00460487 0.109052)
(-0.00643856 -0.00484964 0.112023)
(-0.00359238 -0.00376314 0.119037)
(0.00199553 0.000121733 0.0922096)
(-0.00218587 -0.00192351 0.030471)
(0.00426977 0.00323558 0.0196212)
(-0.000299254 -0.00477168 0.105406)
(-0.00107333 -0.00475172 0.105508)
(-0.00169464 -0.00489181 0.105806)
(-0.00243846 -0.00485573 0.106115)
(-0.00309526 -0.00508904 0.10673)
(-0.00380211 -0.00509972 0.107241)
(-0.00451921 -0.00528771 0.108081)
(-0.00524527 -0.00525129 0.108459)
(-0.00606919 -0.00507147 0.10981)
(-0.00539368 -0.00448088 0.115286)
(-0.00164186 -0.00188059 0.119156)
(0.00114714 0.00125245 0.0758751)
(0.000378144 0.002074 0.0305273)
(-0.000271627 -0.00523972 0.106388)
(-0.00111225 -0.00521804 0.10653)
(-0.001703 -0.00545462 0.10695)
(-0.00250842 -0.00547764 0.107229)
(-0.00320469 -0.00584243 0.107867)
(-0.00388208 -0.00597803 0.108077)
(-0.00461768 -0.00621243 0.109046)
(-0.00507314 -0.00606469 0.109807)
(-0.005274 -0.00527318 0.113608)
(-0.00295123 -0.00391486 0.11863)
(0.00161338 -0.000314615 0.0927639)
(-0.00158513 -0.00333719 0.0335022)
(0.00168672 0.00115542 0.0143447)
(-0.000278588 -0.00645959 0.107263)
(-0.00128582 -0.0063378 0.107469)
(-0.00194005 -0.00663072 0.108029)
(-0.00277544 -0.00649589 0.10809)
(-0.00352844 -0.00700311 0.108818)
(-0.00416044 -0.00693578 0.109207)
(-0.0048565 -0.00643228 0.112013)
(-0.00448127 -0.00538179 0.115277)
(-0.00391789 -0.00294712 0.118616)
(-0.00202821 -0.0020516 0.120263)
(0.00155061 0.000541758 0.0725587)
(-0.000937622 -0.00571255 0.0255473)
(-0.000146774 -0.00644965 0.108776)
(-0.00128182 -0.00634588 0.108866)
(-0.00183558 -0.00698269 0.109445)
(-0.00285429 -0.00697844 0.109634)
(-0.0037943 -0.00677377 0.112318)
(-0.00378039 -0.00576979 0.115351)
(-0.00377424 -0.00358823 0.119025)
(-0.00189363 -0.00163423 0.119147)
(-0.000349577 0.00162434 0.092726)
(0.000558772 0.00157562 0.0725471)
(-0.0111651 -0.0111989 0.0308155)
(-0.000177369 -0.0076665 0.110219)
(-0.0018755 -0.00730406 0.110212)
(-0.00274217 -0.00776814 0.112333)
(-0.00309855 -0.00597442 0.114857)
(-0.00318405 -0.00410862 0.118883)
(-0.00204887 -0.00111913 0.11855)
(0.000119517 0.00199803 0.0921906)
(0.00126089 0.00115755 0.0758626)
(-0.00335301 -0.00158876 0.0335027)
(-0.00571304 -0.000933187 0.0255295)
(0.000209067 -0.00236838 0.11905)
(-0.0014131 -0.00180816 0.118579)
(-0.000611825 -0.00273706 0.122856)
(0.000154909 -0.00143921 0.118791)
(0.00106354 0.00214457 0.0932587)
(0.00134665 0.00102622 0.0733938)
(-0.00192378 -0.00218789 0.0304745)
(0.00207203 0.000377763 0.0305306)
(0.00115311 0.00168982 0.0143438)
(0.000335947 0.00230374 0.0893946)
(-0.00124487 0.00219975 0.0893706)
(-0.00101643 0.00147289 0.0967035)
(0.0023237 0.0016494 0.0758325)
(-0.00230109 -0.00170642 0.0335399)
(0.00290526 0.00110186 0.0312691)
(0.00323569 0.0042693 0.0196217)
(0.000169386 0.00141187 0.0274806)
(8.94993e-05 0.0015182 0.0277124)
(-0.00256284 0.000585913 0.0272312)
(-0.00350267 -0.00893054 0.0241818)
(0.00357976 0.00289502 0.0116593)
(-0.000234059 -0.000234288 0.106153)
(-0.000728031 -0.000233273 0.106217)
(-0.00119596 -0.00023517 0.106354)
(-0.00170509 -0.000235841 0.10656)
(-0.00216162 -0.000236633 0.106875)
(-0.00269551 -0.000237128 0.107279)
(-0.0030937 -0.000230839 0.107892)
(-0.0036531 -0.00023155 0.108614)
(-0.00383597 -0.000200991 0.109829)
(-0.00430521 -0.000193146 0.111034)
(-0.00402012 -6.58998e-05 0.113063)
(-0.00468988 -4.66186e-05 0.113992)
(-0.00313657 0.000128263 0.118646)
(0.000795955 0.000210002 0.0927055)
(0.000933933 1.77931e-05 0.0305716)
(-0.000233594 -0.000728357 0.106217)
(-0.000730289 -0.000730124 0.106282)
(-0.00119884 -0.000738006 0.106421)
(-0.00170714 -0.000744599 0.106631)
(-0.00216373 -0.000757494 0.106953)
(-0.0026908 -0.000772737 0.107366)
(-0.00308964 -0.000785312 0.107992)
(-0.00362541 -0.000819905 0.108738)
(-0.00380284 -0.000808449 0.109992)
(-0.00418295 -0.000847021 0.111312)
(-0.00389755 -0.000693721 0.113341)
(-0.00446552 -0.00087064 0.114255)
(-0.00276068 -0.000774412 0.118713)
(0.000682682 -0.000480964 0.0929422)
(0.000927304 -7.08744e-05 0.0309666)
(-0.000235159 -0.00119635 0.106354)
(-0.000737681 -0.00119833 0.106421)
(-0.00121042 -0.00121025 0.106568)
(-0.00172449 -0.00121711 0.106789)
(-0.00218961 -0.00123243 0.10713)
(-0.00272317 -0.00124647 0.107573)
(-0.00314116 -0.00125084 0.108244)
(-0.00367651 -0.00128227 0.109079)
(-0.00386845 -0.00122084 0.110473)
(-0.00421584 -0.00125292 0.112029)
(-0.00405983 -0.000981101 0.114114)
(-0.00460891 -0.00146981 0.116077)
(-0.00277582 -0.000691091 0.122609)
(0.00074682 -0.000832611 0.0991099)
(5.09663e-05 -0.00242078 0.0291201)
(-0.000235968 -0.00170563 0.10656)
(-0.000744216 -0.00170659 0.106631)
(-0.00121761 -0.00172445 0.106789)
(-0.00172918 -0.00172883 0.10702)
(-0.00219282 -0.00175398 0.107384)
(-0.0027087 -0.0017675 0.107851)
(-0.00312418 -0.00178003 0.108557)
(-0.00359034 -0.00180414 0.109465)
(-0.00377626 -0.00173544 0.110927)
(-0.00400035 -0.0016944 0.112456)
(-0.00413288 -0.00154658 0.114467)
(-0.00392562 -0.00174008 0.118031)
(-0.00215956 -0.000708452 0.11971)
(0.000784732 0.000922485 0.0790143)
(-0.00870422 -0.00333248 0.0257701)
(-0.000236483 -0.00216222 0.106875)
(-0.000756582 -0.00216264 0.106952)
(-0.00123278 -0.00218898 0.107129)
(-0.00175401 -0.00219142 0.107383)
(-0.002228 -0.00222659 0.107792)
(-0.00274781 -0.00223025 0.10831)
(-0.00317156 -0.00224233 0.109116)
(-0.00361707 -0.0022356 0.110185)
(-0.00377106 -0.00213855 0.111776)
(-0.00414762 -0.00209127 0.113268)
(-0.00410185 -0.00215113 0.115997)
(-0.00328922 -0.00210363 0.119369)
(0.000527844 -0.000557577 0.0947943)
(-0.0022352 -0.00268745 0.0393401)
(0.00230902 0.00343157 0.012177)
(-0.000236724 -0.00269636 0.107279)
(-0.00077113 -0.00268952 0.107365)
(-0.00124666 -0.00272259 0.107572)
(-0.00176704 -0.00270727 0.107849)
(-0.00223163 -0.00274657 0.10831)
(-0.00272199 -0.00272114 0.108869)
(-0.00311845 -0.0027039 0.109767)
(-0.00347347 -0.0026319 0.110923)
(-0.00368461 -0.00241692 0.112383)
(-0.0041475 -0.00238582 0.11382)
(-0.00400238 -0.00205635 0.117915)
(-0.00189321 -0.0016971 0.118743)
(0.000487868 0.00071151 0.0761241)
(0.00057555 0.00270966 0.0333139)
(-0.000230137 -0.00309484 0.107892)
(-0.000782983 -0.00308763 0.10799)
(-0.00125103 -0.00314015 0.108242)
(-0.00177938 -0.00312169 0.108555)
(-0.00224424 -0.00316926 0.109114)