/*--------------------------------*- C++ -*----------------------------------*\
| =========                 |                                                 |
| \\      /  F ield         | OpenFOAM: The Open Source CFD Toolbox           |
|  \\    /   O peration     | Version:  2.1.1                                 |
|   \\  /    A nd           | Web:      www.OpenFOAM.org                      |
|    \\/     M anipulation  |                                                 |
\*---------------------------------------------------------------------------*/
FoamFile
{
    version     2.0;
    format      ascii;
    class       volScalarField;
    location    "0.002";
    object      p;
}
// * * * * * * * * * * * * * * * * * * * * * * * * * * * * * * * * * * * * * //

dimensions      [0 2 -2 0 0 0 0];

internalField   nonuniform List<scalar> 
10233
(
0.146087
0.144754
0.11922
0.152691
0.152289
0.151593
0.152423
0.148941
0.136238
0.14713
0.147935
0.149521
0.150211
0.151282
0.151421
0.154863
0.139937
0.142922
0.143216
0.143967
0.144863
0.146862
0.148826
0.152182
0.153334
0.152502
0.136819
0.140609
0.140668
0.140972
0.141445
0.142641
0.144184
0.146833
0.149484
0.152805
0.154454
0.144756
0.139069
0.139084
0.139267
0.139567
0.140237
0.141096
0.142541
0.144092
0.146348
0.150313
0.154084
0.145019
0.138147
0.138147
0.138267
0.138462
0.138866
0.139377
0.140205
0.14115
0.142613
0.144812
0.149787
0.157983
0.137396
0.137391
0.13748
0.137634
0.137923
0.138295
0.138853
0.139523
0.140564
0.142214
0.145571
0.152257
0.153848
0.136831
0.136822
0.136897
0.137026
0.137265
0.137572
0.138027
0.138593
0.139476
0.140864
0.143438
0.147663
0.152799
0.128902
0.136353
0.136343
0.136406
0.136527
0.136739
0.137007
0.137398
0.137888
0.138616
0.139695
0.141603
0.144744
0.149223
0.148915
0.135976
0.135965
0.136016
0.136128
0.136329
0.136586
0.136941
0.137392
0.138059
0.138994
0.140584
0.143027
0.146814
0.151447
0.135667
0.135654
0.135705
0.135816
0.135994
0.136233
0.136555
0.136955
0.137538
0.13831
0.139557
0.141454
0.144574
0.148083
0.133457
0.135431
0.13542
0.135472
0.135574
0.135731
0.135954
0.136265
0.136637
0.137161
0.137799
0.138825
0.140184
0.142801
0.144924
0.127741
0.135252
0.135241
0.135283
0.135373
0.135526
0.135738
0.136025
0.136361
0.136829
0.137338
0.138158
0.139139
0.141625
0.145886
0.158392
0.135129
0.135115
0.135152
0.135239
0.135389
0.135589
0.135864
0.136182
0.13662
0.137072
0.137809
0.138606
0.14091
0.145382
0.160727
0.108441
0.107298
0.101152
0.0955343
0.0949628
0.0957709
0.0969819
0.121246
0.105497
0.097732
0.0975493
0.0982246
0.096362
0.0991326
0.0988156
0.128797
0.110475
0.0938155
0.093812
0.0945786
0.094787
0.0969605
0.0964692
0.0993968
0.0992999
0.12784
0.107105
0.093171
0.0931914
0.0937181
0.093611
0.0949969
0.0951057
0.0974211
0.096842
0.100067
0.0974281
0.13425
0.0915372
0.0916093
0.0920385
0.0922516
0.093169
0.093429
0.0948882
0.0952518
0.0970252
0.097329
0.0974971
0.132256
0.0908913
0.0909499
0.0912472
0.0914148
0.0920747
0.0924202
0.0935157
0.0940263
0.0959234
0.0970149
0.100053
0.13197
0.0900588
0.0901259
0.0903644
0.0905684
0.091059
0.0914301
0.0922385
0.0928522
0.0940288
0.0952464
0.0968435
0.099281
0.130708
0.0895987
0.0896601
0.0898514
0.0900439
0.0904509
0.0908273
0.091542
0.0922355
0.0935121
0.094879
0.0974108
0.0993793
0.130372
0.106314
0.089127
0.0891884
0.0893521
0.0895447
0.0898915
0.0902416
0.0908279
0.0914287
0.0924184
0.0934233
0.0951005
0.0964586
0.0988071
0.124512
0.0888263
0.0888841
0.0890298
0.0892163
0.0895405
0.0898946
0.0904517
0.0910568
0.0920718
0.0931631
0.0949904
0.0969514
0.0991236
0.128252
0.088558
0.0886149
0.0887524
0.0889358
0.0892222
0.0895478
0.090045
0.0905672
0.0914125
0.092247
0.093606
0.0947802
0.0963548
0.0969755
0.125751
0.0883892
0.0884483
0.0885816
0.088756
0.089033
0.0893537
0.0898514
0.0903627
0.0912446
0.0920344
0.0937132
0.0945728
0.0982183
0.0957641
0.123966
0.0882657
0.0883228
0.0884472
0.0886157
0.0888854
0.0891887
0.0896596
0.0901242
0.0909473
0.0916054
0.0931872
0.093807
0.0975439
0.0949579
0.128597
0.0882107
0.088266
0.0883891
0.0885583
0.0888266
0.089127
0.0895981
0.0900574
0.090889
0.0915341
0.0931671
0.0938111
0.0977272
0.0955282
0.131678
0.107643
0.107786
0.109778
0.105031
0.104913
0.106064
0.104957
0.116442
0.107107
0.108374
0.108201
0.108726
0.107789
0.10689
0.104673
0.121721
0.110064
0.107787
0.107841
0.108327
0.108286
0.108282
0.107909
0.106672
0.105484
0.119177
0.112597
0.108322
0.108319
0.108585
0.108433
0.108668
0.108489
0.10859
0.108445
0.107049
0.106613
0.133034
0.107657
0.107707
0.107946
0.10804
0.108308
0.10838
0.108613
0.108723
0.108768
0.108717
0.106627
0.130573
0.107452
0.107487
0.107659
0.107738
0.108018
0.108154
0.108484
0.108642
0.10876
0.108766
0.107049
0.123791
0.106953
0.107
0.107152
0.107282
0.107543
0.107745
0.108087
0.108359
0.108643
0.10872
0.10844
0.105473
0.120001
0.106658
0.106702
0.106833
0.106965
0.107213
0.107434
0.107792
0.108084
0.108481
0.108605
0.108581
0.106659
0.121
0.108495
0.106311
0.106359
0.10648
0.106622
0.106857
0.10709
0.107434
0.107743
0.108152
0.108374
0.108483
0.1079
0.104665
0.116846
0.106077
0.106124
0.106238
0.106382
0.106615
0.106857
0.107213
0.10754
0.108014
0.108302
0.108661
0.108273
0.106881
0.119831
0.105859
0.105906
0.106017
0.106161
0.106384
0.106622
0.106964
0.10728
0.107735
0.108035
0.108427
0.108279
0.107782
0.10495
0.125386
0.105716
0.105764
0.105873
0.106017
0.106239
0.10648
0.106832
0.10715
0.107656
0.107942
0.10858
0.108321
0.108719
0.106057
0.120466
0.105611
0.105659
0.105764
0.105907
0.106124
0.106358
0.106701
0.106998
0.107484
0.107703
0.108314
0.107836
0.108195
0.104907
0.119744
0.105563
0.105611
0.105716
0.105858
0.106076
0.10631
0.106656
0.10695
0.107448
0.107652
0.108317
0.107781
0.108369
0.105025
0.119092
0.107505
0.107826
0.109471
0.106174
0.10597
0.106273
0.106202
0.114991
0.107905
0.107221
0.107136
0.107414
0.10691
0.107087
0.106381
0.118219
0.10919
0.106963
0.106955
0.107192
0.107216
0.107179
0.107163
0.107119
0.106922
0.115995
0.111776
0.107131
0.107128
0.107331
0.10726
0.107525
0.107456
0.107462
0.107506
0.107325
0.107399
0.129022
0.106597
0.106633
0.106817
0.10691
0.107154
0.107259
0.107505
0.107553
0.107578
0.107238
0.10743
0.126883
0.106378
0.106407
0.106558
0.106636
0.106895
0.107029
0.107318
0.107471
0.107686
0.107573
0.107318
0.12072
0.105936
0.105977
0.106112
0.10623
0.106467
0.10665
0.106963
0.107183
0.107475
0.107551
0.107501
0.106911
0.117203
0.105671
0.105711
0.105829
0.105947
0.106174
0.106373
0.106695
0.106961
0.107316
0.107499
0.107454
0.107108
0.118243
0.108663
0.105357
0.1054
0.10551
0.105637
0.105851
0.106059
0.106373
0.106649
0.107027
0.107254
0.10745
0.107154
0.106374
0.114664
0.105147
0.10519
0.105295
0.105424
0.105635
0.105851
0.106173
0.106464
0.106891
0.107148
0.107518
0.10717
0.107079
0.117238
0.104948
0.104991
0.105091
0.105221
0.105424
0.105636
0.105946
0.106228
0.106633
0.106905
0.107254
0.107209
0.106903
0.106195
0.122847
0.104818
0.104862
0.104961
0.105091
0.105294
0.105509
0.105828
0.106109
0.106555
0.106812
0.107326
0.107186
0.107407
0.106267
0.118302
0.104721
0.104764
0.104862
0.10499
0.10519
0.105399
0.105709
0.105975
0.106404
0.106628
0.107123
0.106949
0.10713
0.105963
0.117877
0.104677
0.10472
0.104818
0.104947
0.105147
0.105356
0.10567
0.105934
0.106375
0.106593
0.107127
0.106958
0.107216
0.106169
0.117149
0.106469
0.106848
0.108458
0.104352
0.10428
0.104342
0.104427
0.113119
0.107017
0.105066
0.104992
0.10511
0.104715
0.104814
0.104627
0.115666
0.107676
0.10518
0.105159
0.105238
0.105197
0.105062
0.104924
0.104877
0.104955
0.113552
0.110099
0.105498
0.105473
0.105563
0.105454
0.105531
0.105411
0.105271
0.105172
0.105065
0.105283
0.126664
0.105342
0.105353
0.105441
0.105458
0.105526
0.105504
0.10555
0.10546
0.105381
0.104951
0.105144
0.124065
0.105294
0.105307
0.105395
0.105417
0.105538
0.105557
0.105625
0.105603
0.105585
0.105376
0.105052
0.118093
0.105035
0.105061
0.105147
0.105214
0.105346
0.105423
0.105555
0.105583
0.105605
0.105459
0.105169
0.104944
0.115045
0.104866
0.104894
0.104978
0.105054
0.105199
0.105307
0.105468
0.105553
0.105623
0.105545
0.105265
0.104868
0.115983
0.107429
0.104635
0.104667
0.10475
0.104841
0.104991
0.105121
0.105307
0.105422
0.105555
0.1055
0.105406
0.104916
0.10462
0.112846
0.104474
0.104508
0.10459
0.104687
0.104844
0.10499
0.105198
0.105344
0.105535
0.105521
0.105526
0.105055
0.104807
0.115205
0.104313
0.104348
0.104429
0.10453
0.104687
0.10484
0.105053
0.105212
0.105414
0.105454
0.105448
0.10519
0.104708
0.10442
0.120721
0.104207
0.104243
0.104325
0.104429
0.10459
0.104749
0.104976
0.105145
0.105391
0.105436
0.105558
0.105232
0.105103
0.104336
0.116603
0.104125
0.104161
0.104243
0.104347
0.104507
0.104666
0.104892
0.105058
0.105303
0.105349
0.105467
0.105153
0.104985
0.104273
0.116162
0.104088
0.104125
0.104207
0.104312
0.104474
0.104634
0.104865
0.105032
0.105292
0.105338
0.105494
0.105175
0.105061
0.104347
0.115482
0.105541
0.105946
0.10751
0.103283
0.103257
0.103253
0.103348
0.111946
0.106089
0.103675
0.10362
0.103704
0.103446
0.103503
0.103466
0.114209
0.106491
0.103921
0.103904
0.103914
0.10389
0.103739
0.103637
0.103573
0.103669
0.112083
0.108778
0.104195
0.104169
0.104208
0.104121
0.104125
0.104051
0.103871
0.103803
0.103648
0.103753
0.124275
0.104231
0.104228
0.104254
0.104243
0.104235
0.104188
0.104161
0.104065
0.103965
0.10359
0.104
0.122614
0.104288
0.104289
0.10433
0.10432
0.104351
0.104323
0.104291
0.104228
0.104121
0.103972
0.103664
0.116523
0.104176
0.104189
0.104234
0.104263
0.104316
0.104325
0.104347
0.104298
0.104229
0.104066
0.1038
0.103664
0.113643
0.104092
0.104108
0.104159
0.1042
0.104274
0.104314
0.104362
0.104346
0.104289
0.104158
0.103866
0.103567
0.114632
0.106289
0.103946
0.103967
0.104021
0.104077
0.104166
0.104231
0.104314
0.104323
0.104321
0.104184
0.104047
0.103631
0.10346
0.111582
0.103838
0.103861
0.103918
0.103982
0.104083
0.104166
0.104273
0.104314
0.104348
0.10423
0.10412
0.103733
0.103497
0.11393
0.103722
0.103747
0.103806
0.103876
0.103982
0.104076
0.104198
0.10426
0.104317
0.104239
0.104116
0.103884
0.10344
0.103341
0.119545
0.103644
0.103671
0.103731
0.103805
0.103918
0.10402
0.104158
0.104232
0.104327
0.10425
0.104203
0.103908
0.103698
0.103246
0.115332
0.103583
0.10361
0.103671
0.103746
0.10386
0.103965
0.104107
0.104187
0.104286
0.104224
0.104164
0.103897
0.103613
0.103249
0.115004
0.103555
0.103582
0.103644
0.103721
0.103837
0.103944
0.104091
0.104174
0.104285
0.104228
0.104191
0.103917
0.10367
0.103279
0.114297
0.104611
0.105024
0.106516
0.102307
0.102302
0.102249
0.102392
0.110904
0.105129
0.102405
0.102373
0.102446
0.10229
0.102385
0.102434
0.113038
0.105421
0.102666
0.102658
0.102634
0.102636
0.102499
0.102454
0.102451
0.102567
0.110894
0.107643
0.102849
0.10283
0.102845
0.102783
0.102769
0.102739
0.102572
0.102568
0.102475
0.10284
0.12421
0.102975
0.102969
0.102964
0.102944
0.102904
0.102855
0.102818
0.10274
0.102682
0.102368
0.102642
0.121344
0.103076
0.103069
0.103077
0.103052
0.10304
0.103001
0.102932
0.102873
0.102766
0.102678
0.102471
0.115277
0.103085
0.103087
0.103099
0.103095
0.103093
0.103063
0.103034
0.102961
0.102874
0.102741
0.10257
0.102565
0.112483
0.103075
0.103081
0.103102
0.10311
0.103127
0.103116
0.10309
0.103033
0.102931
0.102816
0.10257
0.102447
0.113513
0.105268
0.103011
0.103021
0.103048
0.10307
0.103104
0.103112
0.103115
0.103061
0.102999
0.102852
0.102735
0.102449
0.102428
0.110499
0.102955
0.102968
0.103
0.103032
0.103079
0.103104
0.103126
0.103091
0.103038
0.1029
0.102765
0.102493
0.102381
0.112845
0.102885
0.102901
0.102937
0.102976
0.103032
0.103069
0.103108
0.103093
0.103049
0.10294
0.102778
0.10263
0.102283
0.102386
0.118465
0.102837
0.102854
0.102892
0.102936
0.103
0.103047
0.1031
0.103097
0.103074
0.10296
0.10284
0.102629
0.102439
0.102241
0.114232
0.102795
0.102813
0.102853
0.1029
0.102967
0.103019
0.103078
0.103084
0.103065
0.102964
0.102824
0.102651
0.102365
0.102293
0.113951
0.102777
0.102795
0.102836
0.102885
0.102954
0.103009
0.103073
0.103083
0.103074
0.102973
0.102847
0.102663
0.102401
0.102303
0.11325
0.103662
0.104079
0.105528
0.101298
0.101315
0.10123
0.101397
0.109872
0.104147
0.101259
0.101243
0.101304
0.101189
0.101296
0.101396
0.11194
0.10438
0.101524
0.101524
0.101483
0.101498
0.101367
0.101333
0.101361
0.101483
0.109785
0.106562
0.101635
0.101623
0.101628
0.101585
0.101564
0.101554
0.101397
0.101408
0.101342
0.101572
0.122065
0.101796
0.10179
0.10177
0.10175
0.101698
0.101652
0.101617
0.101545
0.101505
0.101225
0.101681
0.120162
0.101899
0.101891
0.101884
0.101856
0.101825
0.101785
0.101704
0.101655
0.101557
0.101509
0.101355
0.114139
0.101972
0.101967
0.101958
0.10194
0.101912
0.101868
0.101818
0.101742
0.101656
0.101546
0.101408
0.101482
0.111385
0.102013
0.102011
0.102011
0.101997
0.101978
0.101942
0.101885
0.101818
0.101703
0.101615
0.101395
0.101358
0.112444
0.104266
0.102011
0.102013
0.102019
0.102017
0.102011
0.101982
0.101942
0.101867
0.101783
0.10165
0.101551
0.101328
0.101391
0.109452
0.101997
0.102002
0.102014
0.10202
0.102026
0.10201
0.101977
0.10191
0.101822
0.101694
0.10156
0.101362
0.101291
0.111803
0.101967
0.101974
0.10199
0.102004
0.10202
0.102015
0.101996
0.101937
0.101853
0.101746
0.10158
0.101492
0.101184
0.101398
0.117397
0.101943
0.101952
0.101971
0.10199
0.102013
0.102018
0.10201
0.101956
0.101881
0.101766
0.101624
0.101478
0.101296
0.101215
0.113179
0.10192
0.10193
0.101951
0.101973
0.102001
0.102011
0.102009
0.101964
0.101887
0.101785
0.101617
0.101517
0.101233
0.101302
0.112917
0.10191
0.10192
0.101942
0.101966
0.101996
0.102009
0.102012
0.101971
0.101897
0.101794
0.101633
0.101521
0.101257
0.101295
0.11223
0.102699
0.103122
0.104544
0.1003
0.100329
0.100224
0.100409
0.10886
0.103161
0.100194
0.100188
0.100241
0.10015
0.100251
0.100375
0.110885
0.103359
0.100446
0.100453
0.100404
0.100429
0.100305
0.100274
0.100314
0.100432
0.108722
0.10551
0.100497
0.100491
0.100493
0.100464
0.100443
0.10045
0.100304
0.100322
0.100278
0.100565
0.121441
0.100659
0.100655
0.10063
0.100615
0.100562
0.100525
0.100496
0.100436
0.100414
0.100152
0.100539
0.119075
0.100743
0.100736
0.100723
0.100699
0.100663
0.100632
0.100553
0.100519
0.100434
0.100414
0.100277
0.113053
0.100841
0.100834
0.100816
0.100794
0.100756
0.100712
0.10066
0.100594
0.100519
0.100436
0.100321
0.10043
0.110327
0.100902
0.100895
0.100882
0.10086
0.100826
0.100785
0.100718
0.10066
0.100552
0.100494
0.100302
0.100311
0.111405
0.103267
0.100944
0.10094
0.100931
0.100912
0.100883
0.10084
0.100785
0.100711
0.10063
0.100522
0.100447
0.100269
0.10037
0.108429
0.100962
0.10096
0.100956
0.100944
0.100921
0.100882
0.100825
0.100755
0.10066
0.100559
0.10044
0.100301
0.100247
0.110782
0.100963
0.100964
0.100964
0.100958
0.100944
0.10091
0.100858
0.100791
0.100696
0.100611
0.100459
0.100423
0.100143
0.100401
0.116358
0.10096
0.100962
0.100965
0.100964
0.100956
0.10093
0.100881
0.100814
0.100721
0.100626
0.100489
0.100399
0.100234
0.100217
0.112152
0.100953
0.100956
0.100961
0.100963
0.100959
0.100938
0.100892
0.100831
0.100732
0.100651
0.100485
0.100445
0.100177
0.100316
0.111903
0.10095
0.100953
0.100959
0.100962
0.10096
0.100943
0.1009
0.100839
0.100742
0.100657
0.100496
0.100443
0.100193
0.100298
0.111223
0.101732
0.102159
0.103563
0.0993117
0.099348
0.0992348
0.0994241
0.107858
0.102176
0.0991612
0.099164
0.0992124
0.0991374
0.0992349
0.0993681
0.109856
0.102352
0.0993935
0.0994048
0.0993533
0.0993885
0.0992673
0.0992436
0.0992861
0.0994098
0.107688
0.104486
0.099398
0.0993976
0.0993985
0.0993813
0.0993631
0.0993814
0.099246
0.0992739
0.0992388
0.0995132
0.12021
0.0995453
0.0995446
0.0995184
0.0995106
0.0994603
0.0994332
0.0994116
0.0993648
0.0993563
0.0991157
0.0995146
0.11799
0.0996032
0.0995987
0.0995853
0.0995676
0.0995328
0.0995127
0.0994417
0.0994232
0.0993525
0.0993558
0.0992368
0.111997
0.0997009
0.0996948
0.0996751
0.099655
0.0996172
0.0995807
0.099534
0.0994833
0.0994228
0.0993638
0.0992715
0.0994055
0.109293
0.0997601
0.0997531
0.0997366
0.0997139
0.0996767
0.0996408
0.0995775
0.0995336
0.0994405
0.0994099
0.0992435
0.0992841
0.110381
0.102274
0.0998215
0.099814
0.0997973
0.0997732
0.0997373
0.0996949
0.0996403
0.0995796
0.0995106
0.0994301
0.0993773
0.0992381
0.0993621
0.107419
0.0998602
0.0998543
0.0998398
0.0998161
0.0997798
0.0997369
0.0996758
0.0996157
0.0995305
0.0994574
0.0993589
0.0992622
0.0992294
0.109772
0.0998849
0.0998806
0.0998694
0.0998499
0.099816
0.0997721
0.0997123
0.0996527
0.0995644
0.0995066
0.0993766
0.0993831
0.0991298
0.0994149
0.115337
0.0998969
0.0998937
0.0998853
0.0998693
0.0998393
0.0997964
0.0997352
0.0996733
0.0995829
0.0995156
0.0993953
0.09935
0.0992064
0.0992286
0.111141
0.0999026
0.0999001
0.0998931
0.0998797
0.099853
0.0998123
0.0997507
0.0996919
0.0995947
0.0995401
0.0993912
0.0993976
0.0991516
0.0993341
0.110898
0.0999047
0.0999024
0.0998964
0.0998841
0.0998591
0.0998204
0.0997588
0.0996994
0.0996017
0.0995437
0.0993971
0.0993915
0.0991622
0.0993101
0.110223
0.100763
0.101193
0.102587
0.0983325
0.0983682
0.0982613
0.0984468
0.106866
0.101196
0.0981522
0.0981587
0.0982073
0.0981442
0.0982373
0.0983751
0.108846
0.101356
0.0983607
0.098375
0.0983239
0.0983655
0.0982486
0.0982343
0.0982803
0.0983948
0.106666
0.103474
0.0983275
0.0983312
0.0983339
0.0983257
0.0983126
0.0983392
0.0982158
0.098248
0.0982227
0.0985064
0.119195
0.098451
0.0984532
0.0984292
0.0984285
0.0983835
0.0983677
0.0983531
0.0983219
0.0983215
0.0981068
0.0984886
0.116946
0.0984801
0.0984787
0.0984676
0.0984576
0.0984284
0.0984194
0.0983607
0.0983564
0.0983025
0.0983207
0.0982202
0.110964
0.0985638
0.0985599
0.0985422
0.0985277
0.098495
0.0984696
0.098433
0.0984003
0.0983558
0.0983208
0.0982458
0.0983921
0.108277
0.0986098
0.0986043
0.0985885
0.0985706
0.0985377
0.0985118
0.0984597
0.0984326
0.0983594
0.0983513
0.0982127
0.0982763
0.109369
0.101287
0.0986707
0.0986637
0.0986459
0.0986241
0.0985903
0.0985565
0.0985113
0.0984685
0.0984174
0.0983646
0.0983343
0.098226
0.0983667
0.106419
0.0987133
0.0987055
0.0986873
0.0986632
0.0986265
0.09859
0.098537
0.0984937
0.0984263
0.0983807
0.0983071
0.0982361
0.0982318
0.108772
0.0987526
0.0987453
0.0987269
0.0987012
0.0986626
0.0986231
0.0985691
0.0985254
0.0984544
0.0984247
0.0983227
0.0983683
0.0981384
0.0984367
0.11433
0.098775
0.0987683
0.098752
0.0987273
0.0986868
0.0986451
0.0985872
0.0985405
0.0984654
0.0984269
0.0983316
0.0983235
0.0982015
0.0982525
0.110143
0.0987894
0.098783
0.0987678
0.0987446
0.0987042
0.0986619
0.098602
0.098557
0.0984747
0.0984485
0.0983252
0.0983682
0.0981478
0.0983577
0.109901
0.0987952
0.0987892
0.0987746
0.098752
0.0987124
0.0986696
0.0986086
0.0985624
0.0984786
0.0984493
0.0983268
0.098359
0.0981535
0.0983319
0.109228
0.0998062
0.100229
0.101618
0.0973688
0.0974089
0.0972945
0.0974784
0.105888
0.100227
0.0971618
0.0971725
0.0972203
0.0971719
0.0972564
0.0973955
0.107851
0.10037
0.0973419
0.0973577
0.0973133
0.09736
0.0972414
0.0972376
0.0972778
0.097401
0.105656
0.102471
0.0972748
0.0972824
0.0972893
0.0972909
0.0972817
0.0973155
0.097205
0.0972426
0.0972251
0.097481
0.118019
0.0973667
0.0973712
0.097353
0.0973592
0.0973219
0.0973189
0.0973113
0.0973003
0.0973046
0.0971254
0.0975266
0.115924
0.0973661
0.0973677
0.0973613
0.0973598
0.0973393
0.0973423
0.0972993
0.0973092
0.0972759
0.0973056
0.0972286
0.109948
0.0974273
0.0974259
0.0974128
0.0974056
0.0973817
0.09737
0.0973469
0.097335
0.0973087
0.0972998
0.0972411
0.0973988
0.107276
0.0974542
0.0974511
0.0974392
0.0974285
0.0974044
0.0973911
0.0973551
0.0973466
0.0972982
0.0973099
0.0972026
0.0972748
0.108366
0.100309
0.0975036
0.0974984
0.0974836
0.0974679
0.0974421
0.0974209
0.0973906
0.097369
0.0973405
0.0973162
0.0973117
0.0972323
0.0973902
0.105429
0.097539
0.0975323
0.0975157
0.0974963
0.0974665
0.0974419
0.0974037
0.0973806
0.0973375
0.0973195
0.097278
0.0972375
0.0972516
0.107782
0.0975789
0.0975705
0.0975515
0.0975285
0.0974957
0.097467
0.097427
0.0974036
0.0973569
0.0973558
0.0972869
0.0973551
0.0971657
0.0974714
0.113336
0.0976072
0.0975986
0.0975785
0.0975519
0.0975152
0.0974829
0.0974381
0.0974113
0.0973594
0.0973508
0.0972865
0.0973111
0.0972156
0.0972942
0.109155
0.0976269
0.0976182
0.0975985
0.09757
0.097531
0.0974968
0.097449
0.0974233
0.0973641
0.0973668
0.0972767
0.0973508
0.0971618
0.0973912
0.10891
0.0976352
0.0976269
0.097607
0.0975787
0.0975384
0.0975027
0.0974531
0.097426
0.0973648
0.097365
0.097274
0.0973403
0.0971614
0.0973662
0.108238
0.0988523
0.099269
0.100661
0.0964199
0.0964525
0.0963672
0.0965352
0.104927
0.0992728
0.0961842
0.0961988
0.0962559
0.0962261
0.0962965
0.0964362
0.106874
0.0993969
0.0963327
0.0963487
0.0963196
0.0963637
0.0962509
0.0962539
0.096285
0.0964229
0.104656
0.101485
0.0962311
0.0962432
0.096257
0.0962706
0.0962659
0.0963063
0.0962111
0.0962569
0.0962581
0.0965549
0.117196
0.0962846
0.0962912
0.0962825
0.0962955
0.0962685
0.0962798
0.0962808
0.0962954
0.0963082
0.0961726
0.0965017
0.114897
0.0962536
0.0962585
0.0962589
0.0962664
0.0962573
0.0962732
0.0962496
0.0962757
0.0962672
0.0963067
0.096252
0.108939
0.0962868
0.096288
0.0962815
0.0962828
0.0962704
0.0962742
0.0962678
0.0962795
0.0962753
0.0962944
0.096255
0.0964211
0.106293
0.096292
0.0962918
0.0962857
0.0962834
0.096271
0.096272
0.0962562
0.0962677
0.0962488
0.0962798
0.0962096
0.0962832
0.107373
0.0993408
0.0963239
0.0963212
0.0963117
0.0963041
0.0962894
0.0962833
0.0962716
0.0962734
0.0962718
0.0962779
0.0963037
0.0962506
0.0964326
0.10445
0.0963469
0.0963425
0.0963304
0.0963186
0.0962997
0.0962893
0.0962704
0.0962695
0.0962557
0.0962667
0.0962632
0.0962483
0.0962927
0.106804
0.0963787
0.096372
0.0963568
0.0963406
0.0963182
0.0963033
0.0962821
0.0962811
0.0962641
0.0962926
0.0962669
0.0963592
0.0962207
0.0965289
0.112356
0.0964042
0.0963957
0.0963772
0.0963569
0.09633
0.096311
0.0962847
0.0962802
0.0962571
0.0962805
0.0962545
0.0963168
0.0962509
0.0963636
0.10818
0.0964265
0.0964169
0.0963955
0.0963715
0.0963414
0.0963198
0.0962899
0.0962857
0.0962553
0.0962875
0.096238
0.0963427
0.0961919
0.0964414
0.107928
0.0964362
0.0964265
0.096404
0.0963785
0.0963464
0.0963232
0.096291
0.0962856
0.0962524
0.0962831
0.0962305
0.0963315
0.0961827
0.0964186
0.107253
0.0979094
0.0983208
0.0997263
0.0954983
0.0955292
0.0954814
0.0956343
0.103994
0.0983454
0.095218
0.0952388
0.0953164
0.0953159
0.0953657
0.0955069
0.105924
0.0984405
0.0953306
0.0953476
0.0953437
0.09538
0.0952757
0.0952829
0.0953043
0.0954605
0.103663
0.100504
0.0951887
0.0952058
0.0952324
0.095261
0.0952617
0.0953094
0.0952332
0.0952916
0.0953144
0.0956131
0.115986
0.095198
0.0952072
0.0952117
0.0952315
0.0952176
0.0952451
0.0952579
0.0953032
0.0953305
0.0952623
0.0955812
0.113881
0.0951355
0.0951441
0.0951534
0.0951708
0.0951747
0.0952058
0.0952048
0.0952512
0.0952734
0.0953304
0.0953124
0.107946
0.0951377
0.0951417
0.0951435
0.0951538
0.095155
0.0951755
0.095189
0.0952268
0.0952509
0.095303
0.0952915
0.0954607
0.105335
0.09512
0.0951229
0.095124
0.0951308
0.095132
0.0951486
0.0951555
0.0951889
0.0952044
0.0952573
0.0952327
0.0953036
0.106393
0.0983894
0.0951316
0.0951318
0.0951288
0.09513
0.0951284
0.0951385
0.0951483
0.095175
0.0952047
0.0952438
0.0953078
0.0952811
0.0955046
0.103482
0.0951409
0.0951391
0.0951331
0.0951301
0.0951234
0.0951284
0.0951316
0.0951543
0.0951735
0.0952163
0.0952598
0.0952736
0.0953628
0.105843
0.0951608
0.0951567
0.0951474
0.0951396
0.0951296
0.0951293
0.0951298
0.0951524
0.0951688
0.0952293
0.0952582
0.0953766
0.0953121
0.0956294
0.111394
0.0951785
0.0951722
0.0951594
0.0951474
0.0951328
0.0951283
0.0951231
0.0951424
0.0951518
0.0952099
0.0952301
0.0953413
0.0953124
0.0954785
0.107222
0.0951971
0.0951883
0.095172
0.0951563
0.0951382
0.0951306
0.0951212
0.0951397
0.0951412
0.0952041
0.0952013
0.0953426
0.095234
0.0955204
0.106955
0.0952081
0.0951974
0.0951785
0.0951607
0.0951404
0.095131
0.0951191
0.0951365
0.0951345
0.0951966
0.0951885
0.0953294
0.0952158
0.0954976
0.106272
0.0969818
0.0973906
0.0988266
0.0946209
0.0946525
0.0946747
0.0948155
0.103111
0.0974667
0.0942563
0.0942881
0.094409
0.094456
0.0944791
0.0946265
0.10502
0.0975124
0.0943368
0.0943561
0.0943863
0.094414
0.0943143
0.0943242
0.0943414
0.0945164
0.102675
0.0995249
0.0941385
0.094157
0.0942071
0.0942574
0.0942647
0.0943239
0.0942709
0.0943514
0.0944037
0.0946855
0.114564
0.0940982
0.0941096
0.0941316
0.0941595
0.0941609
0.0942068
0.094238
0.0943218
0.0943742
0.0944117
0.0948176
0.1129
0.0940024
0.0940142
0.0940353
0.0940627
0.0940816
0.094132
0.094157
0.0942299
0.0942905
0.0943782
0.0944216
0.106975
0.0939752
0.0939816
0.0939928
0.0940117
0.0940276
0.0940661
0.0941025
0.0941698
0.0942298
0.0943231
0.0943552
0.0945195
0.104417
0.0939348
0.0939405
0.0939499
0.0939659
0.0939816
0.0940142
0.0940453
0.0941026
0.094157
0.0942381
0.0942718
0.0943422
0.105435
0.0974672
0.0939261
0.0939288
0.0939329
0.0939428
0.0939551
0.0939816
0.094014
0.094066
0.0941314
0.0942061
0.0943236
0.0943236
0.0946256
0.102534
0.0939225
0.0939234
0.093924
0.0939295
0.0939346
0.0939552
0.0939814
0.0940273
0.0940809
0.0941601
0.0942638
0.0943133
0.0944776
0.104911
0.0939296
0.0939283
0.0939255
0.0939262
0.093929
0.0939424
0.0939653
0.0940108
0.0940612
0.0941582
0.0942555
0.0944119
0.0944535
0.0948124
0.110459
0.0939383
0.093935
0.0939288
0.0939255
0.0939237
0.0939325
0.0939492
0.0939919
0.094034
0.0941303
0.0942053
0.0943846
0.0944066
0.0946727
0.10629
0.0939498
0.0939441
0.0939349
0.093928
0.0939228
0.0939279
0.0939393
0.09398
0.0940121
0.0941073
0.0941543
0.0943527
0.0942848
0.0946477
0.106
0.093958
0.0939501
0.0939384
0.0939296
0.0939222
0.0939255
0.093934
0.093974
0.0940014
0.0940967
0.0941371
0.094335
0.0942539
0.0946186
0.105296
0.0960757
0.09648
0.0979811
0.0938106
0.0938491
0.0940111
0.0941552
0.102309
0.0966765
0.0932617
0.0933102
0.0935184
0.0936532
0.0936413
0.0938298
0.104194
0.0966429
0.0933587
0.0933698
0.093448
0.0934603
0.0933433
0.0933568
0.0933934
0.0936088
0.101684
0.0985526
0.0930466
0.093076
0.0931676
0.0932511
0.0932593
0.0933654
0.0933126
0.0934442
0.0935708
0.0941231
0.113805
0.0930016
0.093011
0.0930486
0.0930753
0.0930832
0.0931527
0.0932144
0.093354
0.0934453
0.0936467
0.0940057
0.111851
0.0928483
0.0928639
0.0929039
0.092947
0.0929806
0.0930494
0.0930953
0.0932016
0.0933142
0.093444
0.0935555
0.106061
0.0927985
0.0928066
0.0928273
0.092853
0.0928821
0.0929389
0.0929993
0.0931002
0.0932013
0.093354
0.0934437
0.0936138
0.103571
0.0927327
0.0927414
0.0927599
0.0927848
0.0928146
0.0928624
0.0929169
0.0929995
0.0930955
0.0932148
0.0933132
0.093395
0.104518
0.0966059
0.0927046
0.0927095
0.0927205
0.0927379
0.0927638
0.0928067
0.0928624
0.092939
0.0930493
0.0931528
0.0933656
0.0933572
0.0938301
0.101618
0.0926918
0.0926951
0.0927017
0.0927143
0.0927283
0.0927639
0.0928146
0.0928821
0.0929804
0.093083
0.0932591
0.0933433
0.0936407
0.104031
0.0926878
0.0926889
0.092692
0.0927001
0.0927139
0.0927378
0.0927844
0.0928525
0.0929463
0.0930744
0.0932501
0.0934591
0.093652
0.094154
0.109549
0.092688
0.0926877
0.0926877
0.092692
0.0927014
0.0927201
0.0927594
0.0928266
0.0929031
0.0930475
0.0931665
0.0934467
0.0935173
0.0940099
0.105399
0.092693
0.0926903
0.0926876
0.0926886
0.0926946
0.0927088
0.0927405
0.0928054
0.0928626
0.0930093
0.0930744
0.0933678
0.0933086
0.0938475
0.105066
0.0926968
0.092693
0.0926881
0.0926876
0.0926914
0.092704
0.092732
0.0927974
0.0928473
0.0930001
0.0930452
0.0933562
0.0932591
0.093807
0.104321
0.0952074
0.0955905
0.0972346
0.0930935
0.0931292
0.0935872
0.0937731
0.101607
0.096059
0.0922183
0.0922917
0.0926748
0.0929625
0.0928417
0.0931635
0.103506
0.0959221
0.0923595
0.0923563
0.0925127
0.0924933
0.092355
0.0923729
0.0924496
0.0927813
0.100725
0.0974572
0.0919192
0.0919542
0.0921081
0.0922295
0.0922401
0.0923942
0.0923595
0.0925187
0.0927886
0.0938179
0.111417
0.0918659
0.0918701
0.0919302
0.0919517
0.0919714
0.0920664
0.0921589
0.0923744
0.0924405
0.0930055
0.0938526
0.110739
0.0916659
0.0916836
0.0917451
0.0917989
0.0918481
0.0919371
0.0920049
0.0921377
0.092288
0.0924424
0.0927918
0.105112
0.091604
0.0916118
0.0916413
0.0916704
0.0917114
0.0917858
0.0918681
0.0920064
0.0921372
0.0923752
0.09252
0.092785
0.102847
0.0915185
0.0915288
0.0915565
0.091588
0.0916306
0.091691
0.0917661
0.0918686
0.0920053
0.0921599
0.0923611
0.092452
0.103716
0.0959095
0.091483
0.0914894
0.0915061
0.0915291
0.0915647
0.091617
0.091691
0.091786
0.0919372
0.0920674
0.0923954
0.0923745
0.0931645
0.100794
0.0914517
0.0914572
0.0914705
0.0914905
0.0915211
0.0915648
0.0916307
0.0917114
0.0918483
0.091972
0.0922411
0.0923561
0.0928419
0.103235
0.0914386
0.0914417
0.0914501
0.0914651
0.0914903
0.0915288
0.0915876
0.09167
0.0917986
0.0919511
0.0922287
0.0924928
0.0929623
0.093773
0.108634
0.0914303
0.0914327
0.0914382
0.0914501
0.0914703
0.0915057
0.0915562
0.0916407
0.0917447
0.0919291
0.0921074
0.0925115
0.0926748
0.0935873
0.104599
0.0914311
0.0914298
0.0914325
0.0914415
0.0914569
0.0914888
0.091528
0.0916108
0.0916827
0.0918687
0.0919535
0.0923552
0.0922922
0.0931302
0.104179
0.0914318
0.0914309
0.0914304
0.0914382
0.0914513
0.0914823
0.0915178
0.0916029
0.0916651
0.0918641
0.0919178
0.0923561
0.0922153
0.0930881
0.103352
0.0944532
0.0947767
0.0967422
0.0924722
0.0924299
0.0936238
0.0939777
0.101024
0.0958641
0.0910919
0.0911853
0.0918547
0.0923915
0.0920073
0.0926441
0.103036
0.0956392
0.0913139
0.091276
0.09154
0.0914201
0.0912949
0.0913433
0.0915183
0.0920783
0.0999596
0.0960378
0.0907385
0.0907674
0.0910123
0.0911425
0.0911937
0.0913852
0.0914292
0.0915854
0.0924492
0.0939331
0.107975
0.0906839
0.0906785
0.090763
0.0907671
0.0908057
0.0909333
0.0910779
0.0914615
0.0914972
0.0929959
0.0939357
0.108798
0.0904501
0.0904662
0.0905534
0.0906084
0.0906759
0.0907797
0.0908868
0.0910572
0.0913477
0.0915006
0.0924526
0.103809
0.0903818
0.0903879
0.0904256
0.090454
0.0905052
0.090595
0.0906996
0.0908883
0.0910564
0.0914636
0.0915879
0.0920828
0.102341
0.0902844
0.0902949
0.0903312
0.0903649
0.0904189
0.0904866
0.0905824
0.0907001
0.0908874
0.0910798
0.0914321
0.0915215
0.103233
0.0957815
0.0902441
0.0902509
0.0902716
0.0902968
0.0903395
0.0903989
0.0904865
0.0905954
0.09078
0.0909355