/*--------------------------------*- C++ -*----------------------------------*\
| =========                 |                                                 |
| \\      /  F ield         | OpenFOAM: The Open Source CFD Toolbox           |
|  \\    /   O peration     | Version:  2.1.1                                 |
|   \\  /    A nd           | Web:      www.OpenFOAM.org                      |
|    \\/     M anipulation  |                                                 |
\*---------------------------------------------------------------------------*/
FoamFile
{
    version     2.0;
    format      ascii;
    class       volScalarField;
    location    "0.0035";
    object      Th;
}
// * * * * * * * * * * * * * * * * * * * * * * * * * * * * * * * * * * * * * //

dimensions      [0 0 0 0 0 0 0];

internalField   nonuniform List<scalar> 
10314
(
1.00004e-14
1e-14
1.00001e-14
1e-14
1e-14
1e-14
1.00001e-14
1.00001e-14
1.00001e-14
1.00001e-14
1e-14
1.00001e-14
1.00025e-14
1.06497e-14
1.65918e-14
1e-14
1e-14
1e-14
1e-14
1e-14
1.00001e-14
1.00001e-14
1e-14
1e-14
1.00001e-14
1.00001e-14
1.00002e-14
1.00061e-14
1.17348e-14
2.26782e-14
1.00001e-14
1e-14
1.00001e-14
1.00001e-14
1e-14
1e-14
1e-14
1.00001e-14
1e-14
1e-14
1.00001e-14
1.00001e-14
1e-14
1.01762e-14
3.28745e-14
1e-14
1.00001e-14
1.00001e-14
1e-14
1e-14
1.00001e-14
1.00001e-14
1.00001e-14
1e-14
1.00001e-14
1.00001e-14
1.00001e-14
1.00359e-14
1e-14
1.02892e-14
1e-14
1e-14
1e-14
1e-14
1.00001e-14
1.00001e-14
1.00001e-14
1e-14
1e-14
1e-14
1e-14
1.00002e-14
1.00686e-14
1e-14
1e-14
1.00001e-14
1.00001e-14
1e-14
1.00001e-14
1.00001e-14
1.00001e-14
1e-14
1e-14
1e-14
1e-14
1.00001e-14
1.00059e-14
1.24067e-14
1.71721e-14
1.00001e-14
1.00001e-14
1e-14
1.00001e-14
1.00001e-14
1e-14
1e-14
1e-14
1e-14
1.00001e-14
1.00001e-14
1.00594e-14
1.01599e-14
1e-14
1.00001e-14
1e-14
1.00001e-14
1.00001e-14
1e-14
1e-14
1e-14
1e-14
1e-14
1.00001e-14
1.0006e-14
1.42729e-14
1.42989e-14
8.34056e-13
1.00001e-14
1e-14
1e-14
1e-14
1e-14
1e-14
1e-14
1e-14
1e-14
1.00004e-14
1.02997e-14
1.00911e-14
1e-14
1.00001e-14
1e-14
1e-14
1.00001e-14
1e-14
1e-14
1.00001e-14
1.00001e-14
1.00004e-14
1.03231e-14
1.00098e-14
2.45348e-14
1e-14
1.00001e-14
1.00001e-14
1e-14
1e-14
1e-14
1.00001e-14
1.0006e-14
1.02988e-14
1.00098e-14
1.95463e-14
1.00001e-14
1.00002e-14
1.00001e-14
1.00001e-14
1.00002e-14
1.00059e-14
1.00594e-14
1.4271e-14
1.00913e-14
2.45077e-14
1.00025e-14
1.00061e-14
1e-14
1.00359e-14
1.00685e-14
1.24065e-14
1.01599e-14
1.42972e-14
1e-14
1.0649e-14
1.17349e-14
1.01763e-14
1e-14
1e-14
1.71716e-14
1e-14
8.34067e-13
1.6588e-14
2.26712e-14
3.28699e-14
1.02891e-14
1e-14
1.00002e-14
1e-14
1e-14
1e-14
1.00001e-14
1.00001e-14
1e-14
1e-14
1e-14
1e-14
1e-14
1.00001e-14
1.00011e-14
1.05594e-14
1.65277e-14
1e-14
1e-14
1e-14
1e-14
1e-14
1e-14
1e-14
1e-14
1e-14
1.00001e-14
1.00001e-14
1.00001e-14
1.0003e-14
1.15697e-14
2.22783e-14
1e-14
1e-14
1e-14
1e-14
1e-14
1e-14
1e-14
1e-14
1e-14
1e-14
1.00001e-14
1.00001e-14
1e-14
1.01451e-14
3.44343e-14
1e-14
1e-14
1e-14
1e-14
1e-14
1.00001e-14
1.00001e-14
1e-14
1e-14
1e-14
1.00001e-14
1.00001e-14
1.00305e-14
1e-14
1.0238e-14
1.00001e-14
1e-14
1e-14
1e-14
1.00001e-14
1.00001e-14
1.00001e-14
1e-14
1e-14
1e-14
1e-14
1.00001e-14
1.00578e-14
1e-14
1e-14
1.00001e-14
1e-14
1e-14
1.00001e-14
1.00001e-14
1e-14
1e-14
1e-14
1e-14
1e-14
1e-14
1.00031e-14
1.22412e-14
1.69559e-14
1e-14
1e-14
1e-14
1.00001e-14
1.00001e-14
1e-14
1e-14
1e-14
1e-14
1e-14
1e-14
1.00527e-14
1.01424e-14
1e-14
1e-14
1e-14
1e-14
1e-14
1e-14
1e-14
1e-14
1e-14
1e-14
1e-14
1.00034e-14
1.39965e-14
1.40991e-14
8.40682e-13
1e-14
1e-14
1e-14
1e-14
1e-14
1e-14
1e-14
1e-14
1e-14
1.00001e-14
1.02675e-14
1.01054e-14
1e-14
1e-14
1.00001e-14
1e-14
1e-14
1e-14
1e-14
1e-14
1e-14
1.00001e-14
1.02915e-14
1e-14
2.66852e-14
1e-14
1.00001e-14
1.00001e-14
1.00001e-14
1e-14
1e-14
1e-14
1.00034e-14
1.02666e-14
1e-14
2.11499e-14
1.00001e-14
1.00001e-14
1.00001e-14
1.00001e-14
1e-14
1.00031e-14
1.00526e-14
1.39952e-14
1.01057e-14
2.66587e-14
1.00011e-14
1.0003e-14
1e-14
1.00305e-14
1.00578e-14
1.2241e-14
1.01424e-14
1.4099e-14
1e-14
1.05588e-14
1.15698e-14
1.01453e-14
1e-14
1e-14
1.69555e-14
1e-14
8.40695e-13
1.65246e-14
2.22726e-14
3.44294e-14
1.02379e-14
1e-14
1e-14
1e-14
1e-14
1e-14
1e-14
1e-14
1e-14
1e-14
1e-14
1e-14
1e-14
1.00001e-14
1e-14
1.05364e-14
1.65936e-14
1e-14
1e-14
1e-14
1e-14
1e-14
1e-14
1e-14
1e-14
1e-14
1e-14
1.00001e-14
1.00001e-14
1.00002e-14
1.15272e-14
2.23238e-14
1e-14
1e-14
1e-14
1e-14
1e-14
1e-14
1e-14
1e-14
1e-14
1e-14
1.00001e-14
1.00001e-14
1e-14
1.0139e-14
3.50055e-14
1e-14
1e-14
1e-14
1e-14
1e-14
1e-14
1e-14
1e-14
1e-14
1.00001e-14
1.00001e-14
1e-14
1.00288e-14
1e-14
1.02343e-14
1e-14
1e-14
1e-14
1e-14
1e-14
1e-14
1e-14
1e-14
1e-14
1e-14
1e-14
1e-14
1.00559e-14
1e-14
1e-14
1e-14
1e-14
1e-14
1e-14
1e-14
1e-14
1e-14
1e-14
1e-14
1e-14
1e-14
1.00014e-14
1.21985e-14
1.69886e-14
1e-14
1e-14
1e-14
1e-14
1e-14
1e-14
1e-14
1e-14
1e-14
1e-14
1e-14
1.0051e-14
1.01377e-14
1e-14
1e-14
1e-14
1e-14
1e-14
1e-14
1e-14
1e-14
1e-14
1e-14
1e-14
1.0002e-14
1.39192e-14
1.40844e-14
8.41614e-13
1e-14
1e-14
1e-14
1e-14
1e-14
1e-14
1e-14
1e-14
1e-14
1e-14
1.02614e-14
1.0106e-14
1e-14
1e-14
1e-14
1e-14
1.00001e-14
1e-14
1e-14
1e-14
1e-14
1e-14
1.02848e-14
1e-14
2.72644e-14
1e-14
1.00001e-14
1.00001e-14
1.00001e-14
1e-14
1e-14
1e-14
1.0002e-14
1.02605e-14
1e-14
2.15546e-14
1.00001e-14
1.00001e-14
1e-14
1e-14
1e-14
1.00014e-14
1.0051e-14
1.39182e-14
1.01063e-14
2.72373e-14
1e-14
1.00003e-14
1e-14
1.00288e-14
1.00559e-14
1.21983e-14
1.01377e-14
1.40841e-14
1e-14
1.05369e-14
1.15281e-14
1.01392e-14
1e-14
1e-14
1.69882e-14
1e-14
8.41624e-13
1.65907e-14
2.23202e-14
3.50021e-14
1.02342e-14
1e-14
1e-14
1e-14
1e-14
1e-14
1e-14
1e-14
1e-14
1.00001e-14
1.00001e-14
1e-14
1e-14
1.00001e-14
1e-14
1.05178e-14
1.6597e-14
1e-14
1e-14
1e-14
1e-14
1e-14
1e-14
1e-14
1e-14
1e-14
1e-14
1e-14
1.00001e-14
1e-14
1.1514e-14
2.23347e-14
1e-14
1e-14
1e-14
1e-14
1e-14
1e-14
1e-14
1e-14
1e-14
1e-14
1.00001e-14
1e-14
1e-14
1.0138e-14
3.52077e-14
1e-14
1e-14
1e-14
1e-14
1e-14
1e-14
1e-14
1e-14
1e-14
1e-14
1e-14
1e-14
1.00281e-14
1e-14
1.02314e-14
1e-14
1e-14
1e-14
1e-14
1e-14
1e-14
1e-14
1e-14
1.00001e-14
1e-14
1e-14
1e-14
1.00551e-14
1e-14
1e-14
1e-14
1e-14
1e-14
1e-14
1e-14
1e-14
1e-14
1e-14
1e-14
1e-14
1e-14
1e-14
1.21839e-14
1.69946e-14
1e-14
1e-14
1e-14
1e-14
1e-14
1e-14
1e-14
1e-14
1e-14
1e-14
1e-14
1.00495e-14
1.01342e-14
1e-14
1.00001e-14
1e-14
1e-14
1e-14
1e-14
1e-14
1e-14
1e-14
1e-14
1e-14
1e-14
1.39202e-14
1.40677e-14
8.41867e-13
1.00001e-14
1e-14
1e-14
1e-14
1.00001e-14
1e-14
1e-14
1e-14
1e-14
1e-14
1.02612e-14
1.01038e-14
1e-14
1e-14
1e-14
1e-14
1e-14
1e-14
1e-14
1e-14
1e-14
1e-14
1.02842e-14
1e-14
2.73191e-14
1e-14
1e-14
1.00001e-14
1e-14
1e-14
1e-14
1e-14
1e-14
1.02603e-14
1e-14
2.15987e-14
1.00001e-14
1.00001e-14
1e-14
1e-14
1e-14
1e-14
1.00495e-14
1.3919e-14
1.01041e-14
2.72921e-14
1e-14
1e-14
1e-14
1.00281e-14
1.00551e-14
1.21837e-14
1.01342e-14
1.40674e-14
1e-14
1.05184e-14
1.15155e-14
1.01382e-14
1e-14
1e-14
1.69943e-14
1e-14
8.41877e-13
1.65976e-14
2.23389e-14
3.52056e-14
1.02312e-14
1e-14
1e-14
1e-14
1e-14
1e-14
1e-14
1.00001e-14
1.00001e-14
1.00001e-14
1.00001e-14
1e-14
1e-14
1.00001e-14
1e-14
1.05876e-14
1.65766e-14
1e-14
1e-14
1e-14
1e-14
1e-14
1e-14
1e-14
1e-14
1e-14
1e-14
1e-14
1e-14
1e-14
1.16035e-14
2.23538e-14
1e-14
1e-14
1e-14
1e-14
1e-14
1e-14
1e-14
1e-14
1e-14
1e-14
1e-14
1e-14
1e-14
1.01456e-14
3.56259e-14
1e-14
1e-14
1e-14
1e-14
1e-14
1e-14
1e-14
1e-14
1e-14
1e-14
1e-14
1e-14
1.00282e-14
1e-14
1.02221e-14
1e-14
1e-14
1e-14
1e-14
1e-14
1e-14
1e-14
1e-14
1e-14
1e-14
1e-14
1e-14
1.00619e-14
1e-14
1e-14
1.00001e-14
1e-14
1e-14
1e-14
1e-14
1e-14
1e-14
1e-14
1e-14
1e-14
1e-14
1e-14
1.22309e-14
1.69832e-14
1.00001e-14
1e-14
1e-14
1e-14
1e-14
1e-14
1e-14
1e-14
1e-14
1e-14
1e-14
1.00481e-14
1.01327e-14
1e-14
1.00001e-14
1e-14
1e-14
1e-14
1e-14
1e-14
1e-14
1e-14
1e-14
1.00001e-14
1e-14
1.38188e-14
1.40111e-14
8.419e-13
1e-14
1e-14
1e-14
1e-14
1e-14
1e-14
1e-14
1e-14
1.00001e-14
1e-14
1.02548e-14
1.00913e-14
1e-14
1e-14
1e-14
1e-14
1e-14
1e-14
1e-14
1e-14
1.00001e-14
1e-14
1.02813e-14
1e-14
2.72681e-14
1e-14
1e-14
1e-14
1e-14
1e-14
1e-14
1e-14
1e-14
1.0254e-14
1e-14
2.15773e-14
1.00001e-14
1e-14
1e-14
1e-14
1e-14
1e-14
1.00481e-14
1.38178e-14
1.00916e-14
2.7241e-14
1e-14
1e-14
1e-14
1.00282e-14
1.00619e-14
1.22307e-14
1.01327e-14
1.40108e-14
1e-14
1.0588e-14
1.16043e-14
1.01458e-14
1e-14
1e-14
1.69828e-14
1e-14
8.41909e-13
1.65736e-14
2.23595e-14
3.56235e-14
1.0222e-14
1e-14
1e-14
1e-14
1e-14
1e-14
1e-14
1.00001e-14
1.00001e-14
1e-14
1e-14
1e-14
1.00001e-14
1.00002e-14
1e-14
1.03744e-14
1.62911e-14
1e-14
1e-14
1e-14
1e-14
1e-14
1e-14
1e-14
1e-14
1e-14
1e-14
1e-14
1e-14
1e-14
1.14172e-14
2.22855e-14
1e-14
1e-14
1e-14
1e-14
1e-14
1e-14
1e-14
1e-14
1e-14
1e-14
1e-14
1e-14
1e-14
1.01436e-14
3.73431e-14
1e-14
1e-14
1e-14
1e-14
1e-14
1e-14
1e-14
1e-14
1e-14
1e-14
1.00001e-14
1e-14
1.00256e-14
1e-14
1.01793e-14
1e-14
1e-14
1e-14
1e-14
1e-14
1e-14
1e-14
1e-14
1e-14
1e-14
1e-14
1e-14
1.00417e-14
1e-14
1e-14
1.00001e-14
1e-14
1e-14
1e-14
1e-14
1.00001e-14
1e-14
1e-14
1e-14
1.00001e-14
1e-14
1e-14
1.20585e-14
1.68335e-14
1.00001e-14
1e-14
1e-14
1e-14
1e-14
1e-14
1e-14
1e-14
1.00001e-14
1e-14
1e-14
1.0042e-14
1.01164e-14
1e-14
1e-14
1e-14
1e-14
1e-14
1e-14
1e-14
1e-14
1.00001e-14
1.00001e-14
1e-14
1e-14
1.40618e-14
1.38938e-14
8.41229e-13
1e-14
1e-14
1e-14
1e-14
1e-14
1e-14
1.00001e-14
1.00001e-14
1e-14
1e-14
1.02972e-14
1.01222e-14
1e-14
1e-14
1e-14
1e-14
1e-14
1e-14
1.00001e-14
1e-14
1e-14
1e-14
1.03014e-14
1e-14
2.71882e-14
1.00001e-14
1e-14
1e-14
1e-14
1e-14
1e-14
1e-14
1e-14
1.02962e-14
1e-14
2.16276e-14
1.00002e-14
1e-14
1e-14
1e-14
1e-14
1e-14
1.0042e-14
1.4061e-14
1.01225e-14
2.71598e-14
1e-14
1e-14
1e-14
1.00256e-14
1.00417e-14
1.20583e-14
1.01164e-14
1.38934e-14
1e-14
1.03746e-14
1.14173e-14
1.01436e-14
1e-14
1e-14
1.68332e-14
1e-14
8.41236e-13
1.62905e-14
2.22876e-14
3.73403e-14
1.01791e-14
1e-14
1e-14
1e-14
1.00001e-14
1.00002e-14
1.00002e-14
1.00002e-14
1.00001e-14
1e-14
1.00001e-14
1e-14
1.00001e-14
1.00001e-14
1e-14
1.12767e-14
1.22768e-14
1e-14
1e-14
1e-14
1e-14
1e-14
1e-14
1e-14
1e-14
1e-14
1.00001e-14
1e-14
1e-14
1e-14
1.27443e-14
2.07355e-14
1.00001e-14
1e-14
1e-14
1e-14
1e-14
1e-14
1e-14
1.00001e-14
1e-14
1.00001e-14
1.00001e-14
1e-14
1e-14
1.03358e-14
3.835e-14
1.00002e-14
1e-14
1e-14
1.00001e-14
1e-14
1e-14
1.00001e-14
1e-14
1e-14
1.00001e-14
1e-14
1e-14
1.00353e-14
1e-14
1e-14
1.00002e-14
1e-14
1e-14
1e-14
1.00001e-14
1.00001e-14
1e-14
1e-14
1e-14
1e-14
1e-14
1e-14
1.01323e-14
1e-14
1e-14
1.00002e-14
1e-14
1e-14
1e-14
1.00001e-14
1e-14
1e-14
1e-14
1.00001e-14
1e-14
1e-14
1e-14
1.30462e-14
1.60939e-14
1.00001e-14
1e-14
1e-14
1.00001e-14
1e-14
1e-14
1e-14
1.00001e-14
1e-14
1e-14
1e-14
1.00393e-14
1.01795e-14
1e-14
1e-14
1e-14
1.00001e-14
1e-14
1e-14
1e-14
1.00001e-14
1.00001e-14
1.00001e-14
1e-14
1e-14
1.39905e-14
1.45875e-14
8.27486e-13
1.00001e-14
1e-14
1e-14
1e-14
1e-14
1.00001e-14
1e-14
1.00001e-14
1e-14
1e-14
1.01465e-14
1.01134e-14
1e-14
1e-14
1.00001e-14
1.00001e-14
1.00001e-14
1e-14
1e-14
1e-14
1e-14
1e-14
1.02116e-14
1.00062e-14
2.86825e-14
1.00001e-14
1e-14
1.00001e-14
1e-14
1e-14
1e-14
1e-14
1e-14
1.01459e-14
1.00062e-14
2.72152e-14
1.00001e-14
1e-14
1e-14
1e-14
1e-14
1e-14
1.00393e-14
1.39901e-14
1.01137e-14
2.86457e-14
1e-14
1e-14
1e-14
1.00353e-14
1.01323e-14
1.3046e-14
1.01795e-14
1.45873e-14
1e-14
1.12768e-14
1.27448e-14
1.03359e-14
1e-14
1e-14
1.60937e-14
1e-14
8.27492e-13
1.22767e-14
2.0736e-14
3.83483e-14
1e-14
1e-14
1e-14
1e-14
1e-14
1.00001e-14
1.00001e-14
1.00002e-14
1e-14
1e-14
1.00001e-14
1.00001e-14
1.00001e-14
1.00001e-14
1e-14
1.0412e-14
1e-14
1e-14
1e-14
1e-14
1e-14
1e-14
1.00001e-14
1e-14
1e-14
1.00001e-14
1.00001e-14
1e-14
1e-14
1e-14
1.06542e-14
1.04441e-14
1e-14
1e-14
1e-14
1e-14
1e-14
1e-14
1e-14
1e-14
1e-14
1.00001e-14
1e-14
1e-14
1.00001e-14
1e-14
2.32695e-14
1.00001e-14
1e-14
1e-14
1e-14
1.00001e-14
1e-14
1e-14
1e-14
1e-14
1e-14
1e-14
1e-14
1.0008e-14
1.00476e-14
1.05828e-14
1.00001e-14
1e-14
1e-14
1.00001e-14
1.00001e-14
1e-14
1e-14
1e-14
1e-14
1e-14
1e-14
1e-14
1.00368e-14
1.0249e-14
1e-14
1.00002e-14
1.00001e-14
1e-14
1e-14
1e-14
1e-14
1.00001e-14
1e-14
1e-14
1e-14
1e-14
1e-14
1.05101e-14
1e-14
1e-14
1e-14
1e-14
1e-14
1e-14
1.00001e-14
1e-14
1e-14
1e-14
1e-14
1e-14
1.00059e-14
1.00015e-14
1.13758e-14
1e-14
1e-14
1e-14
1e-14
1e-14
1e-14
1e-14
1e-14
1e-14
1e-14
1e-14
1.0674e-14
1e-14
1e-14
1.00001e-14
1.00001e-14
1e-14
1e-14
1e-14
1e-14
1e-14
1e-14
1e-14
1e-14
1.00199e-14
1e-14
1e-14
1.00001e-14
1.00001e-14
1.00001e-14
1e-14
1e-14
1e-14
1e-14
1e-14
1e-14
1.00341e-14
1.00306e-14
1.93612e-14
1.00001e-14
1e-14
1e-14
1e-14
1e-14
1e-14
1e-14
1e-14
1.00198e-14
1.00306e-14
1.55533e-14
1.00001e-14
1e-14
1e-14
1e-14
1e-14
1e-14
1.00059e-14
1.0674e-14
1e-14
1.93585e-14
1e-14
1e-14
1.00001e-14
1.0008e-14
1.00368e-14
1.05101e-14
1.00015e-14
1e-14
1e-14
1.04121e-14
1.06543e-14
1e-14
1.00476e-14
1.02486e-14
1e-14
1.13758e-14
1e-14
1e-14
1.04449e-14
2.32695e-14
1.0583e-14
1e-14
1e-14
1e-14
1e-14
1e-14
1.00001e-14
1.00001e-14
1e-14
1e-14
1e-14
1.00001e-14
1.00001e-14
1.00001e-14
1e-14
1.01034e-14
1e-14
1e-14
1e-14
1e-14
1e-14
1e-14
1e-14
1e-14
1e-14
1e-14
1e-14
1e-14
1e-14
1e-14
1.01592e-14
1e-14
1e-14
1e-14
1e-14
1e-14
1.00001e-14
1e-14
1e-14
1e-14
1e-14
1e-14
1e-14
1e-14
1e-14
1e-14
1.05494e-14
1e-14
1e-14
1e-14
1.00001e-14
1.00001e-14
1e-14
1e-14
1e-14
1e-14
1e-14
1e-14
1e-14
1.00019e-14
1.00057e-14
1.006e-14
1.00001e-14
1e-14
1.00001e-14
1.00001e-14
1e-14
1e-14
1e-14
1e-14
1e-14
1e-14
1e-14
1e-14
1.00091e-14
1e-14
1.00208e-14
1.00001e-14
1e-14
1e-14
1e-14
1e-14
1e-14
1e-14
1e-14
1e-14
1e-14
1e-14
1e-14
1.01033e-14
1e-14
1e-14
1e-14
1e-14
1e-14
1e-14
1e-14
1e-14
1e-14
1e-14
1e-14
1e-14
1.00008e-14
1.0005e-14
1.00237e-14
1e-14
1e-14
1e-14
1e-14
1e-14
1e-14
1e-14
1e-14
1e-14
1.00001e-14
1e-14
1.01301e-14
1.00006e-14
1e-14
1e-14
1e-14
1e-14
1e-14
1e-14
1e-14
1e-14
1.00001e-14
1e-14
1.0002e-14
1.00049e-14
1.00123e-14
1.00001e-14
1e-14
1e-14
1e-14
1e-14
1e-14
1e-14
1.00001e-14
1e-14
1.00048e-14
1.00008e-14
1.01441e-14
1.00001e-14
1e-14
1e-14
1e-14
1e-14
1e-14
1e-14
1e-14
1.0002e-14
1.00008e-14
1.00795e-14
1.00001e-14
1e-14
1e-14
1e-14
1e-14
1e-14
1.00008e-14
1.01301e-14
1.00049e-14
1.01439e-14
1e-14
1e-14
1e-14
1.00019e-14
1.00091e-14
1.01033e-14
1.0005e-14
1.00006e-14
1.00123e-14
1.01034e-14
1.01593e-14
1e-14
1.00057e-14
1e-14
1e-14
1.00237e-14
1e-14
1e-14
1.05494e-14
1.006e-14
1.00208e-14
1e-14
1e-14
1e-14
1.00001e-14
1.00001e-14
1e-14
1e-14
1e-14
1e-14
1e-14
1e-14
1e-14
1e-14
1.0022e-14
1.00011e-14
1e-14
1e-14
1e-14
1e-14
1e-14
1e-14
1e-14
1e-14
1e-14
1e-14
1e-14
1e-14
1e-14
1.00344e-14
1.00025e-14
1e-14
1e-14
1e-14
1.00001e-14
1e-14
1e-14
1e-14
1e-14
1e-14
1e-14
1e-14
1e-14
1e-14
1.00002e-14
1.00102e-14
1.00001e-14
1e-14
1.00001e-14
1.00001e-14
1e-14
1e-14
1e-14
1e-14
1e-14
1e-14
1e-14
1e-14
1.00004e-14
1.00003e-14
1.00007e-14
1.00001e-14
1e-14
1e-14
1e-14
1e-14
1e-14
1e-14
1e-14
1e-14
1e-14
1e-14
1e-14
1.00018e-14
1e-14
1.00002e-14
1e-14
1e-14
1e-14
1e-14
1e-14
1e-14
1e-14
1e-14
1e-14
1e-14
1e-14
1e-14
1.00183e-14
1.00014e-14
1e-14
1e-14
1e-14
1e-14
1e-14
1e-14
1e-14
1e-14
1e-14
1e-14
1e-14
1.00001e-14
1.00009e-14
1.00002e-14
1e-14
1e-14
1e-14
1e-14
1e-14
1e-14
1e-14
1e-14
1e-14
1e-14
1e-14
1.00219e-14
1.00016e-14
1e-14
1e-14
1e-14
1e-14
1e-14
1e-14
1e-14
1e-14
1e-14
1e-14
1.00002e-14
1.00015e-14
1.00002e-14
1e-14
1e-14
1e-14
1e-14
1e-14
1e-14
1e-14
1e-14
1e-14
1.00006e-14
1.00003e-14
1.00013e-14
1e-14
1e-14
1e-14
1e-14
1e-14
1e-14
1e-14
1e-14
1.00002e-14
1.00003e-14
1.00007e-14
1e-14
1e-14
1e-14
1e-14
1e-14
1e-14
1.00001e-14
1.00219e-14
1.00016e-14
1.00013e-14
1e-14
1e-14
1e-14
1.00004e-14
1.00018e-14
1.00183e-14
1.00009e-14
1.00016e-14
1.00002e-14
1.0022e-14
1.00344e-14
1.00002e-14
1.00003e-14
1e-14
1.00014e-14
1.00002e-14
1.00011e-14
1.00025e-14
1.00102e-14
1.00007e-14
1.00002e-14
1e-14
1e-14
1e-14
1e-14
1e-14
1e-14
1e-14
1e-14
1e-14
1e-14
1e-14
1e-14
1e-14
1.00041e-14
1.00002e-14
1e-14
1.00001e-14
1.00001e-14
1.00001e-14
1e-14
1e-14
1e-14
1e-14
1e-14
1e-14
1e-14
1e-14
1e-14
1.00065e-14
1.00003e-14
1e-14
1.00001e-14
1.00001e-14
1.00001e-14
1e-14
1e-14
1e-14
1e-14
1e-14
1e-14
1e-14
1e-14
1e-14
1.00001e-14
1.00001e-14
1e-14
1.00001e-14
1.00001e-14
1e-14
1e-14
1e-14
1e-14
1e-14
1e-14
1e-14
1e-14
1e-14
1.00001e-14
1e-14
1e-14
1e-14
1e-14
1e-14
1e-14
1e-14
1e-14
1e-14
1e-14
1e-14
1e-14
1e-14
1e-14
1.00003e-14
1e-14
1e-14
1e-14
1e-14
1e-14
1e-14
1e-14
1e-14
1e-14
1e-14
1e-14
1e-14
1e-14
1e-14
1.00028e-14
1.00004e-14
1e-14
1e-14
1e-14
1e-14
1e-14
1e-14
1e-14
1e-14
1e-14
1e-14
1e-14
1e-14
1.00001e-14
1.00001e-14
1e-14
1e-14
1e-14
1e-14
1e-14
1e-14
1e-14
1e-14
1e-14
1e-14
1e-14
1.00031e-14
1.00002e-14
1e-14
1e-14
1e-14
1e-14
1e-14
1e-14
1e-14
1e-14
1e-14
1e-14
1e-14
1.00001e-14
1.00001e-14
1e-14
1e-14
1e-14
1e-14
1e-14
1e-14
1e-14
1e-14
1e-14
1.00001e-14
1e-14
1.00001e-14
1e-14
1e-14
1e-14
1e-14
1e-14
1e-14
1e-14
1e-14
1e-14
1e-14
1e-14
1e-14
1e-14
1e-14
1e-14
1e-14
1e-14
1e-14
1.00031e-14
1.00001e-14
1.00001e-14
1e-14
1e-14
1e-14
1.00001e-14
1.00003e-14
1.00028e-14
1.00001e-14
1.00002e-14
1.00001e-14
1.00041e-14
1.00065e-14
1.00001e-14
1e-14
1e-14
1.00004e-14
1.00001e-14
1.00002e-14
1.00003e-14
1.00001e-14
1e-14
1e-14
1e-14
1.00001e-14
1.00001e-14
1e-14
1e-14
1.00001e-14
1e-14
1e-14
1e-14
1e-14
1e-14
1e-14
1e-14
1.00007e-14
1e-14
1.00001e-14
1.00001e-14
1.00001e-14
1.00001e-14
1e-14
1e-14
1e-14
1e-14
1e-14
1e-14
1e-14
1e-14
1e-14
1.00011e-14
1.00001e-14
1.00001e-14
1.00001e-14
1.00001e-14
1e-14
1e-14
1e-14
1e-14
1e-14
1e-14
1e-14
1e-14
1e-14
1e-14
1e-14
1e-14
1e-14
1.00001e-14
1e-14
1e-14
1e-14
1e-14
1e-14
1e-14
1e-14
1e-14
1e-14
1e-14
1e-14
1e-14
1e-14
1e-14
1e-14
1e-14
1e-14
1e-14
1e-14
1e-14
1e-14
1e-14
1e-14
1e-14
1e-14
1e-14
1e-14
1e-14
1e-14
1e-14
1e-14
1e-14
1e-14
1e-14
1e-14
1e-14
1e-14
1e-14
1e-14
1e-14
1.00004e-14
1.00001e-14
1e-14
1e-14
1e-14
1e-14
1e-14
1e-14
1e-14
1e-14
1e-14
1e-14
1e-14
1e-14
1e-14
1e-14
1e-14
1e-14
1e-14
1e-14
1e-14
1e-14
1e-14
1e-14
1e-14
1e-14
1e-14
1.00003e-14
1.00004e-14
1e-14
1e-14
1e-14
1e-14
1e-14
1e-14
1e-14
1e-14
1e-14
1e-14
1e-14
1e-14
1e-14
1e-14
1e-14
1e-14
1e-14
1e-14
1e-14
1e-14
1e-14
1e-14
1e-14
1e-14
1.00002e-14
1e-14
1e-14
1e-14
1e-14
1e-14
1e-14
1e-14
1e-14
1e-14
1e-14
1e-14
1e-14
1e-14
1e-14
1e-14
1e-14
1e-14
1e-14
1.00003e-14
1e-14
1.00002e-14
1e-14
1e-14
1e-14
1e-14
1e-14
1.00004e-14
1e-14
1.00003e-14
1e-14
1.00007e-14
1.00011e-14
1e-14
1e-14
1e-14
1.00001e-14
1e-14
1e-14
1.00001e-14
1e-14
1e-14
1e-14
1.00002e-14
1.00002e-14
1.00001e-14
1e-14
1e-14
1e-14
1e-14
1e-14
1e-14
1e-14
1.00001e-14
1.00001e-14
1e-14
1.00001e-14
1e-14
1.00002e-14
1.00001e-14
1.00001e-14
1e-14
1e-14
1e-14
1e-14
1e-14
1e-14
1.00001e-14
1e-14
1e-14
1e-14
1.00002e-14
1e-14
1.00001e-14
1.00001e-14
1e-14
1e-14
1e-14
1e-14
1e-14
1e-14
1.00001e-14
1e-14
1e-14
1e-14
1e-14
1e-14
1e-14
1e-14
1e-14
1e-14
1e-14
1e-14
1e-14
1e-14
1e-14
1e-14
1e-14
1e-14
1e-14
1e-14
1e-14
1e-14
1e-14
1e-14
1e-14
1e-14
1e-14
1e-14
1e-14
1e-14
1e-14
1e-14
1e-14
1e-14
1e-14
1e-14
1.00001e-14
1e-14
1e-14
1e-14
1e-14
1e-14
1e-14
1e-14
1e-14
1e-14
1e-14
1e-14
1e-14
1e-14
1.00003e-14
1e-14
1e-14
1e-14
1e-14
1e-14
1e-14
1e-14
1e-14
1e-14
1.00001e-14
1e-14
1e-14
1e-14
1e-14
1e-14
1e-14
1e-14
1e-14
1e-14
1e-14
1e-14
1e-14
1e-14
1e-14
1e-14
1e-14
1.00001e-14
1e-14
1e-14
1.00001e-14
1e-14
1e-14
1e-14
1e-14
1e-14
1e-14
1e-14
1e-14
1.00001e-14
1e-14
1e-14
1.00001e-14
1e-14
1e-14
1e-14
1e-14
1.00001e-14
1e-14
1e-14
1e-14
1e-14
1.00002e-14
1.00001e-14
1e-14
1e-14
1e-14
1e-14
1e-14
1e-14
1e-14
1e-14
1e-14
1e-14
1.00001e-14
1e-14
1e-14
1e-14
1e-14
1e-14
1e-14
1e-14
1.00001e-14
1.00002e-14
1e-14
1e-14
1e-14
1e-14
1e-14
1e-14
1e-14
1.00001e-14
1e-14
1.00001e-14
1.00002e-14
1e-14
1e-14
1e-14
1.00003e-14
1e-14
1e-14
1e-14
1e-14
1e-14
1.00001e-14
1e-14
1.00002e-14
1.00001e-14
1.00001e-14
1e-14
1e-14
1e-14
1e-14
1.00001e-14
1.00002e-14
1.00002e-14
1e-14
1e-14
1e-14
1.00001e-14
1.00002e-14
1.00001e-14
1e-14
1e-14
1e-14
1e-14
1e-14
1e-14
1.00001e-14
1e-14
1e-14
1e-14
1e-14
1e-14
1e-14
1.00001e-14
1e-14
1e-14
1e-14
1e-14
1e-14
1e-14
1.00001e-14
1.00001e-14
1e-14
1e-14
1e-14
1e-14
1e-14
1.00001e-14
1.00001e-14
1e-14
1e-14
1e-14
1e-14
1e-14
1.00001e-14
1.00001e-14
1e-14
1e-14
1e-14
1e-14
1e-14
1e-14
1e-14
1e-14
1e-14
1e-14
1e-14
1e-14
1e-14
1e-14
1e-14
1e-14
1e-14
1e-14
1e-14
1e-14
1e-14
1.00001e-14
1e-14
1e-14
1e-14
1e-14
1e-14
1e-14
1e-14
1e-14
1e-14
1e-14
1e-14
1e-14
1e-14
1.00003e-14
1e-14
1e-14
1e-14
1.00001e-14
1e-14
1e-14
1e-14
1e-14
1e-14
1.00001e-14
1e-14
1e-14
1.00003e-14
1e-14
1e-14
1e-14
1.00001e-14
1.00001e-14
1e-14
1e-14
1e-14
1e-14
1e-14
1e-14
1e-14
1e-14
1.00004e-14
1.00001e-14
1.00001e-14
1.00001e-14
1e-14
1e-14
1e-14
1e-14
1e-14
1e-14
1e-14
1e-14
1e-14
1e-14
1.00002e-14
1e-14
1e-14
1e-14
1e-14
1e-14
1.00001e-14
1e-14
1e-14
1e-14
1.00001e-14
1.00004e-14
1.00002e-14
1e-14
1e-14
1e-14
1e-14
1e-14
1e-14
1e-14
1e-14
1.00001e-14
1e-14
1e-14
1e-14
1e-14
1e-14
1e-14
1e-14
1e-14
1e-14
1e-14
1.00004e-14
1e-14
1e-14
1e-14
1e-14
1e-14
1e-14
1.00003e-14
1.00004e-14
1e-14
1e-14
1.00001e-14
1e-14
1e-14
1e-14
1.00003e-14
1e-14
1.00002e-14
1e-14
1e-14
1e-14
1.00001e-14
1e-14
1.00002e-14
1.00001e-14
1.00001e-14
1e-14
1e-14
1e-14
1e-14
1e-14
1.00001e-14
1.00001e-14
1e-14
1e-14
1e-14
1e-14
1.00002e-14
1.00001e-14
1e-14
1e-14
1e-14
1e-14
1e-14
1e-14
1.00001e-14
1e-14
1e-14
1e-14
1e-14
1e-14
1.00001e-14
1.00001e-14
1e-14
1e-14
1e-14
1e-14
1e-14
1.00001e-14
1.00001e-14
1e-14
1e-14
1e-14
1e-14
1e-14
1e-14
1e-14
1.00001e-14
1e-14
1e-14
1e-14
1e-14
1.00001e-14
1.00001e-14
1e-14
1e-14
1e-14
1e-14
1e-14
1e-14
1e-14
1e-14
1e-14
1e-14
1e-14
1e-14
1.00001e-14
1e-14
1e-14
1e-14
1e-14
1e-14
1e-14
1e-14
1e-14
1e-14
1e-14
1e-14
1e-14
1e-14
1.00001e-14
1e-14
1e-14
1e-14
1e-14
1e-14
1.00001e-14
1e-14
1e-14
1e-14
1.00004e-14
1e-14
1e-14
1.00001e-14
1.00001e-14
1e-14
1e-14
1e-14
1e-14
1e-14
1e-14
1e-14
1e-14
1e-14
1e-14
1e-14
1e-14
1.00001e-14
1e-14
1e-14
1e-14
1e-14
1e-14
1e-14
1e-14
1e-14
1.00001e-14
1.00002e-14
1e-14
1.00001e-14
1e-14
1e-14
1e-14
1e-14
1e-14
1e-14
1e-14
1e-14
1.00001e-14
1.00001e-14
1e-14
1.00001e-14
1e-14
1e-14
1e-14
1e-14
1.00001e-14
1e-14
1e-14
1e-14
1e-14
1.00001e-14
1.00001e-14
1.00001e-14
1e-14
1e-14
1e-14
1e-14
1e-14
1e-14
1e-14
1.00001e-14
1.00001e-14
1.00001e-14
1e-14
1e-14
1e-14
1e-14
1e-14
1e-14
1e-14
1.00001e-14
1.00001e-14
1.00001e-14
1e-14
1e-14
1e-14
1e-14
1e-14
1e-14
1e-14
1.00002e-14
1e-14
1e-14
1e-14
1e-14
1e-14
1e-14
1.00004e-14
1e-14
1e-14
1.00001e-14
1e-14
1e-14
1e-14
2.49163e-14
5.59628e-13
2.72831e-14
5.9811e-13
3.20562e-14
6.33012e-13
4.44775e-14
8.05488e-14
1.421e-14
1.07344e-14
9.86786e-14
1.28582e-14
5.1552e-14
1.0209e-14
5.42702e-14
1.23931e-13
1.32029e-12
2.19553e-14
3.78484e-13
7.05257e-14
1.02176e-14
1.78726e-14
1.24107e-14
5.6769e-14
1.21995e-14
4.94293e-13
1.63354e-14
1.44843e-13
1.22791e-13
1.13329e-12
1.04912e-14
3.58206e-14
1.89484e-14
4.80627e-13
1e-14
1.01772e-13
1.17468e-12
1.14373e-12
9.21788e-14
1.16803e-12
1.16429e-12
1.04905e-14
1.8941e-14
3.58153e-14
4.80664e-13
1.01666e-13
1.14203e-12
1.17459e-12
1.02176e-14
1.24092e-14
1.78718e-14
5.6763e-14
1.63316e-14
1.22763e-13
1.44835e-13
1e-14
1.28578e-14
1.0209e-14
5.15489e-14
5.42676e-14
2.19545e-14
7.05229e-14
3.78479e-13
1.21998e-14
4.94281e-13
1.13329e-12
2.49132e-14
2.72563e-14
5.59861e-13
5.98045e-13
3.20435e-14
4.44835e-14
6.32956e-13
8.05551e-14
1.42096e-14
1.07343e-14
9.86815e-14
1.23925e-13
1.32029e-12
4.05115e-13
1.77109e-14
4.22809e-13
2.31499e-14
5.51402e-13
2.53162e-14
5.89569e-13
4.51636e-13
1.44434e-14
2.94505e-14
6.24518e-13
4.00416e-14
1e-14
7.14765e-14
1.32688e-14
1e-14
1.07961e-14
9.20833e-14
3.79509e-14
1.02433e-14
1e-14
1.20245e-14
4.64312e-14
1.02011e-14
5.07233e-14
1.16899e-12
1.18182e-13
1.31186e-12
2.78162e-13
2.54615e-14
2.05198e-14
3.75176e-13
6.48717e-14
1.1118e-14
1e-14
3.7388e-14
1.01282e-14
1.66403e-14
1.19629e-14
5.1558e-14
1.22214e-13
1.27576e-14
4.94422e-13
1e-14
3.15496e-14
1.56064e-14
1.3725e-13
1.11597e-13
1.1273e-12
1.93619e-14
1.30898e-14
3.43353e-13
1.02988e-14
3.37729e-14
1.73535e-14
4.72782e-13
1e-14
8.95328e-13
3.55374e-13
9.1088e-14
1.16185e-12
1.15375e-12
4.18065e-13
4.17519e-13
8.1933e-14
1.17471e-12
1.17077e-12
1.30908e-14
1.93607e-14
3.43352e-13
1.02982e-14
1.73438e-14
3.37687e-14
4.72805e-13
3.55947e-13
8.95413e-13
9.09903e-14
1.15212e-12
1.16178e-12
1e-14
1.1118e-14
3.73857e-14
1.01282e-14
1.19624e-14
1.66398e-14
5.15542e-14
3.15581e-14
1e-14
1.56074e-14
1.11575e-13
1.37252e-13
1e-14
1.02432e-14
3.79503e-14
1e-14
1.20241e-14
1.0201e-14
4.64288e-14
5.07198e-14
2.54602e-14
2.78163e-13
2.05191e-14
6.4869e-14
3.75175e-13
1.22233e-13
1.27575e-14
4.9442e-13
1.1273e-12
1.77019e-14
4.05353e-13
4.22905e-13
2.31484e-14
2.52942e-14
5.51635e-13
5.89522e-13
1.44438e-14
4.51711e-13
2.94401e-14
4.00478e-14
6.24476e-13
1e-14
7.14809e-14
1.32685e-14
1e-14
1.07958e-14
9.20855e-14
1.16898e-12
1.1818e-13
1.31188e-12
4.05357e-13
1.76237e-14
4.23391e-13
2.2953e-14
5.50898e-13
2.51161e-14
5.88938e-13
4.53265e-13
1.43425e-14
2.92479e-14
6.24266e-13
3.93741e-14
1e-14
7.02432e-14
1.31723e-14
1e-14
1.07474e-14
9.18708e-14
3.72676e-14
1.02587e-14
1e-14
1.18791e-14
4.58484e-14
1.01872e-14
4.96836e-14
1.16313e-12
1.18449e-13
1.31186e-12
2.79438e-13
2.54134e-14
2.03701e-14
3.75309e-13
6.46146e-14
1.09584e-14
1e-14
3.76408e-14
1.01213e-14
1.66641e-14
1.18284e-14
5.15962e-14
1.30121e-13
1.31844e-14
4.92465e-13
1e-14
3.37127e-14
1.54991e-14
1.395e-13
1.10358e-13
1.12806e-12
1.91782e-14
1.2821e-14
3.44882e-13
1.03045e-14
3.40257e-14
1.70802e-14
4.73148e-13
1e-14
8.97268e-13
3.75858e-13
8.91235e-14
1.16345e-12
1.14896e-12
4.3937e-13
4.38786e-13
8.0393e-14
1.17019e-12
1.16629e-12
1.2822e-14
1.91771e-14
3.44877e-13
1.03037e-14
1.7071e-14
3.40221e-14
4.73167e-13
3.76402e-13
8.9732e-13
8.9031e-14
1.14737e-12
1.16339e-12
1e-14
1.09584e-14
3.76391e-14
1.01213e-14
1.18279e-14
1.66635e-14
5.15927e-14
3.37104e-14
1e-14
1.5499e-14
1.10346e-13
1.39503e-13
1e-14
1.02587e-14
3.72672e-14
1e-14
1.18787e-14
1.01872e-14
4.5846e-14
4.96825e-14
2.54123e-14
2.79442e-13
2.03696e-14
6.4612e-14
3.75305e-13
1.30137e-13
1.31841e-14
4.92465e-13
1.12808e-12
1.76165e-14
4.05591e-13
4.23489e-13
2.29526e-14
2.50991e-14
5.51128e-13
5.88911e-13
1.4343e-14
4.53334e-13
2.92404e-14
3.93822e-14
6.24241e-13
1e-14
7.02469e-14
1.31721e-14
1e-14
1.07472e-14
9.18734e-14
1.16313e-12
1.18448e-13
1.31185e-12
4.05747e-13
1.76924e-14
4.23715e-13
2.29794e-14
5.50861e-13
2.51544e-14
5.88934e-13
4.53809e-13
1.43399e-14
2.93071e-14
6.24374e-13
3.93629e-14
1e-14
7.0328e-14
1.31588e-14
1e-14
1.07349e-14
9.17857e-14
3.74038e-14
1.02643e-14
1e-14
1.18625e-14
4.58833e-14
1.01847e-14
4.943e-14
1.16065e-12
1.18604e-13
1.31199e-12
2.7961e-13
2.55918e-14
2.04059e-14
3.75601e-13
6.4685e-14
1.09664e-14
1e-14
3.79775e-14
1.0116e-14
1.67112e-14
1.18004e-14
5.17311e-14
1.29902e-13
1.32779e-14
4.91615e-13
1e-14
3.42257e-14
1.54864e-14
1.40759e-13
1.102e-13
1.12828e-12
1.92503e-14
1.27788e-14
3.45251e-13
1.02973e-14
3.41087e-14
1.70605e-14
4.73316e-13
1e-14
8.96788e-13
3.75937e-13
8.88327e-14
1.16369e-12
1.14802e-12
4.3984e-13
4.39288e-13
8.01546e-14
1.16915e-12
1.16525e-12
1.278e-14
1.92495e-14
3.45241e-13
1.02965e-14
1.70515e-14
3.41053e-14
4.73332e-13
3.76501e-13
8.96842e-13
8.87409e-14
1.14641e-12
1.16363e-12
1e-14
1.09663e-14
3.79758e-14
1.0116e-14
1.18e-14
1.67107e-14
5.17286e-14
3.42248e-14
1e-14
1.5486e-14
1.1019e-13
1.40764e-13
1e-14
1.02643e-14
3.74036e-14
1e-14
1.18621e-14
1.01847e-14
4.58806e-14
4.94282e-14
2.55906e-14
2.79613e-13
2.04054e-14
6.46828e-14
3.75599e-13
1.2992e-13
1.32781e-14
4.91614e-13
1.12827e-12
1.76868e-14
4.05978e-13
4.23827e-13
2.29832e-14
2.51526e-14
5.51103e-13
5.88953e-13
1.43416e-14
4.53882e-13
2.93092e-14
3.93757e-14
6.24383e-13
1e-14
7.03299e-14
1.31588e-14
1e-14
1.07349e-14
9.17871e-14
1.16066e-12
1.18603e-13
1.31199e-12
4.05592e-13
1.76998e-14
4.23576e-13
2.30321e-14
5.50929e-13
2.52287e-14
5.89091e-13
4.53676e-13
1.42598e-14
2.94377e-14
6.24495e-13
3.95805e-14
1e-14
7.07127e-14
1.31541e-14
1e-14
1.07463e-14
9.16296e-14
3.7498e-14
1.02626e-14
1e-14
1.1854e-14
4.59852e-14
1.01825e-14
4.90703e-14
1.15997e-12
1.18635e-13
1.31201e-12
2.79708e-13
2.55026e-14
2.04362e-14
3.76065e-13
6.47496e-14
1.09854e-14
1e-14
3.80135e-14
1.01092e-14
1.67367e-14
1.17717e-14
5.17416e-14
1.29384e-13
1.3354e-14
4.90892e-13
1e-14
3.41532e-14
1.54722e-14
1.41876e-13
1.10006e-13
1.12874e-12
1.92725e-14
1.27708e-14
3.45401e-13
1.02903e-14
3.41077e-14
1.70516e-14
4.73321e-13
1e-14
8.9677e-13
3.7568e-13
8.88332e-14
1.1636e-12
1.14782e-12
4.39616e-13
4.39047e-13
8.0166e-14
1.16886e-12
1.16497e-12
1.27722e-14
1.92722e-14
3.45387e-13
1.02896e-14
1.70426e-14
3.4105e-14
4.73336e-13
3.76225e-13
8.96818e-13
8.87415e-14
1.14623e-12
1.16354e-12
1e-14
1.09854e-14
3.80123e-14
1.01092e-14
1.17713e-14
1.67363e-14
5.17395e-14
3.4153e-14
1e-14
1.54719e-14
1.09995e-13
1.41879e-13
1e-14
1.02625e-14
3.74974e-14
1e-14
1.18536e-14
1.01824e-14
4.59827e-14
4.90657e-14
2.5502e-14
2.7971e-13
2.04358e-14
6.47474e-14
3.76064e-13
1.29396e-13
1.33542e-14
4.9089e-13
1.12873e-12
1.77007e-14
4.05766e-13
4.23688e-13
2.30233e-14
2.52399e-14
5.50911e-13
5.89147e-13
1.42658e-14
4.53747e-13
2.94477e-14
3.95944e-14
6.24531e-13
1e-14
7.07117e-14
1.31542e-14
1e-14
1.07462e-14
9.16319e-14
1.15997e-12
1.18636e-13
1.31203e-12
4.04913e-13
1.76893e-14
4.22897e-13
2.31506e-14
5.51099e-13
2.54229e-14
5.8953e-13
4.52668e-13
1.41143e-14
2.98241e-14
6.24586e-13
4.03605e-14
1e-14
7.15602e-14
1.3228e-14
1e-14
1.08401e-14
9.16527e-14
3.77508e-14
1.02569e-14
1e-14
1.18427e-14
4.6449e-14
1.0179e-14
4.83395e-14
1.15898e-12
1.19267e-13
1.31141e-12
2.79742e-13
2.52661e-14
2.05087e-14
3.77177e-13
6.50211e-14
1.10159e-14
1e-14
3.79791e-14
1.01008e-14
1.67772e-14
1.17448e-14
5.18853e-14
1.28404e-13
1.34582e-14
4.89919e-13
1e-14
3.3857e-14
1.54901e-14
1.43427e-13
1.09996e-13
1.12858e-12
1.92415e-14
1.27573e-14
3.45535e-13
1.02875e-14
3.41372e-14
1.70713e-14
4.73273e-13
1e-14
8.96638e-13
3.75357e-13
8.92212e-14
1.1635e-12
1.14738e-12
4.39373e-13
4.3881e-13