/*--------------------------------*- C++ -*----------------------------------*\
| =========                 |                                                 |
| \\      /  F ield         | OpenFOAM: The Open Source CFD Toolbox           |
|  \\    /   O peration     | Version:  2.1.1                                 |
|   \\  /    A nd           | Web:      www.OpenFOAM.org                      |
|    \\/     M anipulation  |                                                 |
\*---------------------------------------------------------------------------*/
FoamFile
{
    version     2.0;
    format      ascii;
    class       volVectorField;
    location    "0.0035";
    object      U;
}
// * * * * * * * * * * * * * * * * * * * * * * * * * * * * * * * * * * * * * //

dimensions      [0 1 -1 0 0 0 0];

internalField   nonuniform List<vector> 
10314
(
(-2.19222e-05 -2.1888e-05 0.116084)
(-6.727e-05 -2.1384e-05 0.116089)
(-0.000117441 -2.16286e-05 0.116115)
(-0.000171579 -2.08782e-05 0.116172)
(-0.000241085 -1.94299e-05 0.116267)
(-0.00031538 -1.75832e-05 0.116408)
(-0.000418037 -1.43474e-05 0.116593)
(-0.000508832 -8.72674e-06 0.116868)
(-0.000653933 -6.89586e-07 0.117174)
(-0.000741417 4.05088e-06 0.117591)
(-0.00100962 9.98256e-06 0.117784)
(-0.00100283 1.09502e-05 0.119479)
(-0.00110787 0.000167039 0.122412)
(-0.0003258 -0.00012867 0.0986615)
(0.00366033 0.000647418 0.0251557)
(-2.14057e-05 -6.727e-05 0.11609)
(-6.60091e-05 -6.6002e-05 0.116101)
(-0.000115965 -6.83194e-05 0.116132)
(-0.000169889 -6.5817e-05 0.11619)
(-0.000238061 -7.22305e-05 0.116287)
(-0.000309987 -6.44088e-05 0.116425)
(-0.000409176 -8.39494e-05 0.116611)
(-0.000495699 -5.82677e-05 0.116875)
(-0.000642348 -0.000124508 0.117167)
(-0.000734489 -3.79448e-05 0.117568)
(-0.00102383 -0.000278791 0.118115)
(-0.000921437 6.42508e-05 0.120911)
(-0.0010562 -0.000262828 0.119682)
(-0.000137602 0.000640094 0.0787086)
(0.00345864 0.00210301 0.0256441)
(-2.16841e-05 -0.000117481 0.116116)
(-6.83202e-05 -0.000115999 0.116134)
(-0.000117273 -0.00011723 0.116175)
(-0.000175515 -0.000113947 0.116237)
(-0.000239706 -0.000115653 0.116342)
(-0.000327048 -0.000107976 0.116483)
(-0.000411772 -0.000115806 0.116692)
(-0.000551236 -8.93793e-05 0.116953)
(-0.000638564 -0.000121487 0.117318)
(-0.000893742 -2.58941e-05 0.117726)
(-0.000918338 -0.000210147 0.118867)
(-0.00112488 0.000145634 0.119776)
(0.00014677 -1.05979e-05 0.0952683)
(-0.00160591 -0.00173599 0.033741)
(0.00649937 0.00627943 0.0182854)
(-2.09453e-05 -0.000171681 0.116172)
(-6.57482e-05 -0.000170005 0.116192)
(-0.000113923 -0.000175619 0.116238)
(-0.000168336 -0.000168527 0.1163)
(-0.000232097 -0.000172815 0.116407)
(-0.000309955 -0.000157637 0.116539)
(-0.000390521 -0.000162278 0.116742)
(-0.000504761 -0.000126867 0.11698)
(-0.000582861 -0.000120907 0.117304)
(-0.000790355 -4.49351e-05 0.117598)
(-0.000822 -4.18934e-05 0.118798)
(-0.00103019 -7.40167e-05 0.120724)
(0.000155622 0.000256273 0.0960146)
(0.00209522 0.00133546 0.027175)
(5.31489e-05 -0.000156627 0.00415936)
(-1.9604e-05 -0.000241128 0.116267)
(-7.22227e-05 -0.00023825 0.116287)
(-0.000115774 -0.00023978 0.116343)
(-0.000172724 -0.000232372 0.116407)
(-0.000228758 -0.000228923 0.116525)
(-0.000316078 -0.000224955 0.116657)
(-0.000381029 -0.000210765 0.116874)
(-0.000516016 -0.000206984 0.117105)
(-0.000565913 -0.000158378 0.11743)
(-0.000771926 -0.00014054 0.117626)
(-0.000842923 -0.000103399 0.119172)
(-0.000999624 -0.000103688 0.121921)
(-6.87728e-05 9.58752e-05 0.0973668)
(0.00296422 -0.00181729 0.0304567)
(0.00025224 -0.000655893 0.00586462)
(-1.78452e-05 -0.000315539 0.116408)
(-6.43727e-05 -0.000310183 0.116425)
(-0.000108029 -0.000327323 0.116483)
(-0.000157546 -0.00031031 0.116539)
(-0.000224682 -0.000316503 0.116656)
(-0.000291521 -0.000292279 0.116784)
(-0.000373747 -0.000285952 0.117001)
(-0.000460248 -0.000233242 0.117209)
(-0.000522381 -0.000212333 0.117431)
(-0.000692346 -0.000164365 0.117835)
(-0.000706686 -1.76309e-05 0.120271)
(-0.000935154 -0.00019935 0.11931)
(-9.82653e-05 0.000661566 0.0804351)
(0.00330108 0.00103152 0.0276796)
(-1.47712e-05 -0.000417976 0.116593)
(-8.40568e-05 -0.000409689 0.116612)
(-0.000116084 -0.000411996 0.116692)
(-0.000162343 -0.00039111 0.116743)
(-0.000211011 -0.000381391 0.116874)
(-0.000285532 -0.000374671 0.117001)
(-0.000323856 -0.00032457 0.117224)
(-0.000444905 -0.00034893 0.117348)
(-0.000483035 -0.000231694 0.117644)
(-0.000558207 -0.000402859 0.118917)
(-0.000889938 -8.98858e-05 0.12018)
(0.00036445 -4.69781e-05 0.0941153)
(-0.00241689 -0.00210593 0.0351912)
(0.000739694 0.000582036 -0.00304767)
(-9.43818e-06 -0.000508994 0.116868)
(-5.85136e-05 -0.000496113 0.116875)
(-8.95096e-05 -0.000551861 0.116953)
(-0.000126924 -0.000505443 0.11698)
(-0.000207073 -0.000516735 0.117105)
(-0.000232829 -0.000461403 0.117209)
(-0.000347939 -0.000446541 0.117348)
(-0.000358222 -0.000360555 0.117513)
(-0.000549165 -0.00051627 0.118679)
(-0.00058883 -0.00011005 0.121705)
(-0.000535779 -0.000611156 0.11874)
(-2.10689e-05 0.000488831 0.0811333)
(0.00275368 0.000540987 0.0253607)
(0.00049551 0.000193355 0.00363879)
(-1.4796e-06 -0.000653202 0.117174)
(-0.000125071 -0.000643652 0.117167)
(-0.000122033 -0.000639312 0.117318)
(-0.000121079 -0.000584277 0.117304)
(-0.000159127 -0.000566842 0.117431)
(-0.000212762 -0.000523795 0.117433)
(-0.00023195 -0.000484647 0.117647)
(-0.000514752 -0.000552146 0.118684)
(-0.000249264 -0.000251393 0.121731)
(-0.000626934 -0.000528294 0.116804)
(0.000379245 0.000471205 0.0761255)
(-0.00421871 -0.00267045 0.0396844)
(-0.0014426 -0.000502862 -0.000742806)
(3.24164e-06 -0.000741118 0.11759)
(-3.96529e-05 -0.000735369 0.117568)
(-2.61214e-05 -0.000894909 0.117725)
(-4.51656e-05 -0.00079141 0.117598)
(-0.000140606 -0.000773541 0.117626)
(-0.000164517 -0.000693972 0.117837)
(-0.000403487 -0.000560413 0.118921)
(-0.00010948 -0.000591582 0.121712)
(-0.000526275 -0.000630263 0.116811)
(0.000267397 0.000266371 0.075364)
(-0.000762384 -0.000555691 0.0349129)
(0.00491281 0.00591736 0.0165695)
(8.89599e-06 -0.00100831 0.117783)
(-0.000280838 -0.00102623 0.118114)
(-0.000210863 -0.00091973 0.118865)
(-4.2541e-05 -0.000823436 0.118797)
(-0.000104686 -0.000844599 0.119173)
(-1.85965e-05 -0.000708116 0.120274)
(-9.15147e-05 -0.000891817 0.120188)
(-0.000611418 -0.000538444 0.118756)
(0.000472434 0.000376588 0.0761481)
(-0.000556496 -0.000761257 0.0349252)
(0.00449058 0.00449054 0.0164741)
(9.87792e-06 -0.00100201 0.119475)
(5.97178e-05 -0.000923039 0.120909)
(0.000146368 -0.00112608 0.119772)
(-7.46652e-05 -0.00103096 0.120724)
(-0.000103861 -0.00100016 0.121922)
(-0.000199604 -0.000935719 0.119312)
(-4.84598e-05 0.000364068 0.0941207)
(0.000488698 -2.28419e-05 0.0811403)
(-0.00266853 -0.00421742 0.0396864)
(0.00591805 0.00491228 0.0165756)
(0.000165242 -0.00110659 0.122406)
(-0.000266783 -0.00105981 0.119677)
(-1.10686e-05 0.000145531 0.0952662)
(0.000256131 0.000155357 0.0960153)
(9.47078e-05 -6.91169e-05 0.0973675)
(0.000662589 -9.81455e-05 0.0804363)
(-0.00210688 -0.00241675 0.0351888)
(0.000539075 0.00275438 0.0253559)
(-0.000501149 -0.00144224 -0.000743085)
(-0.000130984 -0.000325733 0.0986509)
(0.000636393 -0.000138125 0.0786988)
(-0.00173429 -0.00160702 0.0337392)
(0.00133716 0.00209447 0.0271737)
(-0.00181677 0.00296397 0.0304559)
(0.00103143 0.003301 0.0276792)
(0.000581999 0.000739803 -0.00304764)
(0.000192995 0.000495822 0.00363839)
(0.000646205 0.00366032 0.0251508)
(0.00210413 0.0034574 0.0256356)
(0.00627953 0.00649959 0.0182851)
(-0.000156525 5.30366e-05 0.00415913)
(-0.000655977 0.000252141 0.00586439)
(-5.22348e-06 -5.16542e-06 0.116125)
(-1.45734e-05 -5.16739e-06 0.116133)
(-2.75289e-05 -5.23341e-06 0.116163)
(-3.95419e-05 -5.59661e-06 0.116223)
(-5.79499e-05 -4.64697e-06 0.116325)
(-7.58599e-05 -5.25276e-06 0.116472)
(-0.000102809 -3.04725e-06 0.116668)
(-0.00012333 -3.5209e-06 0.116944)
(-0.000153563 2.20306e-06 0.117266)
(-0.000150208 1.22272e-06 0.117693)
(-0.000221749 8.43208e-07 0.117995)
(-0.000211953 -2.22563e-05 0.119654)
(-0.000443313 2.60566e-05 0.122487)
(0.000148906 -0.000295007 0.0986668)
(0.00274714 0.00058125 0.0277497)
(-5.18755e-06 -1.45705e-05 0.116133)
(-1.42205e-05 -1.42544e-05 0.116145)
(-2.73134e-05 -1.57545e-05 0.116181)
(-3.91241e-05 -1.45999e-05 0.116242)
(-5.76956e-05 -1.84493e-05 0.116345)
(-7.40238e-05 -1.42318e-05 0.116489)
(-0.000100867 -2.56204e-05 0.116686)
(-0.000117825 -1.08746e-05 0.116954)
(-0.000148203 -4.86547e-05 0.117267)
(-0.000151448 8.44393e-06 0.117687)
(-0.000255951 -0.000138929 0.118333)
(-0.000246697 9.74176e-05 0.120987)
(-0.000603431 -0.000321268 0.11986)
(0.000283271 0.000648912 0.07883)
(0.00250389 0.00193953 0.0282398)
(-5.30692e-06 -2.7511e-05 0.116164)
(-1.57589e-05 -2.73483e-05 0.116182)
(-2.78841e-05 -2.78506e-05 0.116226)
(-4.22475e-05 -2.80497e-05 0.116291)
(-5.7624e-05 -2.87944e-05 0.116403)
(-8.30646e-05 -2.83979e-05 0.116548)
(-9.91208e-05 -3.26041e-05 0.116767)
(-0.000145991 -2.56513e-05 0.11703)
(-0.000136214 -4.65612e-05 0.117412)
(-0.000244706 4.344e-06 0.117838)
(-0.000156642 -9.70807e-05 0.118992)
(-0.000546191 0.000177104 0.119701)
(0.000514993 -9.87372e-05 0.0953439)
(-0.00192361 -0.0023745 0.0376944)
(0.00578516 0.00570485 0.0201633)
(-5.65874e-06 -3.96088e-05 0.116224)
(-1.45533e-05 -3.92126e-05 0.116243)
(-2.80179e-05 -4.23275e-05 0.116292)
(-4.00823e-05 -4.02262e-05 0.116357)
(-5.81003e-05 -4.37856e-05 0.11647)
(-7.78006e-05 -3.77532e-05 0.116606)
(-9.75641e-05 -4.37114e-05 0.116817)
(-0.000131997 -3.16723e-05 0.117057)
(-0.0001241 -3.81765e-05 0.117394)
(-0.000207136 -7.91476e-06 0.117727)
(-0.000114672 2.00936e-05 0.118951)
(-0.000512847 -4.72283e-05 0.120644)
(0.00057622 0.000204702 0.0960652)
(0.00170455 0.00106973 0.0296954)
(-5.21913e-05 -9.94782e-05 0.00456531)
(-4.79705e-06 -5.79666e-05 0.116325)
(-1.84608e-05 -5.78467e-05 0.116345)
(-2.88853e-05 -5.76883e-05 0.116404)
(-4.37127e-05 -5.83201e-05 0.11647)
(-5.51904e-05 -5.53013e-05 0.116594)
(-8.2789e-05 -6.0546e-05 0.11673)
(-9.19305e-05 -5.12478e-05 0.116954)
(-0.000141065 -6.79436e-05 0.11718)
(-0.00012256 -3.88092e-05 0.117511)
(-0.000190247 -6.22217e-05 0.117752)
(-0.00015553 -1.89776e-05 0.119343)
(-0.00043497 -0.00010916 0.121896)
(0.000338274 3.14563e-05 0.0973831)
(0.00225044 -0.00186785 0.0330304)
(0.000108126 -0.000630611 0.00614469)
(-5.47161e-06 -7.60061e-05 0.116472)
(-1.42314e-05 -7.41831e-05 0.11649)
(-2.84311e-05 -8.33232e-05 0.116549)
(-3.76585e-05 -7.80911e-05 0.116607)
(-6.03256e-05 -8.30934e-05 0.116729)
(-7.34372e-05 -7.39505e-05 0.11686)
(-0.000104135 -8.01551e-05 0.117078)
(-0.000121665 -5.65467e-05 0.117276)
(-0.000129215 -5.8032e-05 0.117511)
(-0.000194271 -3.83466e-05 0.117981)
(-0.000150398 5.56058e-05 0.120475)
(-0.000558037 -0.000281649 0.119426)
(0.000183559 0.000594288 0.0805983)
(0.00242291 0.000537313 0.0301353)
(-3.39997e-06 -0.00010274 0.116668)
(-2.57422e-05 -0.000101329 0.116686)
(-3.28268e-05 -9.9465e-05 0.116768)
(-4.36867e-05 -9.81074e-05 0.116817)
(-5.13593e-05 -9.22911e-05 0.116954)
(-7.9853e-05 -0.000104828 0.117077)
(-7.50142e-05 -7.56195e-05 0.117296)
(-0.000122611 -0.000112352 0.117423)
(-0.000108765 -7.98404e-07 0.117746)
(-9.49547e-05 -0.000163466 0.119098)
(-0.000442759 0.000107881 0.120238)
(0.000670266 -0.000109082 0.0941379)
(-0.0030951 -0.00256047 0.0393163)
(1.74152e-05 -3.58081e-05 -0.00141876)
(-4.08539e-06 -0.000123495 0.116945)
(-1.12838e-05 -0.00011814 0.116954)
(-2.57657e-05 -0.000146604 0.11703)
(-3.15962e-05 -0.000132694 0.117057)
(-6.78934e-05 -0.000141727 0.11718)
(-5.63075e-05 -0.000122408 0.117276)
(-0.000111653 -0.000123812 0.117423)
(-4.70663e-05 -4.84346e-05 0.117608)
(-0.000176824 -0.000194174 0.11885)
(-0.000136146 0.000190017 0.121843)
(-0.000321033 -0.000626667 0.118718)
(9.39779e-05 0.000604745 0.0813323)
(0.0020398 -8.29053e-05 0.0281376)
(0.000550743 0.000143692 0.00356975)
(1.52374e-06 -0.00015307 0.117266)
(-4.92207e-05 -0.000149234 0.117267)
(-4.71658e-05 -0.000136851 0.117412)
(-3.82073e-05 -0.00012531 0.117394)
(-3.90072e-05 -0.000123412 0.117512)
(-5.82837e-05 -0.000130443 0.117513)
(-6.59047e-07 -0.000110093 0.117749)
(-0.000192819 -0.000180186 0.118855)
(0.000139249 0.00013726 0.121881)
(-0.000409308 -0.000411582 0.116894)
(0.000643404 0.000597955 0.07618)
(-0.00510253 -0.00341232 0.0438926)
(-0.00217899 -0.00108703 0.000993986)
(4.36497e-07 -0.000149938 0.117693)
(6.92375e-06 -0.000152159 0.117687)
(4.06588e-06 -0.000245887 0.117838)
(-8.03861e-06 -0.000207873 0.117728)
(-6.21941e-05 -0.00019152 0.117753)
(-3.85288e-05 -0.000195733 0.117983)
(-0.000164673 -9.66414e-05 0.119102)
(0.000190736 -0.000138837 0.121851)
(-0.000408607 -0.000412806 0.1169)
(0.00045687 0.000456511 0.075378)
(-0.00120615 -0.00109091 0.0387662)
(0.004423 0.00541446 0.0182149)
(-1.49124e-07 -0.000220973 0.117994)
(-0.000140922 -0.00025794 0.118332)
(-9.76806e-05 -0.000158351 0.118991)
(1.9997e-05 -0.000115987 0.118951)
(-1.98737e-05 -0.000157041 0.119344)
(5.49717e-05 -0.000151628 0.120478)
(0.00010682 -0.000444232 0.120246)
(-0.000627519 -0.000322048 0.118733)
(0.000599061 0.000641649 0.0762026)
(-0.00109162 -0.00120403 0.0387803)
(0.00406132 0.00406469 0.0182199)
(-2.29935e-05 -0.000211938 0.119651)
(9.33755e-05 -0.000248179 0.120986)
(0.000177496 -0.000547362 0.119698)
(-4.71857e-05 -0.0005137 0.120644)
(-0.000109111 -0.000435757 0.121896)
(-0.000281922 -0.000558771 0.119429)
(-0.000110172 0.000670018 0.0941434)
(0.000604804 9.38842e-05 0.0813389)
(-0.0034091 -0.00510088 0.043895)
(0.00541426 0.00442129 0.0182207)
(2.35913e-05 -0.000443934 0.122482)
(-0.000324488 -0.000607858 0.119854)
(-9.95436e-05 0.000513725 0.0953428)
(0.000204699 0.000576086 0.0960652)
(3.05957e-05 0.000338035 0.0973836)
(0.000594647 0.000183617 0.0805996)
(-0.00256052 -0.0030948 0.0393152)
(-8.35057e-05 0.00203961 0.0281365)
(-0.00108711 -0.00217864 0.000994683)
(-0.000299898 0.000148187 0.0986562)
(0.00064579 0.000281893 0.0788183)
(-0.00237298 -0.00192457 0.0376933)
(0.00107082 0.00170393 0.0296945)
(-0.00186753 0.00225035 0.0330298)
(0.000537192 0.00242278 0.0301349)
(-3.60245e-05 1.74814e-05 -0.00141868)
(0.000143507 0.000550892 0.00356967)
(0.000579674 0.00274648 0.0277434)
(0.00193997 0.00250263 0.0282322)
(0.00570466 0.00578554 0.020163)
(-9.94213e-05 -5.2284e-05 0.0045652)
(-0.000630674 0.000108143 0.00614451)
(1.13386e-05 1.14487e-05 0.116116)
(3.87802e-05 1.1289e-05 0.116124)
(6.37338e-05 1.12592e-05 0.116154)
(9.46163e-05 9.83491e-06 0.116213)
(0.000127069 1.01247e-05 0.116314)
(0.000166253 7.06086e-06 0.116459)
(0.000212544 7.83423e-06 0.116656)
(0.000262137 1.64978e-06 0.116925)
(0.000327178 4.90812e-06 0.117241)
(0.000387251 -5.42358e-06 0.117647)
(0.000467881 4.06225e-06 0.117985)
(0.000479922 -3.35486e-05 0.1197)
(0.000306466 5.70197e-05 0.122463)
(0.000114112 -0.000331667 0.0987115)
(0.00257663 0.000565633 0.0285259)
(1.12682e-05 3.87868e-05 0.116124)
(3.8468e-05 3.83985e-05 0.116136)
(6.27048e-05 3.80559e-05 0.116171)
(9.36033e-05 3.74929e-05 0.116232)
(0.000124419 3.61782e-05 0.116334)
(0.000164061 3.6244e-05 0.116477)
(0.000207229 3.25865e-05 0.116672)
(0.000259288 3.53518e-05 0.116934)
(0.000321212 2.40963e-05 0.117246)
(0.000390441 4.07841e-05 0.117651)
(0.000439578 -1.10667e-05 0.118354)
(0.000497475 0.000111219 0.120997)
(0.000106828 -5.9896e-05 0.119855)
(0.000315193 0.000430476 0.0789601)
(0.00235034 0.00189111 0.0288845)
(1.11723e-05 6.37964e-05 0.116155)
(3.80497e-05 6.26746e-05 0.116172)
(6.28256e-05 6.28657e-05 0.116217)
(9.27449e-05 5.87555e-05 0.116281)
(0.000125806 5.86872e-05 0.116393)
(0.000162584 5.14016e-05 0.116536)
(0.000211643 4.98302e-05 0.116755)
(0.000254506 3.76822e-05 0.117008)
(0.000335036 2.43132e-05 0.117393)
(0.000356087 1.6188e-05 0.117802)
(0.00051495 -4.42948e-05 0.119025)
(0.000240737 0.000113837 0.119608)
(0.000729861 4.37408e-05 0.0954867)
(-0.00186909 -0.00258406 0.038451)
(0.00565615 0.00567185 0.0205997)
(9.78673e-06 9.45769e-05 0.116214)
(3.75401e-05 9.3528e-05 0.116233)
(5.87876e-05 9.26901e-05 0.116282)
(8.94323e-05 8.93155e-05 0.116346)
(0.000117034 8.65223e-05 0.116458)
(0.000155112 8.24762e-05 0.116593)
(0.000193622 7.47831e-05 0.116803)
(0.000235003 6.58096e-05 0.117035)
(0.000300603 4.63197e-05 0.117369)
(0.000315181 1.69867e-05 0.117692)
(0.000449271 1.2522e-05 0.118991)
(0.000121644 -0.000114557 0.120551)
(0.000631008 0.000132323 0.0961539)
(0.00166681 0.000922465 0.0303613)
(-9.63437e-05 -9.41289e-05 0.00464639)
(9.99137e-06 0.000127086 0.116314)
(3.61597e-05 0.000124303 0.116335)
(5.86079e-05 0.000125763 0.116394)
(8.65746e-05 0.000116856 0.116458)
(0.000118912 0.000118834 0.116584)
(0.000150712 0.000103381 0.116717)
(0.000195378 0.000108353 0.116944)
(0.000227844 7.41374e-05 0.11716)
(0.000286418 8.36517e-05 0.117485)
(0.000318712 9.94433e-06 0.117712)
(0.000369471 1.95311e-05 0.119391)
(0.000165628 -7.72314e-05 0.121844)
(0.00027926 -1.63915e-05 0.0974751)
(0.00213492 -0.00192918 0.0336761)
(6.91337e-05 -0.000628325 0.00622924)
(6.8726e-06 0.000166136 0.11646)
(3.6234e-05 0.000163944 0.116477)
(5.13761e-05 0.000162406 0.116536)
(8.25593e-05 0.00015488 0.116593)
(0.000103559 0.000150491 0.116717)
(0.000144629 0.000144273 0.116848)
(0.00016506 0.00012668 0.117067)
(0.000212306 0.000123708 0.117256)
(0.000236692 8.01581e-05 0.117484)
(0.000244835 6.63221e-05 0.117955)
(0.000328171 5.80774e-05 0.12053)
(-0.000114267 -0.000196488 0.119424)
(0.000114726 0.000275975 0.0806636)
(0.00231194 0.000406284 0.0306968)
(7.508e-06 0.000212555 0.116656)
(3.25102e-05 0.000206898 0.116673)
(4.96374e-05 0.000211431 0.116755)
(7.47926e-05 0.000193164 0.116804)
(0.000108311 0.000195031 0.116944)
(0.000126905 0.000164453 0.117067)
(0.000175298 0.000174744 0.117282)
(0.000181885 0.000111089 0.1174)
(0.000227991 0.000185628 0.117721)
(0.000268029 -1.81629e-06 0.119109)
(1.51114e-07 0.000215787 0.120223)
(0.000702753 3.12414e-05 0.0941493)
(-0.00304266 -0.00272474 0.0400381)
(-0.000131614 -9.9306e-05 -0.00120973)
(1.15826e-06 0.000261915 0.116925)
(3.51228e-05 0.000259079 0.116934)
(3.75307e-05 0.000254185 0.117008)
(6.57624e-05 0.0002345 0.117036)
(7.41693e-05 0.000227276 0.117161)
(0.00012384 0.000211589 0.117256)
(0.00011167 0.000181018 0.1174)
(0.000222289 0.000221449 0.117586)
(0.000114386 4.57466e-05 0.118857)
(0.000188515 0.000370608 0.121888)
(-1.68192e-05 -0.000538281 0.118655)
(-1.86011e-05 0.000450844 0.0813881)
(0.00200482 -0.000201756 0.0286985)
(0.000583781 0.000163583 0.00355422)
(4.29459e-06 0.00032735 0.117241)
(2.39246e-05 0.000320439 0.117246)
(2.3824e-05 0.000334618 0.117394)
(4.608e-05 0.000299625 0.117371)
(8.33776e-05 0.000285622 0.117487)
(8.00455e-05 0.000235659 0.117486)
(0.000186063 0.000227054 0.117724)
(4.67258e-05 0.000112623 0.11886)
(0.000382316 0.00038054 0.12192)
(-0.000199457 -0.000290979 0.116837)
(0.00065045 0.000499718 0.0762661)
(-0.00515604 -0.00359801 0.0445408)
(-0.00230828 -0.00120109 0.00123792)
(-6.33688e-06 0.000387561 0.117646)
(3.99766e-05 0.000389911 0.117652)
(1.58319e-05 0.000355005 0.117803)
(1.65674e-05 0.000314383 0.117693)
(9.90956e-06 0.00031765 0.117713)
(6.6303e-05 0.000243882 0.117958)
(-1.82688e-06 0.000266871 0.119114)
(0.000371008 0.000186878 0.121897)
(-0.000289076 -0.000201889 0.116843)
(0.000402235 0.000402089 0.0754735)
(-0.00130108 -0.0012367 0.0393938)
(0.00434307 0.00535971 0.0186137)
(2.9031e-06 0.000468251 0.117984)
(-1.25945e-05 0.000438614 0.118353)
(-4.50145e-05 0.000512605 0.119025)
(1.23391e-05 0.000448057 0.118991)
(1.91221e-05 0.000368159 0.119393)
(5.78892e-05 0.00032711 0.120533)
(0.000215631 -9.48647e-07 0.12023)
(-0.000538651 -1.80768e-05 0.118669)
(0.000500386 0.000649455 0.0762881)
(-0.00123741 -0.00129925 0.0394083)
(0.00399565 0.00399941 0.0186262)
(-3.47763e-05 0.000479599 0.119697)
(0.000107744 0.000495828 0.120996)
(0.000113289 0.000239155 0.119607)
(-0.000113877 0.000120942 0.120551)
(-7.7093e-05 0.000164756 0.121844)
(-0.00019639 -0.000114985 0.119427)
(3.0841e-05 0.000702422 0.0941549)
(0.000451088 -1.86362e-05 0.081394)
(-0.00359472 -0.00515475 0.0445433)
(0.00535959 0.00434151 0.0186195)
(5.34839e-05 0.000304318 0.122459)
(-6.26898e-05 9.98621e-05 0.119849)
(4.31162e-05 0.000728025 0.0954857)
(0.000132599 0.000630684 0.096154)
(-1.68497e-05 0.000279018 0.0974756)
(0.000276285 0.000114804 0.0806649)
(-0.00272461 -0.00304242 0.0400375)
(-0.000201999 0.00200473 0.0286981)
(-0.00120103 -0.00230795 0.00123866)
(-0.000340351 0.000111794 0.0987024)
(0.000427232 0.000312003 0.0789482)
(-0.00258289 -0.00186969 0.0384496)
(0.000923191 0.00166616 0.0303606)
(-0.00192909 0.00213496 0.0336754)
(0.000406131 0.00231188 0.0306964)
(-9.95094e-05 -0.000131616 -0.00120961)
(0.00016339 0.000583934 0.00355419)
(0.000565756 0.00257514 0.0285185)
(0.00188813 0.00234709 0.0288773)
(0.00567081 0.00565583 0.0205992)
(-9.41559e-05 -9.64491e-05 0.00464626)
(-0.000628323 6.90914e-05 0.00622913)
(2.77038e-05 2.78576e-05 0.116056)
(9.09373e-05 2.75255e-05 0.116062)
(0.000152935 2.73856e-05 0.116089)
(0.000226096 2.49839e-05 0.116145)
(0.000308151 2.46452e-05 0.116241)
(0.000403542 1.9137e-05 0.11638)
(0.000521916 1.85105e-05 0.11657)
(0.000645941 6.75632e-06 0.116834)
(0.000814685 8.54234e-06 0.117147)
(0.000936267 -1.35906e-05 0.117552)
(0.00115596 5.29954e-06 0.117905)
(0.00113186 -4.91695e-05 0.119731)
(0.0011537 0.000117782 0.122556)
(0.000212603 -0.000280061 0.0990337)
(0.00254196 0.000580376 0.028721)
(2.75011e-05 9.09418e-05 0.116062)
(9.01284e-05 9.00263e-05 0.116073)
(0.000150737 9.09425e-05 0.116106)
(0.000223469 8.8641e-05 0.116163)
(0.000302483 8.9965e-05 0.11626)
(0.000397552 8.59272e-05 0.116397)
(0.000509744 9.10715e-05 0.116587)
(0.000635626 8.19438e-05 0.116842)
(0.000794319 0.000103629 0.117153)
(0.00093831 7.06974e-05 0.117561)
(0.00112751 0.000123967 0.118295)
(0.00122392 7.1119e-05 0.121054)
(0.000990921 0.000324455 0.119973)
(0.000483812 0.000344502 0.0793812)
(0.00231119 0.00190059 0.0290801)
(2.72937e-05 0.000153036 0.11609)
(9.09409e-05 0.000150715 0.116107)
(0.000151553 0.00015161 0.116149)
(0.000225134 0.000143784 0.11621)
(0.000305455 0.000144683 0.116317)
(0.000404656 0.000130221 0.116454)
(0.000517747 0.00013196 0.11667)
(0.000658645 0.000101654 0.116918)
(0.000806379 0.000101871 0.117315)
(0.000969883 3.21984e-05 0.117724)
(0.00114985 7.19884e-06 0.119066)
(0.00110399 -2.85735e-05 0.119693)
(0.00111592 0.000217057 0.0959125)
(-0.00173348 -0.00282699 0.0387279)
(0.00563244 0.00571379 0.0207587)
(2.49531e-05 0.000226082 0.116146)
(8.87024e-05 0.000223395 0.116164)
(0.000143813 0.000225104 0.116211)
(0.000216564 0.000216464 0.116271)
(0.000288933 0.000214947 0.116379)
(0.000384809 0.000201273 0.11651)
(0.000480919 0.000192368 0.116716)
(0.000605949 0.000164305 0.116945)
(0.000728636 0.000137931 0.117287)
(0.000851189 5.83784e-05 0.117603)
(0.000982997 9.80238e-06 0.118993)
(0.000820639 -0.000211856 0.120593)
(0.000831076 2.90521e-05 0.0963865)
(0.00173527 0.000807123 0.030555)
(-0.00011397 -0.000105497 0.0046692)
(2.45288e-05 0.000308204 0.116242)
(8.99473e-05 0.000302393 0.116261)
(0.000144607 0.000305434 0.116318)
(0.000214979 0.000288785 0.11638)
(0.00029026 0.000290189 0.116501)
(0.000381946 0.000265563 0.11663)
(0.000480366 0.000267317 0.116856)
(0.000604451 0.000220459 0.117071)
(0.000704183 0.00021768 0.117408)
(0.000854503 0.000101246 0.117625)
(0.000874687 6.62043e-05 0.119418)
(0.000845898 -6.52557e-05 0.121902)
(0.000363678 -7.72725e-05 0.0977437)
(0.00214986 -0.00196583 0.0338622)
(5.81088e-05 -0.000623165 0.00625575)
(1.89816e-05 0.000403479 0.116381)
(8.5918e-05 0.000397465 0.116397)
(0.000130196 0.000404534 0.116455)
(0.000201329 0.000384631 0.11651)
(0.000265712 0.000381778 0.116629)
(0.000361828 0.000361556 0.11676)
(0.000435567 0.000335362 0.11698)
(0.00055745 0.000315866 0.117173)
(0.000614987 0.000230903 0.11741)
(0.000711534 0.00018344 0.11788)
(0.000790952 2.35168e-05 0.120561)
(0.000397502 -0.000115769 0.119454)
(0.000180584 2.89876e-05 0.0807924)
(0.00229814 0.000361002 0.0308204)
(1.8216e-05 0.000521928 0.116571)
(9.09994e-05 0.000509501 0.116587)
(0.000131793 0.000517606 0.116671)
(0.000192359 0.000480513 0.116717)
(0.0002673 0.000480048 0.116856)
(0.000335533 0.000435025 0.11698)
(0.000435001 0.000434417 0.117198)
(0.000502496 0.000356854 0.11732)
(0.000578935 0.000382437 0.117658)
(0.000632306 0.000170705 0.119071)
(0.000430813 0.000267929 0.120284)
(0.000843694 0.000166042 0.0941876)
(-0.00286336 -0.00287475 0.0401628)
(-0.000173741 -8.46779e-05 -0.00120208)
(6.30259e-06 0.000645836 0.116834)
(8.17859e-05 0.000635477 0.116842)
(0.000101468 0.00065841 0.116919)
(0.000164195 0.000605538 0.116946)
(0.000220491 0.000603991 0.117071)
(0.000315883 0.000556892 0.117173)
(0.000357382 0.000501809 0.11732)
(0.000507423 0.000506745 0.117525)
(0.00042455 0.000295292 0.118812)
(0.000508449 0.000518766 0.121933)
(0.000308911 -0.000401211 0.118718)
(5.89478e-06 0.000398496 0.0814644)
(0.00203625 -0.000222928 0.0287679)
(0.000581943 0.000179814 0.00354851)
(7.86984e-06 0.000814876 0.117147)
(0.000103431 0.000793697 0.117153)
(0.000101439 0.000806033 0.117316)
(0.000137698 0.000727754 0.117288)
(0.000217523 0.000703488 0.11741)
(0.00023084 0.000614098 0.117412)
(0.000382866 0.000578064 0.117661)
(0.000296014 0.000423308 0.118815)
(0.000593302 0.000591612 0.121959)
(2.79852e-05 -0.000141853 0.116892)
(0.000715151 0.000469614 0.0763641)
(-0.0051065 -0.00367883 0.0446311)
(-0.0023214 -0.00121763 0.00124055)
(-1.4581e-05 0.000936407 0.117552)
(7.0009e-05 0.000937978 0.117562)
(3.17415e-05 0.000969202 0.117725)
(5.79115e-05 0.000850502 0.117603)
(0.000101263 0.000853658 0.117626)
(0.00018326 0.000710856 0.117883)
(0.000170909 0.00063156 0.119075)
(0.000518906 0.000507619 0.121941)
(-0.00014044 2.66584e-05 0.116898)
(0.000425792 0.000426063 0.0755591)
(-0.0013094 -0.00129652 0.0394991)
(0.0043329 0.00536319 0.0186919)
(4.00746e-06 0.00115622 0.117905)
(0.000122976 0.00112629 0.118295)
(6.43595e-06 0.00114822 0.119067)
(9.42161e-06 0.000982061 0.118993)
(6.60563e-05 0.000873626 0.119419)
(2.35592e-05 0.000790143 0.120564)
(0.000268247 0.000430211 0.120291)
(-0.00040114 0.000307982 0.118731)
(0.000470013 0.000714708 0.0763855)
(-0.00129712 -0.00130774 0.0395137)
(0.00399449 0.00399821 0.0187065)
(-5.12905e-05 0.00113262 0.11973)
(6.86375e-05 0.00122216 0.121052)
(-2.86417e-05 0.00110171 0.119693)
(-0.000211652 0.000820213 0.120592)
(-6.50663e-05 0.000844915 0.121903)
(-0.00011552 0.000396841 0.119457)
(0.00016595 0.000843353 0.0941928)
(0.00039887 5.78631e-06 0.0814696)
(-0.00367551 -0.00510538 0.0446336)
(0.00536306 0.00433161 0.0186978)
(0.000114518 0.00115207 0.122554)
(0.000320508 0.000983619 0.11997)
(0.000216898 0.0011133 0.0959119)
(2.98893e-05 0.000830674 0.0963865)
(-7.75921e-05 0.000363407 0.0977443)
(2.94907e-05 0.000180661 0.0807935)
(-0.00287452 -0.0028631 0.0401624)
(-0.000223033 0.00203614 0.0287676)
(-0.00121749 -0.00232116 0.00124144)
(-0.000290421 0.00021042 0.0990294)
(0.000340418 0.000479344 0.079373)
(-0.00282594 -0.00173329 0.0387261)
(0.000807477 0.00173463 0.0305541)
(-0.00196588 0.00214987 0.0338616)
(0.00036084 0.00229794 0.03082)
(-8.47892e-05 -0.000173675 -0.00120193)
(0.000179743 0.000582092 0.00354852)
(0.000584318 0.00254254 0.0287182)
(0.00189347 0.00230415 0.0290741)
(0.00571179 0.00563075 0.020758)
(-0.000105532 -0.000114073 0.00466903)
(-0.000623144 5.8042e-05 0.00625562)
(4.32166e-05 4.34023e-05 0.115946)
(0.000139926 4.28549e-05 0.115949)
(0.000237233 4.26479e-05 0.115972)
(0.000350728 3.9295e-05 0.116021)
(0.000480479 3.83888e-05 0.116108)
(0.000630705 3.08433e-05 0.116236)
(0.000821948 2.94629e-05 0.116412)
(0.00102488 1.26744e-05 0.116666)
(0.00131677 1.38294e-05 0.116971)
(0.00152766 -1.98652e-05 0.117395)
(0.00195373 9.80872e-06 0.117754)
(0.00191226 -5.56801e-05 0.11974)
(0.00232843 0.000210759 0.122628)
(0.000459699 -4.93478e-05 0.0997333)
(0.00253725 0.00065633 0.0288794)
(4.28283e-05 0.000139924 0.11595)
(0.000138883 0.000138752 0.115958)
(0.000234031 0.000140985 0.115986)
(0.000346612 0.000137164 0.116037)
(0.000472174 0.000141434 0.116125)
(0.000621952 0.000134208 0.116251)
(0.000804027 0.000150338 0.116429)
(0.00100886 0.000131314 0.116675)
(0.00128335 0.000197476 0.11698)
(0.00152843 0.000119693 0.117404)
(0.00193018 0.000344908 0.118154)
(0.00210664 8.63579e-05 0.121093)
(0.00236611 0.00103291 0.120102)
(0.000858713 0.000474156 0.0804058)
(0.00229896 0.00198374 0.0293253)
(4.25629e-05 0.000237372 0.115973)
(0.000140992 0.000234014 0.115988)
(0.000235654 0.000235737 0.116025)
(0.000351196 0.000224812 0.116079)
(0.000477547 0.000227197 0.116178)
(0.000639706 0.000206871 0.116305)
(0.000819025 0.000213819 0.116511)
(0.00107194 0.000166731 0.116757)
(0.00130677 0.000190151 0.11717)
(0.00169247 5.98782e-05 0.117608)
(0.00193218 0.000108853 0.119121)
(0.0023435 -0.000184896 0.119894)
(0.0019327 0.000521979 0.0968664)
(-0.00152221 -0.00314492 0.0391444)
(0.00565633 0.00585486 0.0209938)
(3.92813e-05 0.000350745 0.116022)
(0.000137244 0.000346528 0.116039)
(0.000224841 0.00035119 0.116081)
(0.000338097 0.000338002 0.116136)
(0.000454252 0.000338347 0.116235)
(0.000608657 0.000316521 0.116358)
(0.000763731 0.000307635 0.116556)
(0.000984935 0.000260961 0.11678)
(0.00117898 0.000231248 0.117135)
(0.0014624 0.000104624 0.117457)
(0.00162008 8.42553e-06 0.118951)
(0.00176715 -0.000339906 0.120633)
(0.00133675 -0.000169728 0.0968456)
(0.00195131 0.000592605 0.0308203)
(-0.000121865 -0.000121977 0.00473358)
(3.82901e-05 0.000480577 0.116108)
(0.000141415 0.000472108 0.116126)
(0.000227114 0.00047755 0.116178)
(0.000338359 0.000454127 0.116235)
(0.000456086 0.000455986 0.116347)
(0.000609002 0.000424837 0.116468)
(0.000763016 0.000425163 0.116686)
(0.000994264 0.000370547 0.1169)
(0.00115141 0.000361672 0.117255)
(0.00148816 0.000214497 0.117482)
(0.00149983 0.000150041 0.119412)
(0.00180075 -4.62531e-05 0.121983)
(0.000666963 -0.000117975 0.0983062)
(0.00226005 -0.00204535 0.0341526)
(4.80182e-05 -0.000614136 0.00631099)
(3.0722e-05 0.000630708 0.116236)
(0.000134195 0.000621892 0.116252)
(0.000206846 0.000639627 0.116306)