/*--------------------------------*- C++ -*----------------------------------*\
| =========                 |                                                 |
| \\      /  F ield         | OpenFOAM: The Open Source CFD Toolbox           |
|  \\    /   O peration     | Version:  2.1.1                                 |
|   \\  /    A nd           | Web:      www.OpenFOAM.org                      |
|    \\/     M anipulation  |                                                 |
\*---------------------------------------------------------------------------*/
FoamFile
{
    version     2.0;
    format      ascii;
    class       volScalarField;
    location    "0.085";
    object      p;
}
// * * * * * * * * * * * * * * * * * * * * * * * * * * * * * * * * * * * * * //

dimensions      [0 2 -2 0 0 0 0];

internalField   nonuniform List<scalar> 
163952
(
0.0416877
0.0411114
0.0363754
0.0311806
0.0299839
0.0273725
0.0267824
0.0264588
0.0366955
0.0323534
0.0273119
0.0248222
0.0235786
0.0227997
0.0224853
0.0223441
0.0337266
0.0279897
0.0244861
0.0228464
0.0219339
0.0213961
0.0210574
0.0208772
0.0207917
0.0335964
0.0260976
0.0232632
0.0219167
0.0211614
0.0206827
0.0203632
0.0201516
0.0200254
0.0199619
0.0335976
0.0255556
0.022739
0.0214608
0.020746
0.0202823
0.0199584
0.0197276
0.0195681
0.0194676
0.0194152
0.0337269
0.0260977
0.022739
0.0213173
0.0205548
0.0200661
0.0197207
0.0194668
0.0192803
0.0191483
0.0190627
0.0190173
0.0366952
0.0279898
0.0232633
0.0214608
0.0205549
0.0199965
0.0196083
0.0193217
0.0191061
0.0189456
0.0188307
0.0187552
0.0187147
0.0323535
0.0244862
0.0219168
0.0207461
0.0200662
0.0196084
0.0192748
0.0190232
0.0188319
0.0186887
0.0185856
0.0185174
0.0184806
0.0363756
0.027312
0.0228466
0.0211615
0.0202824
0.0197208
0.0193218
0.0190232
0.0187952
0.018621
0.01849
0.0183953
0.0183324
0.0182984
0.0311809
0.0248224
0.021934
0.0206829
0.0199585
0.0194669
0.0191062
0.018832
0.018621
0.018459
0.0183369
0.0182483
0.0181894
0.0181574
0.0299841
0.0235788
0.0213962
0.0203633
0.0197278
0.0192804
0.0189457
0.0186888
0.01849
0.0183369
0.0182211
0.018137
0.0180808
0.0180504
0.0273727
0.0227999
0.0210576
0.0201517
0.0195683
0.0191484
0.0188308
0.0185857
0.0183954
0.0182484
0.018137
0.018056
0.0180018
0.0179724
0.0416879
0.0267827
0.0224856
0.0208774
0.0200256
0.0194678
0.0190629
0.0187554
0.0185175
0.0183325
0.0181895
0.0180809
0.0180018
0.017949
0.0179202
0.0411117
0.026459
0.0223444
0.0207919
0.0199621
0.0194155
0.0190175
0.0187149
0.0184807
0.0182985
0.0181575
0.0180504
0.0179724
0.0179202
0.0178919
0.0235138
0.0235706
0.0225085
0.0237177
0.0224487
0.0221347
0.0220898
0.022069
0.0226132
0.0244271
0.0221143
0.0218021
0.0215416
0.0213508
0.0212761
0.0212244
0.0233913
0.0221662
0.0217483
0.0213364
0.0209957
0.0207171
0.0205324
0.0204363
0.0203868
0.0221357
0.0218454
0.0214083
0.020967
0.0205744
0.0202632
0.020027
0.0198674
0.0197752
0.0197309
0.0221364
0.0217162
0.0212242
0.0207203
0.0202934
0.019951
0.0196915
0.0195003
0.0193685
0.0192883
0.0192497
0.0233916
0.0218457
0.0212242
0.0206403
0.0201515
0.0197736
0.0194845
0.0192667
0.0191059
0.0189937
0.0189233
0.0188894
0.0226134
0.0221663
0.0214084
0.0207204
0.0201515
0.019715
0.0193857
0.0191353
0.0189461
0.0188057
0.0187068
0.0186439
0.0186134
0.0244272
0.0217484
0.0209671
0.0202935
0.0197737
0.0193857
0.0190929
0.0188698
0.0187003
0.0185741
0.0184845
0.0184272
0.0183992
0.0225086
0.0221145
0.0213365
0.0205745
0.0199511
0.0194845
0.0191354
0.0188698
0.0186662
0.0185107
0.0183945
0.0183116
0.0182583
0.0182322
0.0237179
0.0218023
0.0209958
0.0202634
0.0196916
0.0192668
0.0189461
0.0187003
0.0185108
0.0183653
0.0182562
0.0181782
0.0181279
0.0181032
0.0224489
0.0215418
0.0207173
0.0200272
0.0195004
0.0191061
0.0188059
0.0185742
0.0183945
0.0182562
0.0181522
0.0180776
0.0180295
0.0180059
0.0221349
0.0213511
0.0205326
0.0198676
0.0193687
0.0189938
0.0187069
0.0184846
0.0183117
0.0181782
0.0180777
0.0180055
0.0179588
0.0179359
0.023514
0.0220901
0.0212763
0.0204365
0.0197754
0.0192885
0.0189235
0.0186441
0.0184273
0.0182584
0.018128
0.0180295
0.0179589
0.0179132
0.0178907
0.0235708
0.0220693
0.0212246
0.0203871
0.0197312
0.01925
0.0188896
0.0186136
0.0183993
0.0182324
0.0181034
0.018006
0.017936
0.0178907
0.0178685
0.0198701
0.0198844
0.0199492
0.0203311
0.0205546
0.0204389
0.0203315
0.0202909
0.0199559
0.0207999
0.0203497
0.0202717
0.0201769
0.0201382
0.0201088
0.0200834
0.0201663
0.0203635
0.0202632
0.0201427
0.020006
0.0198616
0.0197703
0.0197153
0.0196849
0.0205134
0.0202965
0.0201715
0.0199917
0.0197998
0.019634
0.0194942
0.0193942
0.019332
0.0193007
0.0205142
0.0202514
0.0200985
0.0198769
0.0196521
0.0194496
0.0192835
0.0191523
0.0190577
0.0189978
0.0189682
0.0201664
0.0202968
0.0200985
0.0198391
0.0195733
0.0193399
0.0191435
0.0189853
0.0188626
0.0187742
0.0187176
0.0186898
0.0199561
0.0203636
0.0201716
0.019877
0.0195734
0.0193024
0.0190742
0.018887
0.018738
0.0186236
0.0185411
0.018488
0.0184619
0.0208
0.0202633
0.0199918
0.0196522
0.0193399
0.0190742
0.0188546
0.0186769
0.0185366
0.0184294
0.0183521
0.018302
0.0182774
0.0199493
0.0203498
0.0201428
0.0197999
0.0194497
0.0191436
0.018887
0.018677
0.0185082
0.0183753
0.0182738
0.0182006
0.0181531
0.0181297
0.0203313
0.0202719
0.0200062
0.0196341
0.0192837
0.0189854
0.0187381
0.0185367
0.0183753
0.0182483
0.0181514
0.0180814
0.018036
0.0180136
0.0205548
0.0201771
0.0198618
0.0194944
0.0191524
0.0188628
0.0186237
0.0184295
0.0182739
0.0181515
0.018058
0.0179904
0.0179465
0.0179249
0.0204392
0.0201384
0.0197705
0.0193944
0.0190579
0.0187744
0.0185413
0.0183522
0.0182007
0.0180815
0.0179904
0.0179246
0.0178817
0.0178606
0.0198703
0.0203317
0.0201091
0.0197155
0.0193322
0.018998
0.0187178
0.0184881
0.0183021
0.0181532
0.018036
0.0179466
0.0178818
0.0178396
0.0178189
0.0198846
0.0202911
0.0200837
0.0196851
0.0193009
0.0189684
0.0186901
0.0184621
0.0182776
0.0181299
0.0180137
0.017925
0.0178607
0.0178189
0.0177983
0.0185228
0.0185332
0.01864
0.018867
0.0191979
0.0191975
0.0191451
0.0191231
0.0186549
0.0190808
0.0191208
0.0191083
0.0190791
0.0190806
0.0190794
0.0190758
0.0187958
0.0191247
0.0191122
0.0191052
0.0190766
0.0190249
0.0189892
0.0189638
0.0189496
0.019228
0.019128
0.019122
0.0190719
0.0190058
0.0189416
0.0188789
0.0188291
0.0187945
0.0187762
0.0192286
0.0191084
0.0191034
0.0190404
0.0189511
0.0188579
0.0187722
0.0186977
0.0186407
0.0186025
0.0185831
0.0187958
0.0191282
0.0191034
0.0190292
0.0189205
0.0188045
0.0186943
0.0185974
0.0185171
0.0184566
0.0184167
0.0183967
0.018655
0.0191248
0.0191222
0.0190405
0.0189206
0.0187859
0.0186541
0.0185346
0.0184329
0.018351
0.0182899
0.0182496
0.0182296
0.0190809
0.0191123
0.019072
0.0189512
0.0188046
0.0186541
0.0185135
0.0183903
0.0182875
0.0182059
0.0181454
0.0181056
0.0180859
0.0186401
0.019121
0.0191053
0.0190059
0.018858
0.0186944
0.0185347
0.0183903
0.0182663
0.0181642
0.0180837
0.0180244
0.0179854
0.017966
0.0188672
0.0191085
0.0190767
0.0189418
0.0187723
0.0185975
0.018433
0.0182875
0.0181642
0.0180633
0.0179843
0.0179261
0.0178879
0.017869
0.0191981
0.0190793
0.0190251
0.0188791
0.0186979
0.0185172
0.0183511
0.018206
0.0180838
0.0179843
0.0179066
0.0178495
0.017812
0.0177934
0.0191978
0.0190808
0.0189894
0.0188293
0.0186409
0.0184568
0.0182901
0.0181456
0.0180245
0.0179262
0.0178495
0.0177932
0.0177562
0.0177379
0.0185231
0.0191453
0.0190796
0.0189641
0.0187947
0.0186027
0.0184169
0.0182498
0.0181058
0.0179855
0.017888
0.017812
0.0177563
0.0177197
0.0177016
0.0185334
0.0191234
0.0190761
0.0189498
0.0187765
0.0185834
0.0183969
0.0182298
0.0180861
0.0179662
0.0178691
0.0177935
0.017738
0.0177016
0.0176836
0.0178048
0.017813
0.0178658
0.0180144
0.0182308
0.0182743
0.0182647
0.0182631
0.0178907
0.0181231
0.018231
0.0182501
0.0182556
0.018268
0.0182762
0.0182808
0.0179806
0.0182324
0.0182587
0.0182918
0.0183103
0.0183098
0.0183069
0.0183008
0.0182966
0.0182649
0.0182544
0.0182984
0.0183118
0.0183121
0.0183046
0.0182893
0.0182733
0.0182596
0.0182517
0.0182653
0.0182492
0.0183053
0.0183208
0.0183085
0.0182834
0.0182521
0.0182193
0.0181916
0.0181716
0.018161
0.0179807
0.0182545
0.0183052
0.0183234
0.0183056
0.0182666
0.018219
0.0181704
0.0181259
0.0180902
0.0180657
0.018053
0.0178909
0.0182325
0.0182985
0.0183208
0.0183056
0.0182605
0.0182005
0.0181367
0.0180768
0.0180252
0.017985
0.0179577
0.0179439
0.0181233
0.0182588
0.0183119
0.0183085
0.0182667
0.0182005
0.018125
0.0180508
0.017984
0.0179283
0.0178856
0.0178568
0.0178424
0.0178659
0.0182311
0.018292
0.0183122
0.0182835
0.0182191
0.0181368
0.0180508
0.01797
0.0178993
0.0178413
0.0177972
0.0177677
0.017753
0.0180146
0.0182503
0.0183104
0.0183048
0.0182522
0.0181705
0.0180769
0.0179841
0.0178993
0.0178264
0.0177672
0.0177225
0.0176927
0.0176778
0.018231
0.0182558
0.01831
0.0182895
0.0182195
0.018126
0.0180253
0.0179284
0.0178413
0.0177672
0.0177074
0.0176626
0.0176327
0.0176178
0.0182746
0.0182682
0.0183071
0.0182735
0.0181917
0.0180904
0.0179852
0.0178857
0.0177973
0.0177226
0.0176626
0.0176177
0.0175878
0.0175729
0.0178051
0.018265
0.0182765
0.0183011
0.0182599
0.0181718
0.0180658
0.0179579
0.017857
0.0177679
0.0176928
0.0176327
0.0175878
0.017558
0.0175431
0.0178132
0.0182634
0.0182811
0.0182968
0.0182519
0.0181613
0.0180533
0.0179441
0.0178425
0.0177531
0.017678
0.0176179
0.0175729
0.0175431
0.0175283
0.0172946
0.0173013
0.0173138
0.0174067
0.0175318
0.0175822
0.0175873
0.0175934
0.0173359
0.0174799
0.0175618
0.0175928
0.0176142
0.0176336
0.0176442
0.0176502
0.0173909
0.0175622
0.0176038
0.0176479
0.0176819
0.0177026
0.0177166
0.0177223
0.0177242
0.0175628
0.0175896
0.0176478
0.0176864
0.0177157
0.0177356
0.0177459
0.0177503
0.0177506
0.0177498
0.017563
0.0175938
0.0176646
0.0177106
0.0177363
0.0177493
0.0177518
0.0177472
0.0177405
0.0177343
0.0177306
0.0173909
0.0175897
0.0176645
0.0177191
0.017747
0.0177544
0.0177487
0.0177351
0.0177183
0.0177027
0.017691
0.0176847
0.0173361
0.0175623
0.0176479
0.0177107
0.017747
0.0177559
0.0177453
0.0177236
0.0176972
0.0176712
0.0176492
0.0176335
0.0176254
0.01748
0.0176039
0.0176865
0.0177364
0.0177544
0.0177454
0.0177191
0.0176848
0.0176491
0.0176166
0.0175902
0.0175719
0.0175625
0.017314
0.017562
0.017648
0.0177158
0.0177494
0.0177488
0.0177236
0.0176849
0.0176413
0.0175991
0.0175621
0.0175329
0.0175127
0.0175025
0.0174069
0.017593
0.0176821
0.0177357
0.0177519
0.0177353
0.0176973
0.0176492
0.0175991
0.0175524
0.0175125
0.0174814
0.0174601
0.0174494
0.017532
0.0176144
0.0177028
0.017746
0.0177474
0.0177185
0.0176713
0.0176167
0.0175622
0.0175126
0.0174707
0.0174384
0.0174164
0.0174053
0.0175824
0.0176338
0.0177168
0.0177505
0.0177407
0.0177029
0.0176494
0.0175904
0.017533
0.0174815
0.0174384
0.0174053
0.0173829
0.0173716
0.0172949
0.0175876
0.0176445
0.0177226
0.0177508
0.0177345
0.0176912
0.0176337
0.017572
0.0175129
0.0174602
0.0174165
0.0173829
0.0173603
0.0173489
0.0173016
0.0175937
0.0176505
0.0177245
0.0177501
0.0177309
0.0176849
0.0176256
0.0175627
0.0175027
0.0174495
0.0174054
0.0173717
0.0173489
0.0173375
0.0168612
0.0168687
0.0168614
0.0169212
0.016988
0.0170341
0.0170432
0.017051
0.0168793
0.0169805
0.0170277
0.0170591
0.0170843
0.0171072
0.0171194
0.0171261
0.0169137
0.0170277
0.0170713
0.0171154
0.017152
0.0171788
0.0171997
0.0172114
0.0172167
0.0170149
0.0170534
0.017112
0.0171578
0.0171972
0.0172287
0.0172513
0.0172667
0.0172753
0.017279
0.017015
0.017061
0.0171304
0.0171857
0.0172279
0.0172601
0.017282
0.0172951
0.0173024
0.0173058
0.017307
0.0169138
0.0170535
0.0171304
0.0171957
0.0172442
0.0172774
0.0172978
0.0173079
0.0173109
0.0173103
0.0173085
0.0173072
0.0168795
0.0170278
0.0171121
0.0171857
0.0172443
0.0172832
0.0173043
0.017312
0.0173107
0.0173048
0.0172976
0.0172915
0.0172881
0.0169806
0.0170714
0.0171579
0.0172279
0.0172775
0.0173044
0.0173128
0.0173089
0.0172981
0.0172849
0.0172726
0.0172633
0.0172584
0.0168615
0.0170278
0.0171156
0.0171973
0.0172602
0.0172979
0.0173121
0.0173089
0.0172954
0.0172772
0.0172586
0.0172425
0.0172309
0.0172248
0.0169213
0.0170593
0.0171521
0.0172288
0.0172821
0.017308
0.0173108
0.0172982
0.0172772
0.0172535
0.017231
0.0172122
0.017199
0.0171921
0.0169882
0.0170845
0.017179
0.0172515
0.0172953
0.017311
0.0173049
0.017285
0.0172586
0.017231
0.0172057
0.0171852
0.0171708
0.0171634
0.0170343
0.0171074
0.0171999
0.017267
0.0173026
0.0173105
0.0172977
0.0172727
0.0172426
0.0172123
0.0171852
0.0171634
0.0171482
0.0171405
0.0168614
0.0170435
0.0171196
0.0172117
0.0172755
0.017306
0.0173087
0.0172917
0.0172635
0.017231
0.0171991
0.0171708
0.0171483
0.0171327
0.0171247
0.016869
0.0170513
0.0171264
0.017217
0.0172793
0.0173072
0.0173074
0.0172884
0.0172586
0.017225
0.0171923
0.0171635
0.0171406
0.0171247
0.0171167
0.016471
0.0164791
0.0164679
0.0165072
0.0165391
0.0165775
0.0165873
0.0165949
0.0164812
0.0165584
0.0165797
0.0166073
0.0166309
0.0166537
0.0166662
0.0166733
0.0165042
0.0165797
0.0166198
0.01666
0.0166943
0.0167212
0.0167434
0.0167572
0.0167641
0.0165616
0.0166012
0.0166551
0.0167005
0.0167414
0.0167763
0.0168037
0.0168242
0.0168369
0.016843
0.0165617
0.016609
0.0166722
0.0167274
0.0167748
0.0168152
0.0168469
0.0168698
0.0168856
0.016895
0.0168993
0.0165043
0.0166013
0.0166721
0.0167371
0.0167928
0.0168384
0.0168733
0.016898
0.016914
0.0169237
0.0169291
0.0169313
0.0164813
0.0165797
0.0166552
0.0167274
0.0167929
0.0168462
0.0168857
0.0169123
0.0169284
0.016937
0.0169409
0.0169424
0.0169427
0.0165585
0.0166199
0.0167006
0.0167749
0.0168384
0.0168858
0.0169167
0.0169341
0.016942
0.0169439
0.0169428
0.016941
0.0169398
0.016468
0.0165799
0.0166601
0.0167415
0.0168153
0.0168734
0.0169124
0.0169342
0.0169432
0.0169439
0.0169403
0.0169354
0.016931
0.0169286
0.0165073
0.0166075
0.0166945
0.0167764
0.016847
0.0168981
0.0169285
0.016942
0.016944
0.0169391
0.0169313
0.0169233
0.0169171
0.0169137
0.0165393
0.0166311
0.0167214
0.0168038
0.01687
0.0169141
0.0169371
0.016944
0.0169404
0.0169313
0.0169204
0.0169103
0.0169027
0.0168987
0.0165777
0.0166539
0.0167436
0.0168244
0.0168858
0.0169239
0.0169411
0.016943
0.0169355
0.0169234
0.0169103
0.0168987
0.0168902
0.0168857
0.0164713
0.0165875
0.0166665
0.0167575
0.0168372
0.0168952
0.0169293
0.0169426
0.0169412
0.0169312
0.0169172
0.0169028
0.0168902
0.0168811
0.0168763
0.0164793
0.0165952
0.0166736
0.0167644
0.0168433
0.0168996
0.0169316
0.016943
0.01694
0.0169287
0.0169139
0.0168988
0.0168858
0.0168764
0.0168715
0.0161156
0.0161232
0.0161144
0.0161408
0.0161522
0.0161829
0.016192
0.0161987
0.0161242
0.0161858
0.01619
0.0162132
0.0162337
0.0162542
0.0162659
0.0162726
0.0161409
0.01619
0.0162251
0.0162604
0.0162909
0.0163154
0.0163364
0.0163502
0.0163573
0.0161713
0.0162078
0.0162553
0.016297
0.0163355
0.0163696
0.0163976
0.0164194
0.0164337
0.0164408
0.0161714
0.0162148
0.0162702
0.0163214
0.0163681
0.0164102
0.0164454
0.0164729
0.0164929
0.0165057
0.0165119
0.016141
0.0162079
0.0162702
0.0163302
0.0163857
0.0164352
0.0164768
0.0165093
0.016533
0.0165493
0.0165592
0.0165639
0.0161243
0.0161901
0.0162554
0.0163214
0.0163857
0.0164439
0.0164923
0.0165297
0.0165567
0.0165751
0.0165869
0.0165937
0.0165968
0.0161859
0.0162252
0.0162971
0.0163682
0.0164353
0.0164923
0.0165363
0.0165675
0.0165883
0.0166012
0.0166086
0.0166126
0.0166142
0.0161146
0.0161901
0.0162605
0.0163356
0.0164103
0.0164769
0.0165298
0.0165676
0.0165923
0.0166071
0.0166151
0.0166189
0.0166204
0.0166208
0.016141
0.0162133
0.0162911
0.0163698
0.0164455
0.0165094
0.0165568
0.0165883
0.0166071
0.0166168
0.0166208
0.0166217
0.0166213
0.0166208
0.0161524
0.0162339
0.0163156
0.0163978
0.016473
0.0165332
0.0165752
0.0166013
0.0166151
0.0166208
0.0166217
0.0166204
0.0166186
0.0166174
0.0161832
0.0162544
0.0163367
0.0164197
0.0164931
0.0165495
0.016587
0.0166088
0.016619
0.0166218
0.0166204
0.0166175
0.0166147
0.016613
0.0161158
0.0161923
0.0162662
0.0163505
0.016434
0.0165059
0.0165595
0.0165939
0.0166128
0.0166205
0.0166214
0.0166187
0.0166147
0.0166113
0.0166093
0.0161234
0.016199
0.0162729
0.0163576
0.0164411
0.0165122
0.0165642
0.0165971
0.0166144
0.016621
0.016621
0.0166175
0.0166131
0.0166094
0.0166072
0.0157894
0.015796
0.0157906
0.0158088
0.0158075
0.0158321
0.0158398
0.0158453
0.0157982
0.0158484
0.0158413
0.0158605
0.0158778
0.0158955
0.0159057
0.0159117
0.0158112
0.0158415
0.0158716
0.015902
0.0159284
0.0159499
0.0159686
0.0159812
0.0159878
0.0158243
0.0158564
0.0158974
0.0159342
0.0159688
0.0160001
0.0160264
0.0160475
0.0160618
0.0160689
0.0158243
0.0158625
0.0159103
0.0159557
0.0159988
0.016039
0.0160741
0.0161026
0.0161242
0.0161383
0.0161453
0.0158113
0.0158565
0.0159102
0.0159635
0.0160151
0.0160638
0.0161069
0.0161425
0.0161699
0.0161897
0.0162024
0.0162085
0.0157983
0.0158416
0.0158974
0.0159557
0.0160152
0.0160723
0.0161234
0.0161659
0.0161989
0.0162232
0.01624
0.0162504
0.0162553
0.0158485
0.0158717
0.0159343
0.0159989
0.0160638
0.0161234
0.0161735
0.0162127
0.0162417
0.0162619
0.0162754
0.0162834
0.0162872
0.0157907
0.0158414
0.0159021
0.0159689
0.0160391
0.016107
0.0161659
0.0162128
0.0162475
0.0162719
0.0162883
0.0162986
0.0163046
0.0163072
0.015809
0.0158607
0.0159285
0.0160002
0.0160743
0.0161426
0.016199
0.0162417
0.016272
0.0162922
0.0163051
0.0163128
0.016317
0.0163189
0.0158077
0.015878
0.0159501
0.0160266
0.0161028
0.0161701
0.0162233
0.016262
0.0162883
0.0163051
0.0163152
0.0163209
0.0163238
0.0163249
0.0158323
0.0158957
0.0159688
0.0160478
0.0161244
0.0161899
0.0162401
0.0162755
0.0162987
0.0163129
0.0163209
0.0163251
0.016327
0.0163276
0.0157896
0.0158401
0.015906
0.0159815
0.016062
0.0161386
0.0162026
0.0162506
0.0162836
0.0163047
0.0163172
0.0163239
0.016327
0.0163283
0.0163286
0.0157961
0.0158456
0.015912
0.0159881
0.0160693
0.0161456
0.0162088
0.0162556
0.0162874
0.0163075
0.0163191
0.0163251
0.0163277
0.0163287
0.0163289
0.0154868
0.0154923
0.0154898
0.0155031
0.0154929
0.0155126
0.0155189
0.0155234
0.0154959
0.0155377
0.0155225
0.0155385
0.0155529
0.0155677
0.0155763
0.0155814
0.0155067
0.0155233
0.0155488
0.0155745
0.015597
0.0156154
0.0156315
0.0156425
0.0156483
0.0155081
0.0155359
0.0155708
0.0156027
0.0156328
0.0156604
0.015684
0.0157033
0.0157164
0.0157232
0.0155082
0.0155413
0.015582
0.0156214
0.0156596
0.0156961
0.0157289
0.0157563
0.0157775
0.0157917
0.0157988
0.0155067
0.015536
0.015582
0.0156281
0.0156743
0.0157193
0.0157607
0.0157963
0.0158247
0.0158458
0.0158596
0.0158664
0.015496
0.0155233
0.0155709
0.0156214
0.0156743
0.0157273
0.0157771
0.0158205
0.0158559
0.0158832
0.0159027
0.0159151
0.0159212
0.0155378
0.0155489
0.0156028
0.0156597
0.0157193
0.0157771
0.0158286
0.0158712
0.0159046
0.0159293
0.0159466
0.0159573
0.0159625
0.0154899
0.0155227
0.0155747
0.0156329
0.0156962
0.0157608
0.0158206
0.0158713
0.0159116
0.015942
0.0159638
0.0159786
0.0159878
0.0159921
0.0155033
0.0155386
0.0155972
0.0156606
0.0157291
0.0157964
0.015856
0.0159047
0.015942
0.0159693
0.0159884
0.0160011
0.0160088
0.0160123
0.0154931
0.0155531
0.0156156
0.0156842
0.0157565
0.0158249
0.0158833
0.0159294
0.0159639
0.0159885
0.0160053
0.0160162
0.0160227
0.0160256
0.0155129
0.015568
0.0156317
0.0157035
0.0157777
0.015846
0.0159029
0.0159467
0.0159788
0.0160012
0.0160162
0.0160258
0.0160314
0.016034
0.015487
0.0155192
0.0155766
0.0156428
0.0157167
0.015792
0.0158599
0.0159154
0.0159576
0.0159879
0.0160089
0.0160228
0.0160315
0.0160365
0.0160387
0.0154925
0.0155238
0.0155818
0.0156487
0.0157235
0.0157991
0.0158667
0.0159215
0.0159628
0.0159923
0.0160125
0.0160258
0.0160341
0.0160388
0.0160409
0.0152026
0.0152072
0.0152068
0.0152173
0.0152006
0.0152165
0.0152214
0.0152251
0.015212
0.0152474
0.0152265
0.0152398
0.0152517
0.0152639
0.0152708
0.0152751
0.0152214
0.0152279
0.0152494
0.0152711
0.0152899
0.0153052
0.0153186
0.0153278
0.0153328
0.0152149
0.0152389
0.0152684
0.0152955
0.0153211
0.0153447
0.0153651
0.0153819
0.0153935
0.0153996
0.015215
0.0152436
0.0152781
0.0153117
0.0153446
0.0153766
0.0154058
0.0154308
0.0154504
0.0154638
0.0154705
0.0152215
0.0152389
0.0152781
0.0153175
0.0153575
0.0153975
0.0154353
0.0154688
0.0154963
0.0155171
0.015531
0.0155379
0.0152121
0.0152279
0.0152685
0.0153117
0.0153575
0.0154048
0.0154508
0.0154924
0.0155276
0.0155555
0.015576
0.0155894
0.0155959
0.0152475
0.0152495
0.0152955
0.0153447
0.0153975
0.0154508
0.0155004
0.0155432
0.0155782
0.015605
0.0156243
0.0156366
0.0156426
0.0152069
0.0152267
0.0152712
0.0153212
0.0153766
0.0154354
0.0154924
0.0155433
0.0155856
0.0156191
0.0156441
0.0156618
0.0156729
0.0156783
0.0152174
0.0152399
0.01529
0.0153449
0.015406
0.0154689
0.0155277
0.0155782
0.0156191
0.0156506
0.0156737
0.0156897
0.0156997
0.0157045
0.0152008
0.0152519
0.0153054
0.0153653
0.0154309
0.0154964
0.0155556
0.0156051
0.0156442
0.0156737
0.0156951
0.0157097
0.0157188
0.0157231
0.0152168
0.0152642
0.0153189
0.0153821
0.0154506
0.0155173
0.0155762
0.0156244
0.0156619
0.0156898
0.0157098
0.0157233
0.0157316
0.0157356
0.0152028
0.0152217
0.0152711
0.0153281
0.0153938
0.0154641
0.0155313
0.0155896
0.0156368
0.0156731
0.0156999
0.0157189
0.0157317
0.0157395
0.0157432
0.0152074
0.0152255
0.0152755
0.0153332
0.0153999
0.0154709
0.0155382
0.0155963
0.0156429
0.0156785
0.0157047
0.0157232
0.0157357
0.0157433
0.0157469
0.0149327
0.0149365
0.0149378
0.014947
0.0149252
0.0149382
0.0149418
0.0149449
0.0149428
0.0149732
0.0149483
0.0149592
0.0149689
0.0149788
0.0149841
0.0149876
0.0149513
0.0149503
0.0149684
0.0149864
0.0150019
0.0150143
0.0150251
0.0150324
0.0150365
0.0149396
0.0149602
0.014985
0.0150075
0.0150287
0.0150484
0.0150653
0.0150793
0.0150892
0.0150943
0.0149396
0.0149644
0.0149935
0.0150215
0.0150491
0.0150761
0.0151012
0.0151229
0.0151403
0.0151522
0.0151583
0.0149514
0.0149602
0.0149935
0.0150265
0.0150602
0.0150944
0.0151276
0.0151577
0.0151829
0.0152024
0.0152156
0.0152222
0.0149428
0.0149504
0.0149851
0.0150215
0.0150602
0.0151009
0.0151416
0.0151797
0.0152128
0.0152397
0.01526
0.0152734
0.01528
0.0149733
0.0149684
0.0150076
0.0150491
0.0150945
0.0151417
0.0151872
0.015228
0.0152624
0.0152895
0.0153094
0.0153224
0.0153288
0.014938
0.0149484
0.0149865
0.0150288
0.0150761
0.0151277
0.0151797
0.015228
0.0152699
0.0153041
0.0153305
0.0153496
0.0153619
0.0153678
0.0149472
0.0149594
0.015002
0.0150485
0.0151013
0.0151578
0.0152129
0.0152624
0.0153041
0.0153375
0.0153627
0.0153807
0.0153922
0.0153978
0.0149254
0.0149691
0.0150144
0.0150655
0.0151231
0.0151831
0.0152399
0.0152896
0.0153306
0.0153628
0.0153869
0.0154039
0.0154147
0.0154199
0.0149385
0.014979
0.0150253
0.0150796
0.0151405
0.0152026
0.0152602
0.0153096
0.0153497
0.0153808
0.015404
0.0154202
0.0154304
0.0154353
0.0149329
0.0149421
0.0149844
0.0150327
0.0150894
0.0151525
0.0152158
0.0152736
0.0153227
0.0153621
0.0153924
0.0154148
0.0154305
0.0154403
0.015445
0.0149368
0.0149453
0.014988
0.0150369
0.0150946
0.0151587
0.0152225
0.0152803
0.0153291
0.0153681
0.015398
0.0154201
0.0154354
0.0154451
0.0154497
0.0146736
0.0146771
0.01468
0.0146882
0.0146635
0.0146741
0.0146761
0.0146789
0.0146851
0.0147119
0.0146844
0.0146933
0.0147008
0.0147084
0.0147121
0.014715
0.0146934
0.0146873
0.0147022
0.0147169
0.0147292
0.0147386
0.0147468
0.0147523
0.0147555
0.0146788
0.0146963
0.0147169
0.0147351
0.0147519
0.0147675
0.0147808
0.014792
0.0147997
0.0148039
0.0146788
0.0147002
0.0147244
0.0147471
0.0147691
0.014791
0.0148115
0.0148296
0.0148442
0.0148544
0.0148596
0.0146934
0.0146964
0.0147244
0.0147514
0.0147786
0.0148067
0.0148345
0.0148604
0.0148825
0.0148999
0.0149118
0.0149178
0.0146852
0.0146873
0.014717
0.0147471
0.0147786
0.0148122
0.0148469
0.0148802
0.01491
0.0149349
0.0149539
0.0149667
0.0149731
0.014712
0.0147022
0.0147351
0.0147692
0.0148067
0.0148469
0.014887
0.0149242
0.0149565
0.0149826
0.0150022
0.0150152
0.0150216
0.0146801
0.0146845
0.014717
0.014752
0.014791
0.0148346
0.0148802
0.0149242
0.0149638
0.0149971
0.0150235
0.015043
0.0150557
0.0150619
0.0146884
0.0146934
0.0147293
0.0147676
0.0148116
0.0148605
0.0149101
0.0149566
0.0149971
0.0150306
0.0150566
0.0150756
0.0150879
0.0150939
0.0146636
0.014701
0.0147388
0.014781
0.0148298
0.0148827
0.014935
0.0149828
0.0150236
0.0150567
0.0150821
0.0151005
0.0151123
0.0151181
0.0146743
0.0147087
0.014747
0.0147922
0.0148444
0.0149001
0.0149541
0.0150024
0.0150431
0.0150757
0.0151005
0.0151184
0.0151298
0.0151354
0.0146739
0.0146764
0.0147124
0.0147526
0.0148
0.0148547
0.0149121
0.0149669
0.0150154
0.0150559
0.015088
0.0151124
0.0151299
0.015141
0.0151465
0.0146775
0.0146792
0.0147154
0.0147558
0.0148043
0.01486
0.0149182
0.0149734
0.0150219
0.0150622
0.0150941
0.0151183
0.0151355
0.0151465
0.0151519
0.0144231
0.0144265
0.0144312
0.0144389
0.0144133
0.0144215
0.0144218
0.0144244
0.0144366
0.0144611
0.0144324
0.0144394
0.0144445
0.0144498
0.0144518
0.0144542
0.0144452
0.0144364
0.0144482
0.0144597
0.0144688
0.0144751
0.0144804
0.0144839
0.0144862
0.0144311
0.014445
0.0144614
0.014475
0.0144875
0.0144988
0.0145083
0.0145163
0.014522
0.0145251
0.014431
0.0144485
0.014468
0.0144851
0.0145015
0.0145179
0.0145337
0.0145478
0.0145594
0.0145676
0.0145718
0.0144452
0.014445
0.0144679
0.0144887
0.0145093
0.0145309
0.014553
0.0145741
0.0145927
0.0146076
0.0146179
0.0146232
0.0144366
0.0144363
0.0144614
0.0144851
0.0145093
0.0145355
0.0145634
0.0145914
0.0146172
0.0146393
0.0146565
0.0146683
0.0146742
0.0144612
0.0144482
0.014475
0.0145015
0.0145309
0.0145634
0.0145974
0.0146301
0.0146593
0.0146837
0.0147022
0.0147147
0.0147209
0.0144312
0.0144325
0.0144597
0.0144875
0.0145179
0.014553
0.0145914
0.0146301
0.0146662
0.0146975
0.014723
0.014742
0.0147547
0.0147609
0.014439
0.0144394
0.0144688
0.0144988
0.0145338
0.0145742
0.0146173
0.0146594
0.0146975
0.0147299
0.0147557
0.0147749
0.0147874
0.0147936
0.0144135
0.0144447
0.0144752
0.0145085
0.0145479
0.0145928
0.0146394
0.0146838
0.014723
0.0147558
0.0147816
0.0148005
0.0148128
0.0148189
0.0144217
0.01445
0.0144807
0.0145165
0.0145596
0.0146078
0.0146567
0.0147024
0.0147422
0.014775
0.0148006
0.0148192
0.0148313
0.0148373
0.0144233
0.0144221
0.0144521
0.0144842
0.0145223
0.0145678
0.0146182
0.0146686
0.0147149
0.0147549
0.0147876
0.014813
0.0148314
0.0148434
0.0148492
0.0144268
0.0144247
0.0144545
0.0144866
0.0145255
0.0145722
0.0146235
0.0146745
0.0147212
0.0147612
0.0147939
0.0148191
0.0148374
0.0148493
0.0148551
0.0141784
0.014182
0.0141894
0.0141974
0.014174
0.0141788
0.0141769
0.0141796
0.0141954
0.014219
0.0141909
0.0141957
0.014198
0.0142001
0.0142005
0.0142024
0.014205
0.014196
0.0142046
0.0142124
0.014218
0.0142207
0.0142227
0.0142241
0.0142256
0.0141969
0.0142043
0.014216
0.0142247
0.0142322
0.0142389
0.0142444
0.014249
0.0142524
0.0142545
0.0141969
0.0142075
0.0142216
0.0142327
0.0142429
0.0142535
0.0142642
0.0142741
0.0142825
0.0142887
0.014292
0.0142049
0.0142042
0.0142215
0.0142355
0.0142488
0.0142635
0.0142796
0.0142958
0.0143106
0.0143229
0.0143315
0.014336
0.0141954
0.0141959
0.014216
0.0142326
0.0142488
0.0142672
0.0142882
0.0143104
0.014332
0.014351
0.0143663
0.0143768
0.0143821
0.014219
0.0142045
0.0142247
0.0142428
0.0142635
0.0142882
0.0143156
0.0143434
0.0143692
0.0143913
0.0144085
0.0144202
0.014426
0.0141894
0.0141909
0.0142124
0.0142321
0.0142535
0.0142796
0.0143105
0.0143434
0.0143755
0.0144043
0.0144283
0.0144466
0.0144589
0.014465
0.0141975
0.0141958
0.014218
0.0142389
0.0142642
0.0142959
0.0143321
0.0143693
0.0144043
0.014435
0.01446
0.0144788
0.0144913
0.0144975
0.0141741
0.0141981
0.0142208
0.0142445
0.0142742
0.0143108
0.0143511
0.0143914
0.0144284
0.0144601
0.0144855
0.0145045
0.014517
0.0145232
0.014179
0.0142003
0.0142229
0.0142492
0.0142827
0.0143231
0.0143664
0.0144087
0.0144467
0.0144789
0.0145046
0.0145235
0.014536
0.0145421
0.0141787
0.0141771
0.0142008
0.0142244
0.0142527
0.0142889
0.0143318
0.014377
0.0144204
0.0144591
0.0144915
0.0145172
0.0145361
0.0145484
0.0145545
0.0141823
0.0141799
0.0142028
0.0142259
0.0142549
0.0142924
0.0143364
0.0143825
0.0144264
0.0144653
0.0144978
0.0145234
0.0145423
0.0145546
0.0145607
0.0139358
0.0139401
0.0139517
0.0139622
0.0139466
0.0139448
0.0139399
0.0139433
0.0139585
0.0139843
0.0139594
0.0139613
0.0139591
0.0139568
0.0139551
0.0139569
0.0139707
0.0139656
0.0139696
0.0139725
0.0139737
0.0139719
0.0139699
0.013969
0.0139696
0.0139872
0.0139724
0.0139782
0.0139805
0.0139821
0.0139837
0.0139848
0.0139859
0.0139871
0.0139883
0.013987
0.0139746
0.0139815
0.0139857
0.0139888
0.0139933
0.0139989
0.0140047
0.0140101
0.0140144
0.0140168
0.0139706
0.0139722
0.0139814
0.0139875
0.0139928
0.0140004
0.0140106
0.0140221
0.0140333
0.0140431
0.0140502
0.0140539
0.0139584
0.0139655
0.0139781
0.0139856
0.0139928
0.014003
0.0140172
0.0140341
0.0140517
0.0140678
0.0140811
0.0140905
0.0140953
0.0139842
0.0139695
0.0139804
0.0139888
0.0140003
0.0140172
0.0140385
0.0140617
0.0140842
0.0141041
0.0141199
0.0141308
0.0141363
0.0139516
0.0139593
0.0139724
0.0139821
0.0139933
0.0140105
0.0140341
0.0140617
0.0140899
0.0141162
0.0141387
0.0141561
0.0141679
0.0141738
0.0139622
0.0139613
0.0139736
0.0139837
0.0139989
0.0140221
0.0140517
0.0140843
0.0141163
0.0141451
0.0141691
0.0141874
0.0141997
0.0142058
0.0139467
0.0139591
0.0139719
0.0139848
0.0140048
0.0140334
0.0140679
0.0141042
0.0141387
0.0141691
0.014194
0.0142128
0.0142253
0.0142315
0.0139449
0.0139569
0.01397
0.013986
0.0140103
0.0140432
0.0140813
0.0141201
0.0141562
0.0141875
0.0142128
0.0142318
0.0142444
0.0142506
0.013936
0.0139401
0.0139553
0.0139692
0.0139874
0.0140146
0.0140504
0.0140907
0.0141311
0.0141681
0.0141999
0.0142254
0.0142445
0.0142571
0.0142633
0.0139404
0.0139436
0.0139572
0.0139699
0.0139886
0.0140172
0.0140543
0.0140956
0.0141367
0.0141741
0.0142061
0.0142317
0.0142508
0.0142634
0.0142696
0.013688
0.0136945
0.0137109
0.0137312
0.0137379
0.0137175
0.0137086
0.0137141
0.0137194
0.013757
0.0137381
0.0137349
0.0137252
0.0137154
0.0137113
0.0137132
0.0137407
0.013745
0.0137408
0.0137355
0.0137304
0.0137227
0.0137162
0.013713
0.013713
0.0138284
0.0137519
0.0137427
0.0137367
0.0137315
0.0137274
0.0137238
0.0137218
0.0137212
0.0137217
0.0138278
0.0137565
0.013744
0.013738
0.0137335
0.0137319
0.0137328
0.0137351
0.0137381
0.013741
0.0137427
0.0137404
0.0137516
0.0137438
0.0137387
0.0137353
0.0137361
0.0137412
0.0137489