/*--------------------------------*- C++ -*----------------------------------*\
| =========                 |                                                 |
| \\      /  F ield         | OpenFOAM: The Open Source CFD Toolbox           |
|  \\    /   O peration     | Version:  2.1.1                                 |
|   \\  /    A nd           | Web:      www.OpenFOAM.org                      |
|    \\/     M anipulation  |                                                 |
\*---------------------------------------------------------------------------*/
FoamFile
{
    version     2.0;
    format      ascii;
    class       volScalarField;
    location    "0.185";
    object      p;
}
// * * * * * * * * * * * * * * * * * * * * * * * * * * * * * * * * * * * * * //

dimensions      [0 2 -2 0 0 0 0];

internalField   nonuniform List<scalar> 
163952
(
0.0416802
0.0411039
0.036368
0.0311732
0.0299765
0.027365
0.0267749
0.0264512
0.036688
0.032346
0.0273045
0.0248147
0.0235711
0.022792
0.0224777
0.0223364
0.0337192
0.0279823
0.0244786
0.0228389
0.0219262
0.0213883
0.0210496
0.0208692
0.0207837
0.0335888
0.02609
0.0232556
0.021909
0.0211536
0.0206748
0.0203551
0.0201434
0.0200172
0.0199537
0.03359
0.0255479
0.0227313
0.021453
0.0207381
0.0202742
0.0199502
0.0197193
0.0195597
0.0194591
0.0194066
0.0337191
0.0260899
0.0227312
0.0213094
0.0205468
0.0200579
0.0197123
0.0194583
0.0192716
0.0191395
0.0190538
0.0190083
0.0366873
0.0279819
0.0232553
0.0214528
0.0205467
0.0199882
0.0195998
0.019313
0.0190972
0.0189365
0.0188215
0.0187459
0.0187054
0.0323455
0.0244781
0.0219086
0.0207378
0.0200577
0.0195997
0.019266
0.0190141
0.0188227
0.0186793
0.018576
0.0185077
0.0184708
0.0363674
0.0273039
0.0228383
0.0211532
0.0202739
0.019712
0.0193128
0.019014
0.0187858
0.0186113
0.0184802
0.0183853
0.0183223
0.0182882
0.0311726
0.024814
0.0219256
0.0206742
0.0199497
0.0194579
0.0190969
0.0188225
0.0186112
0.0184491
0.0183267
0.018238
0.0181789
0.0181468
0.0299757
0.0235703
0.0213876
0.0203545
0.0197187
0.0192711
0.0189361
0.0186789
0.0184799
0.0183266
0.0182106
0.0181263
0.01807
0.0180394
0.0273641
0.0227912
0.0210488
0.0201427
0.019559
0.0191389
0.018821
0.0185756
0.018385
0.0182378
0.0181262
0.0180449
0.0179906
0.0179611
0.0416792
0.0267739
0.0224767
0.0208683
0.0200164
0.0194583
0.0190531
0.0187453
0.0185072
0.0183219
0.0181786
0.0180698
0.0179905
0.0179375
0.0179086
0.0411028
0.0264501
0.0223354
0.0207827
0.0199527
0.0194058
0.0190075
0.0187047
0.0184702
0.0182877
0.0181464
0.0180391
0.0179609
0.0179085
0.01788
0.0235063
0.023563
0.0225011
0.0237103
0.0224414
0.0221272
0.0220823
0.0220614
0.0226058
0.0244198
0.022107
0.0217947
0.021534
0.0213432
0.0212684
0.0212166
0.0233839
0.0221588
0.0217408
0.0213288
0.020988
0.0207093
0.0205244
0.0204283
0.0203788
0.0221283
0.0218379
0.0214006
0.0209593
0.0205665
0.0202552
0.0200189
0.0198591
0.0197669
0.0197226
0.0221288
0.0217086
0.0212164
0.0207124
0.0202854
0.0199428
0.0196832
0.0194918
0.0193599
0.0192796
0.019241
0.0233838
0.0218379
0.0212163
0.0206323
0.0201433
0.0197652
0.0194759
0.019258
0.0190971
0.0189847
0.0189143
0.0188802
0.0226055
0.0221585
0.0214004
0.0207122
0.0201432
0.0197065
0.019377
0.0191264
0.018937
0.0187965
0.0186974
0.0186345
0.0186038
0.0244193
0.0217404
0.0209589
0.0202851
0.019765
0.0193769
0.0190839
0.0188605
0.0186908
0.0185645
0.0184747
0.0184173
0.0183892
0.0225004
0.0221063
0.0213283
0.020566
0.0199424
0.0194756
0.0191262
0.0188604
0.0186566
0.0185009
0.0183845
0.0183014
0.0182481
0.0182219
0.0237096
0.021794
0.0209873
0.0202546
0.0196827
0.0192575
0.0189367
0.0186906
0.0185008
0.0183552
0.0182458
0.0181676
0.0181172
0.0180925
0.0224405
0.0215332
0.0207085
0.0200182
0.0194912
0.0190966
0.0187961
0.0185641
0.0183842
0.0182457
0.0181415
0.0180667
0.0180185
0.0179948
0.0221263
0.0213423
0.0205236
0.0198584
0.0193592
0.0189841
0.0186969
0.0184743
0.0183011
0.0181674
0.0180666
0.0179943
0.0179475
0.0179245
0.0235053
0.0220813
0.0212674
0.0204274
0.019766
0.0192788
0.0189136
0.0186339
0.0184168
0.0182476
0.0181169
0.0180183
0.0179474
0.0179016
0.017879
0.023562
0.0220604
0.0212155
0.0203778
0.0197216
0.0192401
0.0188794
0.0186031
0.0183886
0.0182214
0.0180921
0.0179945
0.0179243
0.0178789
0.0178566
0.0198627
0.019877
0.0199419
0.0203238
0.0205474
0.0204317
0.0203241
0.0202835
0.0199486
0.0207927
0.0203425
0.0202644
0.0201696
0.0201307
0.0201013
0.0200758
0.020159
0.0203563
0.0202559
0.0201353
0.0199985
0.0198539
0.0197625
0.0197074
0.019677
0.0205061
0.0202892
0.0201641
0.0199841
0.0197921
0.0196261
0.0194862
0.0193861
0.0193237
0.0192924
0.0205068
0.0202439
0.0200909
0.0198692
0.0196442
0.0194415
0.0192753
0.0191439
0.0190492
0.0189891
0.0189595
0.0201587
0.0202892
0.0200908
0.0198312
0.0195652
0.0193316
0.019135
0.0189766
0.0188538
0.0187653
0.0187086
0.0186807
0.0199483
0.020356
0.0201639
0.019869
0.0195652
0.019294
0.0190655
0.0188781
0.0187289
0.0186144
0.0185318
0.0184785
0.0184523
0.0207921
0.0202554
0.0199837
0.0196439
0.0193314
0.0190654
0.0188456
0.0186677
0.0185272
0.0184198
0.0183422
0.018292
0.0182674
0.0199412
0.0203419
0.0201347
0.0197916
0.0194411
0.0191347
0.0188779
0.0186676
0.0184985
0.0183654
0.0182638
0.0181903
0.0181427
0.0181193
0.020323
0.0202637
0.0199978
0.0196255
0.0192748
0.0189762
0.0187286
0.018527
0.0183653
0.0182381
0.018141
0.0180708
0.0180252
0.0180027
0.0205465
0.0201687
0.0198531
0.0194855
0.0191433
0.0188533
0.018614
0.0184194
0.0182635
0.0181409
0.0180472
0.0179794
0.0179353
0.0179136
0.0204307
0.0201298
0.0197616
0.0193853
0.0190484
0.0187647
0.0185312
0.0183418
0.01819
0.0180705
0.0179793
0.0179132
0.0178702
0.017849
0.0198616
0.0203231
0.0201002
0.0197065
0.0193228
0.0189883
0.0187078
0.0184778
0.0182915
0.0181423
0.0180248
0.0179351
0.0178701
0.0178278
0.017807
0.0198758
0.0202824
0.0200747
0.0196759
0.0192914
0.0189586
0.0186799
0.0184516
0.0182667
0.0181188
0.0180023
0.0179133
0.0178488
0.0178069
0.0177862
0.0185156
0.0185259
0.0186329
0.0188599
0.0191909
0.0191905
0.019138
0.0191159
0.0186478
0.0190738
0.0191139
0.0191014
0.019072
0.0190734
0.019072
0.0190684
0.0187886
0.0191178
0.0191052
0.0190981
0.0190693
0.0190175
0.0189816
0.0189561
0.0189418
0.019221
0.019121
0.0191149
0.0190646
0.0189983
0.018934
0.0188711
0.0188211
0.0187864
0.018768
0.0192215
0.0191012
0.0190961
0.019033
0.0189434
0.01885
0.018764
0.0186894
0.0186322
0.018594
0.0185745
0.0187883
0.0191209
0.019096
0.0190215
0.0189127
0.0187964
0.018686
0.0185888
0.0185083
0.0184477
0.0184076
0.0183875
0.0186474
0.0191174
0.0191147
0.0190328
0.0189126
0.0187776
0.0186455
0.0185258
0.0184239
0.0183417
0.0182805
0.0182401
0.0182199
0.0190732
0.0191047
0.0190642
0.0189431
0.0187962
0.0186454
0.0185045
0.018381
0.0182779
0.0181961
0.0181355
0.0180956
0.0180757
0.0186322
0.0191132
0.0190975
0.0189978
0.0188495
0.0186856
0.0185256
0.0183809
0.0182566
0.0181542
0.0180735
0.018014
0.0179748
0.0179554
0.018859
0.0191005
0.0190686
0.0189333
0.0187635
0.0185883
0.0184235
0.0182777
0.018154
0.0180529
0.0179736
0.0179153
0.0178769
0.0178579
0.01919
0.0190711
0.0190166
0.0188703
0.0186887
0.0185077
0.0183413
0.0181958
0.0180733
0.0179735
0.0178955
0.0178382
0.0178005
0.0177819
0.0191895
0.0190724
0.0189807
0.0188203
0.0186314
0.018447
0.0182799
0.018135
0.0180136
0.017915
0.0178381
0.0177816
0.0177444
0.017726
0.0185145
0.0191369
0.019071
0.0189551
0.0187854
0.0185931
0.0184068
0.0182394
0.018095
0.0179744
0.0178766
0.0178003
0.0177443
0.0177076
0.0176893
0.0185247
0.0191147
0.0190673
0.0189407
0.018767
0.0185735
0.0183867
0.0182192
0.0180751
0.0179548
0.0178574
0.0177815
0.0177258
0.0176892
0.0176711
0.0177978
0.0178059
0.017859
0.0180076
0.0182242
0.0182676
0.0182579
0.0182562
0.0178839
0.0181164
0.0182244
0.0182434
0.0182488
0.0182611
0.0182692
0.0182737
0.0179738
0.0182258
0.018252
0.0182851
0.0183033
0.0183027
0.0182996
0.0182934
0.018289
0.0182582
0.0182477
0.0182916
0.0183048
0.0183049
0.0182972
0.0182817
0.0182655
0.0182517
0.0182436
0.0182584
0.0182423
0.0182983
0.0183137
0.0183011
0.0182757
0.0182441
0.0182111
0.0181832
0.0181631
0.0181524
0.0179734
0.0182476
0.0182981
0.0183161
0.018298
0.0182587
0.0182108
0.0181618
0.0181171
0.0180813
0.0180565
0.0180438
0.0178835
0.0182254
0.0182913
0.0183134
0.0182979
0.0182524
0.018192
0.0181279
0.0180677
0.0180159
0.0179755
0.017948
0.0179341
0.0181158
0.0182515
0.0183044
0.0183007
0.0182584
0.0181919
0.018116
0.0180414
0.0179744
0.0179184
0.0178755
0.0178465
0.017832
0.0178582
0.0182236
0.0182844
0.0183043
0.0182753
0.0182104
0.0181277
0.0180413
0.0179601
0.0178891
0.0178308
0.0177865
0.0177569
0.017742
0.0180066
0.0182425
0.0183025
0.0182965
0.0182435
0.0181614
0.0180674
0.0179741
0.017889
0.0178157
0.0177562
0.0177113
0.0176814
0.0176664
0.0182231
0.0182478
0.0183018
0.0182809
0.0182104
0.0181165
0.0180154
0.017918
0.0178306
0.0177561
0.017696
0.0176509
0.0176208
0.0176058
0.0182664
0.01826
0.0182985
0.0182646
0.0181823
0.0180806
0.0179749
0.017875
0.0177862
0.0177111
0.0176508
0.0176056
0.0175755
0.0175605
0.0177966
0.0182567
0.018268
0.0182923
0.0182506
0.0181621
0.0180557
0.0179473
0.0178459
0.0177564
0.017681
0.0176206
0.0175754
0.0175454
0.0175304
0.0178047
0.018255
0.0182724
0.0182879
0.0182425
0.0181514
0.0180429
0.0179333
0.0178313
0.0177414
0.0176659
0.0176055
0.0175603
0.0175303
0.0175153
0.0172879
0.0172945
0.0173072
0.0174001
0.0175255
0.0175757
0.0175808
0.0175868
0.0173295
0.0174735
0.0175556
0.0175866
0.0176078
0.017627
0.0176375
0.0176435
0.0173843
0.0175561
0.0175976
0.0176415
0.0176754
0.0176959
0.0177096
0.0177152
0.0177169
0.0175565
0.0175833
0.0176415
0.0176799
0.0177089
0.0177285
0.0177385
0.0177427
0.0177428
0.017742
0.0175566
0.0175874
0.0176581
0.0177039
0.0177292
0.0177419
0.017744
0.0177392
0.0177322
0.0177258
0.017722
0.0173839
0.0175831
0.0176579
0.0177122
0.0177397
0.0177467
0.0177407
0.0177267
0.0177096
0.0176937
0.0176818
0.0176754
0.017329
0.0175556
0.0176411
0.0177036
0.0177396
0.017748
0.017737
0.0177148
0.0176881
0.0176617
0.0176395
0.0176236
0.0176154
0.0174729
0.0175969
0.0176794
0.0177288
0.0177464
0.0177369
0.0177101
0.0176754
0.0176393
0.0176065
0.0175798
0.0175613
0.0175518
0.0173064
0.0175548
0.0176408
0.0177082
0.0177414
0.0177403
0.0177145
0.0176753
0.0176313
0.0175886
0.0175513
0.0175218
0.0175015
0.0174911
0.0173991
0.0175856
0.0176745
0.0177277
0.0177433
0.0177262
0.0176877
0.0176391
0.0175885
0.0175414
0.0175012
0.0174697
0.0174483
0.0174374
0.0175244
0.0176067
0.0176948
0.0177376
0.0177384
0.0177089
0.0176612
0.017606
0.0175511
0.017501
0.0174588
0.0174262
0.017404
0.0173928
0.0175745
0.0176259
0.0177085
0.0177416
0.0177313
0.0176929
0.0176388
0.0175793
0.0175214
0.0174695
0.0174261
0.0173927
0.01737
0.0173586
0.0172866
0.0175795
0.0176362
0.0177139
0.0177417
0.0177248
0.0176809
0.0176229
0.0175606
0.017501
0.0174479
0.0174038
0.0173699
0.017347
0.0173355
0.0172932
0.0175854
0.0176421
0.0177156
0.0177408
0.0177209
0.0176744
0.0176145
0.017551
0.0174905
0.0174369
0.0173924
0.0173584
0.0173354
0.0173238
0.0168547
0.0168622
0.0168554
0.016915
0.0169822
0.017028
0.017037
0.0170448
0.0168733
0.0169746
0.017022
0.0170533
0.0170784
0.017101
0.017113
0.0171197
0.0169076
0.0170222
0.0170657
0.0171096
0.0171459
0.0171725
0.017193
0.0172046
0.0172098
0.017009
0.0170477
0.0171062
0.0171518
0.0171908
0.017222
0.0172443
0.0172594
0.0172677
0.0172713
0.017009
0.0170551
0.0171245
0.0171794
0.0172212
0.0172531
0.0172745
0.0172872
0.0172942
0.0172973
0.0172984
0.0169072
0.0170474
0.0171242
0.0171893
0.0172374
0.01727
0.01729
0.0172996
0.0173021
0.0173012
0.0172992
0.0172977
0.0168727
0.0170216
0.0171058
0.0171791
0.0172372
0.0172756
0.0172962
0.0173033
0.0173015
0.0172951
0.0172876
0.0172813
0.0172778
0.0169738
0.0170649
0.0171512
0.0172208
0.0172697
0.017296
0.0173039
0.0172994
0.0172881
0.0172744
0.0172618
0.0172523
0.0172472
0.0168544
0.0170211
0.0171087
0.0171901
0.0172525
0.0172895
0.017303
0.0172992
0.0172851
0.0172663
0.0172473
0.0172309
0.0172191
0.0172129
0.0169139
0.0170522
0.0171449
0.0172211
0.0172738
0.0172989
0.0173011
0.0172878
0.0172662
0.0172419
0.017219
0.0171999
0.0171864
0.0171794
0.0169809
0.0170771
0.0171714
0.0172432
0.0172863
0.0173014
0.0172945
0.017274
0.017247
0.0172188
0.0171931
0.0171722
0.0171576
0.01715
0.0170266
0.0170997
0.0171918
0.0172583
0.0172932
0.0173004
0.0172869
0.0172612
0.0172305
0.0171996
0.0171721
0.0171499
0.0171345
0.0171266
0.0168533
0.0170356
0.0171116
0.0172032
0.0172665
0.0172962
0.0172982
0.0172805
0.0172516
0.0172185
0.017186
0.0171573
0.0171344
0.0171185
0.0171104
0.0168607
0.0170432
0.0171182
0.0172084
0.01727
0.0172972
0.0172966
0.0172768
0.0172464
0.0172122
0.0171789
0.0171496
0.0171264
0.0171103
0.017102
0.016465
0.016473
0.0164626
0.0165014
0.0165338
0.0165719
0.0165815
0.0165891
0.0164758
0.0165531
0.0165747
0.0166021
0.0166256
0.016648
0.0166603
0.0166673
0.0164986
0.0165748
0.0166148
0.0166548
0.0166888
0.0167153
0.0167372
0.0167508
0.0167574
0.0165563
0.0165961
0.01665
0.0166951
0.0167356
0.0167701
0.016797
0.0168171
0.0168295
0.0168355
0.0165562
0.0166037
0.0166669
0.0167218
0.0167687
0.0168086
0.0168397
0.0168621
0.0168775
0.0168866
0.0168907
0.0164981
0.0165958
0.0166666
0.0167313
0.0167865
0.0168314
0.0168657
0.0168897
0.0169052
0.0169145
0.0169195
0.0169216
0.016475
0.0165741
0.0166495
0.0167214
0.0167863
0.0168389
0.0168777
0.0169036
0.016919
0.0169271
0.0169306
0.0169317
0.0169319
0.0165522
0.0166139
0.0166944
0.0167682
0.016831
0.0168775
0.0169077
0.0169244
0.0169316
0.0169329
0.0169315
0.0169294
0.016928
0.0164615
0.0165736
0.0166538
0.0167347
0.0168079
0.0168651
0.0169032
0.0169242
0.0169324
0.0169325
0.0169284
0.016923
0.0169184
0.0169158
0.0165001
0.0166009
0.0166876
0.016769
0.0168388
0.016889
0.0169185
0.0169312
0.0169324
0.0169269
0.0169185
0.0169101
0.0169036
0.0169001
0.0165324
0.0166242
0.016714
0.0167958
0.0168611
0.0169043
0.0169264
0.0169324
0.0169281
0.0169184
0.0169069
0.0168964
0.0168885
0.0168842
0.0165703
0.0166465
0.0167357
0.0168158
0.0168763
0.0169135
0.0169298
0.0169308
0.0169226
0.0169098
0.0168962
0.0168842
0.0168753
0.0168707
0.0164634
0.0165799
0.0166587
0.0167492
0.0168281
0.0168853
0.0169184
0.0169308
0.0169286
0.0169178
0.0169032
0.0168882
0.0168752
0.0168658
0.0168608
0.0164712
0.0165874
0.0166656
0.0167558
0.016834
0.0168894
0.0169204
0.0169309
0.016927
0.016915
0.0168995
0.0168838
0.0168704
0.0168607
0.0168556
0.0161101
0.0161175
0.0161098
0.0161355
0.0161476
0.0161779
0.0161868
0.0161934
0.0161194
0.0161812
0.0161857
0.0162087
0.0162289
0.0162491
0.0162605
0.0162671
0.0161359
0.0161859
0.0162209
0.0162559
0.0162861
0.0163102
0.0163307
0.0163441
0.016351
0.0161666
0.0162035
0.016251
0.0162924
0.0163304
0.016364
0.0163913
0.0164127
0.0164266
0.0164335
0.0161665
0.0162102
0.0162657
0.0163164
0.0163626
0.016404
0.0164385
0.0164653
0.0164849
0.0164972
0.0165032
0.0161353
0.0162031
0.0162654
0.016325
0.0163799
0.0164286
0.0164694
0.0165011
0.0165241
0.0165398
0.0165493
0.0165538
0.0161186
0.0161851
0.0162503
0.016316
0.0163797
0.0164369
0.0164844
0.0165209
0.0165471
0.0165648
0.016576
0.0165824
0.0165853
0.0161801
0.0162199
0.0162915
0.016362
0.0164282
0.0164842
0.0165271
0.0165574
0.0165773
0.0165895
0.0165965
0.0166
0.0166015
0.0161085
0.0161844
0.0162547
0.0163294
0.0164032
0.0164688
0.0165205
0.0165572
0.016581
0.0165949
0.0166022
0.0166055
0.0166067
0.0166069
0.016134
0.0162072
0.0162847
0.0163628
0.0164375
0.0165002
0.0165465
0.0165769
0.0165947
0.0166036
0.0166069
0.0166073
0.0166065
0.0166058
0.0161459
0.0162273
0.0163087
0.01639
0.0164642
0.0165231
0.016564
0.0165889
0.0166019
0.0166067
0.016607
0.0166051
0.0166029
0.0166016
0.0161761
0.0162473
0.0163291
0.0164112
0.0164835
0.0165387
0.0165751
0.0165957
0.016605
0.0166069
0.016605
0.0166015
0.0165983
0.0165965
0.0161082
0.0161849
0.0162587
0.0163424
0.016425
0.0164958
0.0165481
0.0165814
0.0165991
0.016606
0.016606
0.0166026
0.0165982
0.0165944
0.0165922
0.0161155
0.0161914
0.0162652
0.0163492
0.0164318
0.0165016
0.0165525
0.0165841
0.0166005
0.0166061
0.0166052
0.0166011
0.0165962
0.016592
0.0165897
0.0157845
0.0157908
0.0157868
0.0158045
0.0158037
0.0158277
0.0158351
0.0158406
0.0157942
0.0158447
0.0158379
0.0158568
0.0158738
0.015891
0.0159009
0.0159067
0.0158069
0.0158385
0.0158684
0.0158984
0.0159243
0.0159453
0.0159634
0.0159756
0.0159819
0.0158204
0.015853
0.015894
0.0159305
0.0159645
0.0159951
0.0160206
0.0160411
0.0160548
0.0160617
0.0158202
0.0158589
0.0159066
0.0159516
0.0159941
0.0160334
0.0160676
0.0160952
0.0161161
0.0161297
0.0161364
0.0158062
0.0158525
0.0159063
0.0159591
0.01601
0.0160576
0.0160996
0.0161342
0.0161608
0.0161798
0.0161919
0.0161978
0.0157932
0.0158375
0.0158932
0.0159511
0.0160097
0.0160658
0.0161156
0.0161569
0.0161889
0.0162123
0.0162283
0.0162382
0.0162429
0.0158435
0.0158672
0.0159295
0.0159933
0.0160571
0.0161154
0.0161641
0.0162021
0.01623
0.0162493
0.0162621
0.0162697
0.0162732
0.0157853
0.0158363
0.015897
0.0159633
0.0160324
0.0160989
0.0161564
0.0162019
0.0162354
0.0162587
0.0162742
0.0162839
0.0162894
0.0162918
0.0158027
0.0158551
0.0159227
0.0159937
0.0160664
0.0161332
0.0161882
0.0162295
0.0162585
0.0162777
0.0162898
0.0162968
0.0163006
0.0163022
0.0158017
0.015872
0.0159435
0.016019
0.0160939
0.0161596
0.0162114
0.0162487
0.0162738
0.0162896
0.0162988
0.0163039
0.0163063
0.0163072
0.0158256
0.015889
0.0159615
0.0160394
0.0161145
0.0161785
0.0162272
0.0162612
0.0162833
0.0162965
0.0163037
0.0163072
0.0163087
0.0163091
0.0157822
0.015833
0.0158987
0.0159736
0.016053
0.016128
0.0161905
0.016237
0.0162687
0.0162886
0.0163001
0.0163059
0.0163085
0.0163093
0.0163094
0.0157885
0.0158383
0.0159045
0.0159799
0.0160598
0.0161347
0.0161962
0.0162416
0.0162721
0.0162909
0.0163015
0.0163067
0.0163088
0.0163093
0.0163093
0.0154825
0.0154877
0.015487
0.0154997
0.0154901
0.015509
0.015515
0.0155194
0.0154928
0.015535
0.0155203
0.0155359
0.0155499
0.015564
0.0155721
0.015577
0.0155031
0.0155214
0.0155467
0.0155721
0.0155939
0.0156116
0.0156269
0.0156373
0.0156428
0.0155051
0.0155336
0.0155686
0.0156
0.0156294
0.0156561
0.0156787
0.0156971
0.0157096
0.015716
0.0155049
0.0155386
0.0155793
0.0156183
0.0156557
0.0156911
0.0157227
0.015749
0.0157692
0.0157827
0.0157895
0.0155022
0.015533
0.015579
0.0156247
0.0156698
0.0157135
0.0157536
0.0157878
0.0158151
0.0158353
0.0158484
0.0158549
0.0154916
0.0155203
0.0155677
0.0156177
0.0156695
0.0157211
0.0157693
0.0158112
0.0158453
0.0158713
0.0158899
0.0159018
0.0159075
0.0155336
0.0155453
0.0155988
0.0156548
0.0157129
0.015769
0.0158188
0.0158598
0.0158918
0.0159154
0.0159318
0.015942
0.0159468
0.0154852
0.0155185
0.0155704
0.015628
0.0156899
0.0157527
0.0158106
0.0158596
0.0158983
0.0159273
0.0159481
0.0159621
0.0159706
0.0159747
0.0154976
0.0155338
0.0155921
0.0156544
0.0157213
0.0157867
0.0158444
0.0158913
0.0159271
0.0159531
0.0159711
0.015983
0.0159902
0.0159934
0.0154877
0.0155477
0.0156095
0.0156768
0.0157474
0.0158138
0.0158703
0.0159147
0.0159476
0.0159709
0.0159867
0.0159969
0.0160028
0.0160055
0.0155066
0.0155617
0.0156247
0.0156951
0.0157674
0.0158338
0.0158887
0.0159308
0.0159614
0.0159826
0.0159967
0.0160055
0.0160106
0.0160129
0.0154799
0.0155124
0.0155696
0.015635
0.0157075
0.0157808
0.0158468
0.0159004
0.0159409
0.0159698
0.0159895
0.0160024
0.0160104
0.0160149
0.0160169
0.015485
0.0155168
0.0155745
0.0156404
0.0157138
0.0157875
0.0158531
0.015906
0.0159456
0.0159736
0.0159927
0.016005
0.0160125
0.0160167
0.0160186
0.015199
0.0152031
0.0152051
0.0152156
0.0151988
0.0152139
0.0152182
0.0152218
0.01521
0.015246
0.0152257
0.0152384
0.0152498
0.0152611
0.0152673
0.0152713
0.0152188
0.0152276
0.0152488
0.01527
0.015288
0.0153023
0.0153147
0.015323
0.0153276
0.0152129
0.0152378
0.0152675
0.0152941
0.0153188
0.0153412
0.0153603
0.0153759
0.0153866
0.0153922
0.0152126
0.015242
0.0152767
0.0153097
0.0153416
0.0153721
0.0153999
0.0154233
0.0154417
0.0154542
0.0154605
0.0152177
0.0152371
0.0152763
0.015315
0.0153537
0.0153921
0.0154283
0.01546
0.015486
0.0155056
0.0155186
0.015525
0.0152085
0.0152262
0.0152665
0.0153089
0.0153534
0.0153989
0.0154428
0.0154825
0.0155159
0.0155423
0.0155617
0.0155743
0.0155804
0.0152442
0.0152471
0.0152926
0.0153405
0.0153914
0.0154425
0.0154898
0.0155307
0.0155638
0.0155892
0.0156074
0.015619
0.0156247
0.0152029
0.0152235
0.015268
0.015317
0.0153707
0.0154272
0.0154818
0.0155303
0.0155707
0.0156024
0.0156261
0.0156428
0.0156532
0.0156583
0.0152132
0.015236
0.0152857
0.0153392
0.0153982
0.0154587
0.0155149
0.0155632
0.0156021
0.015632
0.0156538
0.0156689
0.0156783
0.0156827
0.0151961
0.0152471
0.0152998
0.0153581
0.0154215
0.0154844
0.0155411
0.0155884
0.0156256
0.0156536
0.0156737
0.0156874
0.0156959
0.0156999
0.0152109
0.0152583
0.0153121
0.0153735
0.0154397
0.0155038
0.0155602
0.0156063
0.015642
0.0156684
0.0156872
0.0156999
0.0157076
0.0157112
0.015196
0.0152152
0.0152644
0.0153204
0.0153842
0.015452
0.0155167
0.0155727
0.0156178
0.0156523
0.0156776
0.0156954
0.0157074
0.0157147
0.0157181
0.0152001
0.0152188
0.0152684
0.0153249
0.0153897
0.0154583
0.0155231
0.0155787
0.0156233
0.0156571
0.0156819
0.0156993
0.0157109
0.0157179
0.0157211
0.0149297
0.014933
0.0149374
0.0149463
0.0149249
0.0149367
0.0149394
0.0149423
0.0149418
0.0149734
0.0149494
0.0149595
0.0149683
0.0149769
0.0149813
0.0149844
0.0149496
0.014952
0.0149697
0.0149871
0.0150014
0.0150124
0.0150217
0.015028
0.0150315
0.0149386
0.0149606
0.0149858
0.0150077
0.0150277
0.0150457
0.0150609
0.0150734
0.015082
0.0150865
0.0149382
0.0149639
0.0149934
0.0150208
0.015047
0.0150722
0.0150953
0.0151151
0.0151308
0.0151416
0.0151471
0.0149483
0.0149597
0.0149929
0.0150251
0.0150572
0.0150894
0.0151203
0.0151482
0.0151714
0.0151893
0.0152014
0.0152074
0.01494
0.0149503
0.0149844
0.0150198
0.0150567
0.0150951
0.0151332
0.0151688
0.0151996
0.0152247
0.0152434
0.0152558
0.015262
0.0149712
0.0149676
0.0150059
0.0150456
0.0150885
0.0151328
0.0151755
0.0152137
0.0152459
0.0152712
0.0152898
0.0153019
0.0153078
0.0149348
0.0149467
0.0149846
0.0150256
0.0150705
0.015119
0.0151679
0.0152133
0.0152527
0.0152848
0.0153095
0.0153274
0.0153389
0.0153444
0.0149433
0.0149565
0.0149987
0.0150433
0.0150933
0.0151465
0.0151985
0.0152451
0.0152844
0.0153158
0.0153395
0.0153564
0.0153672
0.0153724
0.0149215
0.0149651
0.0150094
0.0150583
0.0151129
0.0151696
0.0152232
0.0152702
0.0153089
0.0153392
0.0153619
0.0153779
0.015388
0.0153928
0.0149332
0.0149736
0.0150186
0.0150706
0.0151284
0.0151873
0.0152418
0.0152886
0.0153265
0.0153559
0.0153776
0.0153928
0.0154024
0.015407
0.0149262
0.0149359
0.0149779
0.0150248
0.0150791
0.0151391
0.0151992
0.015254
0.0153005
0.0153378
0.0153664
0.0153875
0.0154022
0.0154114
0.0154158
0.0149295
0.0149388
0.014981
0.0150283
0.0150836
0.0151445
0.0152052
0.0152601
0.0153063
0.0153432
0.0153714
0.0153921
0.0154065
0.0154156
0.0154198
0.0146715
0.0146742
0.0146812
0.0146887
0.0146647
0.0146741
0.0146748
0.014677
0.0146855
0.0147141
0.0146878
0.0146956
0.0147018
0.0147078
0.01471
0.0147123
0.0146928
0.0146914
0.014706
0.0147197
0.0147303
0.0147379
0.0147441
0.014748
0.0147504
0.0146792
0.0146986
0.0147197
0.0147371
0.0147523
0.0147657
0.0147767
0.0147857
0.0147918
0.0147952
0.0146786
0.0147007
0.0147258
0.0147477
0.0147681
0.0147875
0.0148055
0.014821
0.0148335
0.0148421
0.0148466
0.0146911
0.0146975
0.0147251
0.014751
0.0147762
0.0148016
0.0148265
0.0148495
0.0148692
0.0148846
0.0148951
0.0149004
0.0146833
0.0146893
0.014718
0.0147465
0.0147756
0.0148062
0.0148374
0.0148676
0.0148946
0.014917
0.0149343
0.0149458
0.0149516
0.0147114
0.0147034
0.0147349
0.0147664
0.0148005
0.0148369
0.0148734
0.0149074
0.0149369
0.0149609
0.0149789
0.0149908
0.0149966
0.0146779
0.0146845
0.0147167
0.0147497
0.0147854
0.014825
0.0148665
0.0149069
0.0149433
0.0149741
0.0149985
0.0150166
0.0150283
0.0150341
0.0146852
0.014692
0.014727
0.0147627
0.014803
0.0148476
0.0148931
0.014936
0.0149737
0.0150048
0.0150291
0.0150467
0.0150582
0.0150637
0.0146607
0.0146979
0.0147343
0.0147735
0.0148183
0.0148669
0.0149153
0.0149597
0.0149978
0.0150287
0.0150525
0.0150697
0.0150807
0.0150861
0.0146698
0.0147037
0.0147403
0.0147823
0.0148306
0.0148822
0.0149323
0.0149774
0.0150155
0.0150461
0.0150694
0.0150861
0.0150968
0.015102
0.0146673
0.0146705
0.014706
0.0147442
0.0147885
0.0148392
0.0148926
0.0149438
0.0149892
0.0150271
0.0150573
0.0150802
0.0150966
0.0151071
0.0151121
0.0146701
0.0146728
0.0147083
0.0147467
0.0147918
0.0148436
0.0148978
0.0149494
0.0149949
0.0150327
0.0150627
0.0150854
0.0151016
0.0151119
0.0151169
0.0144218
0.014424
0.0144344
0.0144408
0.0144166
0.0144235
0.0144216
0.0144233
0.0144388
0.0144659
0.0144389
0.0144442
0.0144475
0.0144505
0.0144504
0.0144518
0.0144461
0.0144438
0.0144553
0.0144652
0.0144719
0.0144755
0.0144781
0.0144794
0.0144806
0.0144326
0.0144494
0.0144665
0.0144792
0.0144893
0.0144976
0.014504
0.0145091
0.0145126
0.0145146
0.014432
0.0144499
0.0144708
0.014487
0.0145012
0.0145144
0.0145267
0.0145375
0.0145464
0.0145526
0.0145558
0.0144438
0.0144479
0.01447
0.0144893
0.014507
0.0145251
0.0145434
0.0145609
0.0145764
0.0145888
0.0145974
0.0146018
0.014436
0.0144411
0.0144643
0.0144855
0.0145063
0.0145284
0.014552
0.0145759
0.0145983
0.0146175
0.0146326
0.0146428
0.014648
0.0144625
0.0144521
0.0144765
0.0144991
0.0145237
0.0145514
0.0145807
0.0146094
0.0146354
0.0146572
0.0146739
0.0146851
0.0146907
0.0144304
0.0144349
0.0144615
0.0144861
0.0145118
0.0145415
0.0145747
0.0146089
0.0146412
0.0146695
0.0146927
0.0147102
0.0147218
0.0147275
0.0144365
0.0144398
0.0144678
0.014494
0.0145237
0.0145586
0.0145966
0.0146344
0.014669
0.0146987
0.0147226
0.0147403
0.0147519
0.0147576
0.0144118
0.0144428
0.0144711
0.0145001
0.0145342
0.0145737
0.0146154
0.0146558
0.0146919
0.0147222
0.0147461
0.0147638
0.0147753
0.014781
0.0144183
0.0144456
0.0144735
0.0145051
0.0145429
0.0145859
0.0146303
0.0146722
0.014709
0.0147396
0.0147635
0.0147809
0.0147923
0.0147979
0.0144167
0.0144163
0.0144455
0.0144748
0.0145086
0.0145491
0.0145945
0.0146405
0.0146832
0.0147204
0.014751
0.0147747
0.014792
0.0148033
0.0148088
0.014419
0.0144183
0.0144471
0.0144762
0.0145107
0.0145524
0.0145989
0.0146456
0.0146887
0.014726
0.0147565
0.0147802
0.0147974
0.0148085
0.014814
0.0141783
0.0141799
0.0141949
0.0142009
0.0141799
0.0141839
0.0141779
0.0141792
0.0141994
0.0142272
0.0142017
0.0142039
0.0142035
0.0142028
0.0141995
0.0141999
0.0142077
0.0142086
0.0142164
0.0142213
0.0142231
0.0142222
0.0142204
0.0142185
0.0142183
0.0141989
0.0142114
0.0142239
0.0142312
0.0142353
0.0142377
0.014239
0.0142398
0.0142403
0.0142409
0.014198
0.014209
0.0142255
0.0142353
0.0142425
0.0142489
0.0142551
0.0142608
0.0142658
0.0142694
0.0142714
0.0142048
0.0142095
0.0142245
0.0142363
0.0142457
0.0142558
0.0142671
0.0142788
0.0142898
0.014299
0.0143056
0.014309
0.0141959
0.0142051
0.0142211
0.0142334
0.0142447
0.0142576
0.0142731
0.0142905
0.0143078
0.0143235
0.0143362
0.0143451
0.0143496
0.014223
0.0142122
0.0142276
0.0142398
0.014254
0.0142723
0.0142941
0.0143171
0.0143392
0.0143584
0.0143736
0.0143839
0.014389
0.0141901
0.0141967
0.0142166
0.0142311
0.0142456
0.0142646
0.0142889
0.0143164
0.0143442
0.0143697
0.0143912
0.0144078
0.0144189
0.0144245
0.0141957
0.0141985
0.014218
0.0142332
0.0142513
0.0142758
0.0143058
0.0143379
0.0143691
0.0143968
0.0144197
0.0144371
0.0144486
0.0144543
0.0141744
0.0141978
0.0142167
0.0142341
0.0142567
0.0142865
0.0143211
0.0143567
0.0143902
0.0144193
0.0144429
0.0144605
0.0144722
0.014478
0.0141771
0.0141965
0.0142147
0.0142348
0.0142616
0.0142956
0.0143336
0.0143716
0.0144065
0.0144363
0.0144602
0.014478
0.0144897
0.0144954
0.0141716
0.0141713
0.0141933
0.0142129
0.0142354
0.0142653
0.0143022
0.0143424
0.0143818
0.0144174
0.0144476
0.0144716
0.0144894
0.0145011
0.0145068
0.0141737
0.0141732
0.0141943
0.0142132
0.0142364
0.0142675
0.0143057
0.0143469
0.0143869
0.0144228
0.0144531
0.0144772
0.0144949
0.0145066
0.0145123
0.0139374
0.0139378
0.0139593
0.0139672
0.0139565
0.0139555
0.0139421
0.0139432
0.0139636
0.0139967
0.0139764
0.0139736
0.0139678
0.0139619
0.0139538
0.013953
0.0139758
0.0139863
0.0139881
0.0139851
0.0139805
0.0139736
0.0139666
0.0139606
0.0139589
0.0139874
0.0139833
0.0139885
0.0139887
0.0139853
0.013981
0.0139765
0.0139728
0.01397
0.0139692
0.0139861
0.0139748
0.0139858
0.0139876
0.0139867
0.0139856
0.0139854
0.0139861
0.0139873
0.0139885
0.0139893
0.0139719
0.0139807
0.0139844
0.013987
0.0139866
0.0139882
0.0139924
0.0139985
0.0140054
0.0140117
0.0140165
0.014019
0.0139589
0.0139817
0.0139848
0.0139851
0.0139854
0.0139883
0.0139958
0.014007
0.0140197
0.0140322
0.0140428
0.0140504
0.0140543
0.0139912
0.0139827
0.0139841
0.0139832
0.0139859
0.0139948
0.0140093
0.0140272
0.0140457
0.0140626
0.0140763
0.0140858
0.0140906
0.0139538
0.0139702
0.0139791
0.01398
0.0139813
0.0139893
0.014005
0.0140263
0.0140499
0.0140728
0.0140927
0.0141085
0.0141192
0.0141245
0.0139611
0.0139673
0.0139741
0.0139751
0.0139805
0.0139948
0.0140172
0.0140442
0.0140721
0.014098
0.0141199
0.0141368
0.0141482
0.0141539
0.0139509
0.0139609
0.0139667
0.0139703
0.0139809
0.0140014
0.0140293
0.0140606
0.0140916
0.0141194
0.0141425
0.0141601
0.0141718
0.0141777
0.0139462
0.0139535
0.0139592
0.0139665
0.0139821
0.0140076
0.0140397
0.0140741
0.014107
0.0141359
0.0141597
0.0141776
0.0141895
0.0141954
0.0139281
0.0139333
0.0139458
0.0139537
0.0139641
0.0139835
0.0140125
0.0140473
0.0140835
0.0141175
0.0141471
0.0141712
0.0141892
0.0142012
0.0142071
0.0139301
0.0139359
0.0139463
0.0139529
0.0139639
0.0139848
0.0140152
0.0140513
0.0140883
0.0141228
0.0141526
0.0141768
0.0141949
0.0142069
0.0142128
0.0136911
0.0136892
0.0137205
0.0137367
0.0137541
0.0137401
0.0137109
0.0137127
0.0137224
0.0137761
0.0137629
0.0137523
0.0137377
0.0137237
0.0137075
0.0137055
0.0137489
0.0137771
0.0137685
0.0137511
0.013737
0.0137225
0.0137096
0.0136987
0.0136954
0.0138234
0.0137683
0.0137528
0.0137441
0.0137314
0.0137194
0.0137091
0.0137012
0.0136955
0.0136934
0.0138216
0.0137525
0.0137463
0.0137354
0.0137256
0.0137168
0.0137107
0.0137072
0.0137056
0.0137049
0.0137048
0.0137435
0.0137647
0.0137445
0.0137334
0.0137217
0.0137151
0.0137131
0.0137149
0.0137188