/*--------------------------------*- C++ -*----------------------------------*\
| =========                 |                                                 |
| \\      /  F ield         | OpenFOAM: The Open Source CFD Toolbox           |
|  \\    /   O peration     | Version:  2.1.1                                 |
|   \\  /    A nd           | Web:      www.OpenFOAM.org                      |
|    \\/     M anipulation  |                                                 |
\*---------------------------------------------------------------------------*/
FoamFile
{
    version     2.0;
    format      ascii;
    class       volScalarField;
    location    "0.003";
    object      p;
}
// * * * * * * * * * * * * * * * * * * * * * * * * * * * * * * * * * * * * * //

dimensions      [0 2 -2 0 0 0 0];

internalField   nonuniform List<scalar> 
10260
(
0.0864048
0.0826665
0.082466
0.0825244
0.0824721
0.0824853
0.0824703
0.0824757
0.082478
0.0824876
0.0824937
0.0825016
0.0825062
0.0825086
0.0825103
0.0870961
0.082826
0.0824178
0.0825307
0.0824569
0.0824859
0.0824649
0.0824753
0.0824767
0.0824878
0.0824926
0.0825003
0.0825047
0.0825079
0.0825091
0.0950915
0.0827832
0.082476
0.0825603
0.0824844
0.0825022
0.0824831
0.0824906
0.0824884
0.082495
0.0824979
0.0825026
0.0825046
0.0825061
0.0852516
0.0826925
0.0824593
0.0825266
0.0824876
0.0824926
0.0824918
0.0824876
0.0824901
0.0824911
0.0824952
0.0824977
0.0825
0.082501
0.0846712
0.0827309
0.0825296
0.0825776
0.0824993
0.0825295
0.0824941
0.0825043
0.0824902
0.0824959
0.0824913
0.0824949
0.0824929
0.0824941
0.0864102
0.0828813
0.0825413
0.0825906
0.0825444
0.0825206
0.0825183
0.0824988
0.0824991
0.08249
0.0824899
0.082488
0.0824879
0.082488
0.0964663
0.0827709
0.0825919
0.082543
0.0825734
0.0825123
0.0825295
0.0824989
0.0825038
0.082487
0.0824905
0.0824781
0.0824791
0.0967327
0.0829102
0.0825487
0.0826707
0.0825229
0.0825789
0.0825136
0.0825187
0.0824925
0.0824884
0.0824826
0.0824788
0.0824757
0.0991126
0.0830133
0.0824396
0.0827137
0.0825266
0.0825766
0.0825216
0.0825288
0.0824928
0.0825033
0.0824666
0.0824715
0.0888941
0.09389
0.0829937
0.0824438
0.0826804
0.0825506
0.0825481
0.0825024
0.0824884
0.0824846
0.0824834
0.0824843
0.10427
0.093479
0.0830179
0.0825564
0.0825957
0.082596
0.0825816
0.0825285
0.0825676
0.0824584
0.0824738
0.105781
0.0971544
0.0829149
0.0827841
0.0825443
0.0825322
0.0824598
0.0824785
0.0825265
0.0825245
0.0964212
0.0952461
0.082904
0.0827412
0.0827002
0.0827761
0.0824094
0.082463
0.0983281
0.097509
0.0971424
0.0949137
0.0953338
0.0828425
0.0826868
0.0860566
0.0960566
0.0981758
0.0956908
0.0977691
0.0853908
0.0810379
0.0810004
0.081057
0.0810807
0.0811202
0.0811499
0.0811809
0.0812053
0.0812295
0.0812474
0.0812638
0.0812749
0.0812826
0.081286
0.086101
0.081206
0.0809431
0.0810747
0.08107
0.0811219
0.0811458
0.081181
0.0812025
0.0812279
0.0812443
0.0812607
0.0812711
0.0812792
0.0812823
0.0925914
0.0811678
0.0809953
0.0811171
0.0811077
0.0811575
0.0811745
0.081203
0.0812212
0.0812396
0.0812533
0.081264
0.0812714
0.081275
0.0833759
0.081169
0.0810116
0.0811126
0.0811169
0.0811488
0.0811758
0.0811945
0.0812172
0.08123
0.081245
0.0812532
0.081261
0.0812638
0.0829112
0.0811323
0.0810563
0.081119
0.0811099
0.0811555
0.081162
0.0811919
0.081203
0.0812207
0.0812301
0.0812398
0.0812449
0.081248
0.0852469
0.0812884
0.0810474
0.0811276
0.0811334
0.0811369
0.081172
0.0811739
0.0811983
0.0812027
0.081217
0.0812213
0.0812284
0.0812299
0.0940868
0.0812004
0.0811031
0.081098
0.0811577
0.0811388
0.081176
0.0811742
0.0811918
0.0811944
0.0812032
0.081204
0.0812067
0.0953022
0.0813065
0.0810112
0.0812029
0.0810832
0.0811798
0.0811407
0.081173
0.0811621
0.0811752
0.0811737
0.0811824
0.0811825
0.096658
0.0814535
0.0809038
0.0812447
0.0810914
0.0811649
0.0811392
0.0811569
0.0811501
0.0811581
0.0811479
0.0811518
0.0877952
0.0915579
0.0814776
0.080908
0.081236
0.0811128
0.0811377
0.0811108
0.0811154
0.0811087
0.0811219
0.0811208
0.103066
0.0912033
0.0814574
0.0810244
0.0811096
0.0811322
0.0811192
0.0811097
0.0811226
0.0810715
0.0810812
0.104574
0.0946762
0.0813109
0.0812059
0.0810471
0.081056
0.0810095
0.0809948
0.0810714
0.0810566
0.0943133
0.0929026
0.0812901
0.0811296
0.081166
0.0811633
0.0809361
0.0809957
0.0969491
0.0953642
0.0948713
0.0927126
0.0929751
0.0811978
0.0810326
0.0848201
0.0947022
0.0967199
0.0932231
0.0952499
0.0840155
0.0794168
0.0795387
0.0795937
0.0796975
0.0797657
0.0798379
0.0798944
0.0799408
0.0799798
0.080009
0.0800337
0.0800501
0.0800617
0.0800672
0.0847116
0.0795513
0.0794739
0.0796173
0.0796893
0.0797697
0.0798349
0.0798933
0.0799366
0.0799765
0.0800041
0.0800291
0.0800447
0.0800567
0.080062
0.0908194
0.0795481
0.079548
0.07968
0.0797487
0.0798207
0.0798767
0.079924
0.0799626
0.0799921
0.0800166
0.0800329
0.0800452
0.0800507
0.0817586
0.0796167
0.0795824
0.0796926
0.0797557
0.0798146
0.079873
0.0799102
0.0799521
0.0799764
0.0800026
0.0800165
0.0800294
0.0800341
0.0813242
0.0795192
0.0795978
0.079655
0.0797245
0.07979
0.0798397
0.0798869
0.079923
0.0799526
0.0799766
0.0799922
0.0800046
0.0800095
0.0837997
0.0796924
0.0795684
0.0796643
0.0797322
0.0797595
0.0798329
0.0798558
0.0799047
0.0799228
0.079952
0.0799625
0.0799768
0.0799802
0.092395
0.0796481
0.0796326
0.0796623
0.0797486
0.0797699
0.079828
0.0798561
0.0798868
0.0799102
0.0799241
0.0799377
0.0799422
0.0938485
0.07973
0.0795256
0.0797487
0.0796498
0.0797832
0.0797708
0.0798335
0.0798395
0.0798723
0.0798763
0.0798935
0.0798968
0.0950258
0.0798818
0.07943
0.0797607
0.0796535
0.0797513
0.0797611
0.0797901
0.0798148
0.0798204
0.0798366
0.0798407
0.0864065
0.0899406
0.0799324
0.079432
0.0797553
0.0796672
0.0797341
0.0797246
0.0797541
0.0797452
0.0797714
0.079768
0.101732
0.0896045
0.0798833
0.0795303
0.0796347
0.0796662
0.0796542
0.0796913
0.0796789
0.07969
0.0796985
0.10326
0.0930835
0.0797319
0.0796499
0.0795686
0.0795965
0.0795796
0.0795448
0.0796143
0.0795921
0.0928042
0.0912843
0.0796902
0.0795154
0.0796131
0.0795433
0.0794704
0.079537
0.0955877
0.0938892
0.093321
0.0911562
0.0913625
0.0795416
0.0794094
0.0834002
0.0932983
0.0952896
0.0916171
0.0936402
0.0825474
0.077769
0.0780709
0.0781301
0.0783231
0.0784245
0.0785373
0.0786145
0.0786852
0.0787389
0.0787788
0.0788117
0.0788331
0.0788485
0.0788551
0.0832243
0.0778518
0.0780061
0.0781489
0.0783183
0.0784292
0.0785347
0.0786182
0.0786805
0.0787341
0.0787722
0.0788054
0.0788263
0.078842
0.0788487
0.0891455
0.0778925
0.0781012
0.0782369
0.0783971
0.0784893
0.0785918
0.078655
0.0787132
0.078753
0.078788
0.0788098
0.0788267
0.0788338
0.0801529
0.078051
0.0781423
0.0782759
0.0784051
0.0784933
0.0785824
0.0786361
0.0786964
0.0787316
0.0787685
0.078788
0.0788059
0.0788123
0.0797328
0.077876
0.0781329
0.0781868
0.0783496
0.0784344
0.0785291
0.0785919
0.0786529
0.0786935
0.0787319
0.0787533
0.0787731
0.0787801
0.0822632
0.078097
0.0780904
0.0781923
0.0783381
0.0783898
0.0785035
0.0785475
0.0786209
0.0786527
0.0786965
0.0787133
0.078735
0.0787402
0.0907562
0.0781104
0.0781506
0.0782285
0.0783428
0.0784097
0.0784891
0.0785477
0.0785918
0.0786363
0.0786554
0.0786819
0.078687
0.0922815
0.0781667
0.0780212
0.0782745
0.0782224
0.0783895
0.0784098
0.0785036
0.0785289
0.0785825
0.0785921
0.0786189
0.078616
0.0934547
0.0783158
0.0779494
0.0782691
0.0782234
0.0783431
0.0783902
0.0784341
0.078494
0.0784897
0.0785361
0.0785388
0.0848944
0.0884145
0.0783865
0.077947
0.078275
0.0782288
0.0783382
0.0783493
0.0784044
0.078396
0.0784293
0.0784258
0.100247
0.0880981
0.0783146
0.078022
0.0781491
0.0781931
0.0781853
0.078275
0.0782354
0.0783185
0.0783242
0.10179
0.0915812
0.0781664
0.0781104
0.0780895
0.0781308
0.0781394
0.0780983
0.0781462
0.0781293
0.0913007
0.0897874
0.0780958
0.077873
0.0780482
0.0778885
0.078003
0.0780696
0.0940942
0.0924759
0.0918906
0.0897401
0.0898881
0.077845
0.0777644
0.0818934
0.0918692
0.0938181
0.0901158
0.092177
0.0810429
0.0760434
0.0766088
0.0766702
0.0769697
0.0771001
0.0772576
0.0773614
0.0774434
0.077508
0.0775574
0.0775975
0.0776239
0.077643
0.0776509
0.0816926
0.0759816
0.0765625
0.0766795
0.0769741
0.0771069
0.0772586
0.0773519
0.0774352
0.0775014
0.0775491
0.0775897
0.0776154
0.0776347
0.0776427
0.0873549
0.0760907
0.0766498
0.0767846
0.0770669
0.0771877
0.0773158
0.0773959
0.0774737
0.0775232
0.0775677
0.0775944
0.0776157
0.0776242
0.0784224
0.0764448
0.076714
0.0768728
0.077072
0.0771723
0.077302
0.0773731
0.0774512
0.0774964
0.077543
0.0775677
0.0775902
0.0775982
0.0780374
0.0761507
0.0766715
0.0767195
0.0769942
0.0770833
0.0772312
0.0773096
0.0773944
0.0774451
0.0774967
0.0775235
0.0775502
0.0775588
0.0806296
0.0764336
0.0766197
0.0767213
0.0769561
0.0770314
0.0771876
0.077253
0.0773492
0.0773942
0.0774513
0.0774741
0.0775025
0.0775094
0.0890462
0.0765499
0.0766463
0.076803
0.0769448
0.0770647
0.0771642
0.0772531
0.0773095
0.0773734
0.0773965
0.0774366
0.0774453
0.0906267
0.0765341
0.0765064
0.0767883
0.0768017
0.0770029
0.0770642
0.0771873
0.0772306
0.0773016
0.0773155
0.0773523
0.0773639
0.0918206
0.0766902
0.0764389
0.0767623
0.0768015
0.0769439
0.0770309
0.0770827
0.0771716
0.0771877
0.0772596
0.0772593
0.0833103
0.0868615
0.0768025
0.0764374
0.0767868
0.0768011
0.0769536
0.0769949
0.0770712
0.0770655
0.0771066
0.0771013
0.0986952
0.0865678
0.0766868
0.0765051
0.0766443
0.0767204
0.0767179
0.0768718
0.0767827
0.076974
0.0769706
0.100247
0.0900477
0.0765326
0.0765487
0.0766184
0.0766692
0.0767117
0.0766473
0.0766775
0.0766705
0.0897717
0.0882981
0.0764327
0.0761482
0.0764425
0.076087
0.0765602
0.0766081
0.0925302
0.0911321
0.0905647
0.0884072
0.0883916
0.0759763
0.0760418
0.0803147
0.0904786
0.0923321
0.0886232
0.0907873
0.0794434
0.074228
0.0752068
0.075233
0.0756533
0.0757962
0.0759908
0.076104
0.0762101
0.0762864
0.0763446
0.0763907
0.0764214
0.0764436
0.076453
0.0801567
0.0738624
0.0752409
0.0752361
0.0756743
0.0758052
0.0759869
0.0761043
0.0762027
0.0762786
0.0763349
0.0763816
0.0764116
0.076434
0.0764436
0.0851813
0.0740577
0.0752251
0.0753371
0.0757506
0.0758608
0.0760596
0.0761529
0.0762455
0.0763031
0.0763556
0.0763867
0.076412
0.0764221
0.0764888
0.0748202
0.0753368
0.0754958
0.0757728
0.0759023
0.0760436
0.0761254
0.0762177
0.0762716
0.0763263
0.0763557
0.0763823
0.0763918
0.0761239
0.074324
0.0752384
0.0752679
0.0756617
0.0757819
0.0759598
0.0760456
0.07615
0.0762092
0.0762719
0.0763036
0.0763361
0.0763461
0.0786979
0.0746529
0.0751716
0.0752649
0.075618
0.0757071
0.0758946
0.0759776
0.0760927
0.0761497
0.076218
0.076246
0.0762798
0.0762879
0.0872017
0.074973
0.0751454
0.0754076
0.0755699
0.0757439
0.0758605
0.0759774
0.0760453
0.0761258
0.0761535
0.076204
0.0762117
0.0888211
0.0747552
0.0749844
0.0752877
0.0753996
0.0756321
0.0757429
0.0758938
0.0759591
0.0760435
0.0760594
0.076105
0.076105
0.0899879
0.0749252
0.0749204
0.075229
0.075399
0.0755685
0.0757062
0.07578
0.0759027
0.075859
0.0759866
0.0759921
0.0815783
0.0852623
0.0751284
0.0749175
0.0752851
0.0754059
0.0756184
0.0756578
0.075771
0.0757477
0.0758031
0.0757981
0.0971067
0.0850151
0.074919
0.0749788
0.0751452
0.0752645
0.0752648
0.0754941
0.0753343
0.0756734
0.0756543
0.0986734
0.0884901
0.0747529
0.0749712
0.0751707
0.0752357
0.0753347
0.0752227
0.0752346
0.0752336
0.088227
0.0869361
0.0746524
0.0743216
0.0748183
0.0740547
0.0752395
0.0752066
0.0908711
0.0899468
0.0894684
0.0871622
0.0865742
0.0738592
0.0742282
0.0785639
0.0893114
0.0909074
0.0872381
0.0896166
0.0764868
0.0722854
0.0738776
0.0738257
0.0743765
0.0745155
0.0747509
0.0748744
0.0749921
0.0750751
0.0751405
0.0751913
0.0752256
0.0752501
0.0752611
0.0778692
0.0714748
0.0740324
0.0738472
0.074415
0.0745428
0.0747557
0.0748726
0.074983
0.0750661
0.0751295
0.075181
0.0752147
0.0752398
0.0752508
0.0813896
0.0716459
0.0737917
0.0739211
0.0744632
0.0746211
0.0748198
0.0749245
0.0750286
0.0750935
0.075152
0.075187
0.0752153
0.0752267
0.0751334
0.0731166
0.0740516
0.0741424
0.0745061
0.0746224
0.0748007
0.0748933
0.0749965
0.0750579
0.0751187
0.0751521
0.0751817
0.0751924
0.0739304
0.0724194
0.0738723
0.073868
0.0744033
0.0744839
0.0747041
0.0748012
0.074921
0.0749874
0.0750581
0.0750938
0.0751305
0.075142
0.0747496
0.0727833
0.07378
0.0738298
0.0742701
0.0743965
0.074621
0.0747236
0.0748531
0.0749206
0.0749966
0.0750289
0.0750671
0.0750768
0.0850239
0.0733859
0.0736752
0.074037
0.0742242
0.0744528
0.0745845
0.0747233
0.0748006
0.0748932
0.0749247
0.0749841
0.0749937
0.0864131
0.072788
0.073461
0.0737786
0.0740324
0.0742891
0.0744515
0.0746197
0.0747026
0.0747999
0.0748195
0.074873
0.0748755
0.0873918
0.0728843
0.0734026
0.0736825
0.0740313
0.0742215
0.0743939
0.0744817
0.0746205
0.0746204
0.0747539
0.074754
0.079124
0.0836252
0.0732849
0.0733977
0.0737753
0.0740315
0.0742641
0.0744042
0.0745048
0.0744574
0.0745287
0.0745287
0.0955922
0.0835018
0.0728777
0.0734558
0.0736705
0.0738263
0.0738657
0.0741408
0.0739172
0.0744115
0.0743794
0.097179
0.0871525
0.0727863
0.0733825
0.0737786
0.0738692
0.0740496
0.073789
0.0738458
0.0738263
0.086818
0.0855463
0.0727829
0.0724168
0.0731149
0.0716434
0.0740314
0.0738776
0.0889764
0.0888362
0.0889809
0.0862644
0.0828173
0.0714731
0.0722855
0.0757202
0.0891459
0.0889557
0.0864733
0.0892986
0.0684631
0.0703867
0.0727127
0.0724916
0.0731425
0.0732748
0.0735337
0.0736603
0.0737887
0.0738759
0.0739465
0.0740004
0.0740374
0.0740638
0.0740759
0.0705467
0.070536
0.0728824
0.0725987
0.0731819
0.0732959
0.0735327
0.0736568
0.0737776
0.0738655
0.0739341
0.0739888
0.0740255
0.0740523
0.0740642
0.066662
0.0702783
0.0721294
0.072604
0.0731694
0.0733794
0.0735957
0.0737148
0.073825
0.0738956
0.0739578
0.0739957
0.0740258
0.074038
0.0776446
0.0707577
0.0728094
0.0727843
0.0732414
0.0733783
0.0735749
0.0736787
0.0737892
0.0738566
0.0739212
0.0739578
0.0739891
0.0740008
0.0710937
0.070355
0.0725767
0.0725306
0.0731195
0.0732363
0.0734771
0.073582
0.0737098
0.0737816
0.0738566
0.0738956
0.0739346
0.0739473
0.062944
0.0706578
0.07248
0.0724645
0.0730118
0.0731424
0.0733803
0.0734977
0.0736339
0.0737094
0.0737888
0.0738249
0.0738659
0.0738768
0.0807005
0.0719832
0.0722672
0.0727523
0.07295
0.0732091
0.0733478
0.0734974
0.0735811
0.0736781
0.0737146
0.0737781
0.0737895
0.0587359
0.0708145
0.0721106
0.0723532
0.0727465
0.0730065
0.0732077
0.0733789
0.0734754
0.073574
0.0735952
0.073657
0.0736611
0.07878
0.0708021
0.0720921
0.0722564
0.0727454
0.072947
0.0731399
0.0732341
0.0733771
0.0733786
0.0735325
0.073535
0.0926288
0.0826763
0.0712601
0.0720841
0.0723493
0.0727433
0.0730068
0.0731171
0.0732397
0.0731672
0.0732946
0.0732766
0.0943861
0.0823665
0.0707996
0.0721027
0.072251
0.0724592
0.0725272
0.0727821
0.0726019
0.0731808
0.0731437
0.0949858
0.0848695
0.0708153
0.0719879
0.0724817
0.0725725
0.0728067
0.0721271
0.0725976
0.072492
0.0786604
0.0835637
0.070659
0.0703517
0.0707546
0.0702771
0.0728815
0.0727125
0.0880269
0.083388
0.085461
0.0833934
0.0666607
0.0705347
0.0703866
0.0992808
0.0658735
0.0676579
0.0848063
0.085276
0.0722866
0.0703326
0.0716447
0.0714318
0.0719989
0.0720989
0.0723529
0.0724722
0.0726029
0.0726902
0.0727631
0.0728182
0.072857
0.0728845
0.0728969
0.072023
0.0706063
0.0718409
0.0715536
0.0720223
0.0721161
0.0723453
0.0724661
0.0725898
0.0726785
0.0727498
0.0728058
0.0728443
0.072872
0.0728843
0.070479
0.0676581
0.0707833
0.0710223
0.0716085
0.0719736
0.0722103
0.0724037
0.0725291
0.0726376
0.0727109
0.072774
0.0728136
0.0728445
0.0728573
0.0692093
0.0700823
0.0713635
0.0715854
0.0720145
0.0721786
0.0723758
0.0724873
0.0725988
0.0726698
0.0727352
0.0727738
0.0728061
0.0728185
0.0754167
0.070706
0.0714199
0.0714795
0.0719395
0.0720588
0.0722858
0.0723939
0.0725204
0.0725946
0.0726696
0.0727108
0.0727501
0.0727636
0.068627
0.0701299
0.0713219
0.0713446
0.0718035
0.0719544
0.0721834
0.0723074
0.0724407
0.07252
0.0725983
0.0726373
0.0726785
0.0726904
0.0806519
0.0710799
0.0711229
0.0716139
0.071773
0.0720269
0.0721606
0.0723072
0.0723932
0.0724868
0.0725287
0.0725899
0.072603
0.0692057
0.0708154
0.0709543
0.0711768
0.0715859
0.0718182
0.0720258
0.0721823
0.0722844
0.072375
0.0724031
0.072466
0.0724725
0.0780622
0.0698983
0.0709942
0.0711489
0.0715865
0.0717714
0.071953
0.0720571
0.0721776
0.0722095
0.0723451
0.0723534
0.0716821
0.0804647
0.0689746
0.070981
0.0711762
0.0716096
0.0718008
0.0719365
0.0720127
0.0719721
0.0721155
0.0720993
0.0737292
0.0799655
0.069899
0.07095
0.0711233
0.0713387
0.0714744
0.0715822
0.0716064
0.0720213
0.071999
0.0719184
0.0826273
0.0708206
0.0710981
0.0712966
0.0714103
0.0713597
0.0710199
0.0715524
0.0714313
0.0801427
0.0821352
0.0701229
0.0707006
0.070079
0.0707813
0.0718398
0.071644
0.0692252
0.0757487
0.0826114
0.0692075
0.0676568
0.0706054
0.0703324
0.07857
0.0775698
0.0807002
0.082573
0.0725088
0.0698394
0.0706611
0.0704915
0.0709153
0.0709847
0.0712067
0.0713119
0.0714359
0.0715189
0.071591
0.0716454
0.0716846
0.0717118
0.0717242
0.0730434
0.0700718
0.0707584
0.0705712
0.0709141
0.0709924
0.0711932
0.0713033
0.0714217
0.0715068
0.0715776
0.0716329
0.0716718
0.0716992
0.0717117
0.0735012
0.0689221
0.0704969
0.0702356
0.0706992
0.0708755
0.0710932
0.0712471
0.0713681
0.0714681
0.0715407
0.0716018
0.0716417
0.0716718
0.0716847
0.0685776
0.069949
0.0703164
0.0705697
0.0708753
0.0710399
0.0712127
0.0713233
0.0714283
0.0714993
0.0715625
0.0716017
0.071633
0.0716455
0.0774278
0.0703287
0.0704454
0.070553
0.0708257
0.0709468
0.071135
0.0712392
0.0713553
0.071428
0.0714991
0.0715407
0.0715779
0.0715913
0.0717413
0.0699576
0.0703262
0.0703837
0.0706994
0.0708432
0.0710385
0.0711568
0.0712774
0.0713549
0.071428
0.0714679
0.0715067
0.0715191
0.0799687
0.0703893
0.0701667
0.0705859
0.0706955
0.0709107
0.0710261
0.0711567
0.0712387
0.0713228
0.0713675
0.0714214
0.0714358
0.0720136
0.0703039
0.0699676
0.0702643
0.0705502
0.0707332
0.0709099
0.0710378
0.0711338
0.0712118
0.0712461
0.0713028
0.0713117
0.0784096
0.0696251
0.0701358
0.0703243
0.0705517
0.0706949
0.0708423
0.0709454
0.0710387
0.0710922
0.0711926
0.0712064
0.0744937
0.0685405
0.0689913
0.0701306
0.0702651
0.0705838
0.0706976
0.0708231
0.0708737
0.0708741
0.0709915
0.0709843
0.087403
0.0685427
0.0696271
0.0699678
0.0701663
0.0703803
0.0705498
0.0705673
0.0706975
0.070913
0.0709149
0.0864123
0.0826066
0.0703031
0.0703891
0.0703202
0.0704407
0.0703137
0.0702336
0.07057
0.0704907
0.0797158
0.0811637
0.0699543
0.0703253
0.0699466
0.0704953
0.0707574
0.0706605
0.0717164
0.0775876
0.0811105
0.0685763
0.068921
0.0700714
0.0698395
0.083272
0.0803099
0.0810534
0.081209
0.0718976
0.0691708
0.0696667
0.0695502
0.0698506
0.069904
0.0700845
0.0701753
0.0702865
0.0703631
0.0704316
0.0704835
0.0705215
0.0705478
0.0705601
0.0723709
0.069238
0.069676
0.0695893
0.0698353
0.0699046
0.0700688
0.0701656
0.0702725
0.0703512
0.0704187
0.0704713
0.0705091
0.0705355
0.0705478
0.073334
0.0687927
0.0695467
0.0693951
0.0697159
0.0698201
0.0699986
0.0701188
0.0702278
0.0703164
0.070385
0.070442
0.0704807
0.0705091
0.0705216
0.0687911
0.0693506
0.0694345
0.0696139
0.0698051
0.0699446
0.0700839
0.0701847
0.0702781
0.0703453
0.0704041
0.070442
0.0704714
0.0704836
0.0771697
0.0694787
0.0695188
0.0695968
0.0697682
0.0698746
0.0700203
0.0701135
0.0702135
0.070281
0.0703453
0.0703851
0.0704189
0.0704321
0.0718301
0.0693514
0.0694456
0.0694761
0.0696795
0.0697908
0.0699416
0.070042
0.0701433
0.0702133
0.0702779
0.0703162
0.0703512
0.0703637
0.0796148
0.0695845
0.0693565
0.0696391
0.0696955
0.0698504
0.0699371
0.0700419
0.070113
0.0701841
0.0702271
0.0702722
0.0702866
0.0721722
0.0695869
0.0692512
0.0694863
0.0696134
0.0697318
0.0698498
0.0699411
0.0700192
0.0700828
0.0701176
0.0701649
0.070175
0.0779015
0.0694132
0.0695016
0.0695566
0.0696149
0.0696955
0.0697903
0.0698733
0.0699434
0.0699974
0.070068
0.0700838
0.0745325
0.0686625
0.0691331
0.069501
0.0694905
0.0696392
0.0696787
0.0697663
0.0698038
0.0698189
0.0699037
0.0699033
0.0882901
0.0686581
0.0694144
0.0692654
0.0693574
0.0694745
0.0695948
0.0696125
0.0697148
0.0698345
0.0698504
0.0863924
0.0817486
0.069572
0.0695802
0.0694431
0.0695164
0.0694331
0.0693937
0.0695884
0.0695499
0.0790378
0.0804613
0.0693491
0.0694765
0.069349
0.0695456
0.0696753
0.0696666
0.0720951
0.0775046
0.0799354
0.06879
0.0687919
0.0692375
0.0691709
0.0841819
0.0803707
0.080443
0.0803113
0.0710598
0.0683804
0.0686341
0.0685859
0.0687875
0.0688374
0.0689781
0.0690572
0.069153
0.0692222
0.0692849
0.069333
0.0693687
0.0693935
0.0694053
0.071473
0.0684017
0.0686252
0.0686031
0.0687711
0.0688348
0.0689635
0.0690476
0.0691401
0.069211
0.0692727
0.0693214
0.0693569
0.0693817
0.0693935
0.0726146
0.0681022
0.0685225
0.0684822
0.0686955
0.0687767
0.0689141
0.0690105
0.069104
0.0691809
0.069243
0.0692946
0.0693307
0.069357
0.0693688
0.068303
0.0684038
0.0685133
0.0686275
0.0687599
0.0688692
0.0689792
0.0690658
0.069146
0.0692066
0.0692594
0.0692947
0.0693215
0.0693332
0.0766097
0.0685358
0.0685519
0.0686164
0.0687342
0.0688186
0.0689295
0.069008
0.0690911
0.0691507
0.0692066
0.0692431
0.0692728
0.0692854
0.0712287
0.0685409
0.0685153
0.0685526
0.0686801
0.0687596
0.0688708
0.0689501
0.0690313
0.0690909
0.0691457
0.0691805
0.0692111
0.0692229
0.0789131
0.0686719
0.0684983
0.0686771
0.068704
0.0688088
0.0688706
0.0689499
0.0690075
0.0690652
0.0691034
0.0691399
0.0691533
0.0715566
0.0687154
0.0684596
0.0686207
0.0686614
0.0687375
0.0688083
0.0688703
0.0689286
0.0689783
0.0690095
0.0690471
0.069057
0.0770099
0.068699
0.0686365
0.0686648
0.068662
0.0687037
0.0687592
0.0688177
0.0688683
0.0689132
0.068963
0.0689778
0.0738046
0.0685419
0.0685857
0.0686354
0.0686219
0.0686769
0.0686796
0.0687331
0.0687589
0.0687758
0.0688341
0.068837
0.0883943
0.0685398
0.0686983
0.0684597
0.0684979
0.0685517
0.0686153
0.0686267
0.0686949
0.0687706
0.0687874
0.0863173
0.0809025
0.0687122
0.0686695
0.0685138
0.0685506
0.0685126
0.0684814
0.0686025
0.0685858
0.0782892
0.0796291
0.0685391
0.0685345
0.0684029
0.068522
0.0686248
0.0686342
0.0715189
0.0767011
0.0789887
0.0683023
0.0681018
0.0684013
0.0683805
0.083869
0.0798585
0.079846
0.0794319
0.070131
0.067495
0.0675914
0.0675977
0.0677242
0.0677763
0.0678827
0.0679526
0.0680328
0.0680946
0.0681501
0.0681935
0.0682259
0.0682483
0.0682588
0.0705292
0.0675172
0.067579
0.0676038
0.0677105
0.0677723
0.0678705
0.0679439
0.0680216
0.0680844
0.068139
0.068183
0.0682154
0.0682381
0.0682487
0.0717839
0.0673062
0.0675327
0.067525
0.0676652
0.0677332
0.0678362
0.0679154
0.067993
0.0680589
0.0681135
0.0681593
0.0681919
0.0682155
0.0682263
0.0675074
0.0674268
0.0675538
0.0676182
0.0677185
0.0678014
0.067889
0.0679609
0.0680285
0.0680813
0.0681275
0.0681592
0.068183
0.0681936
0.0758677
0.0675704
0.0675612
0.067618
0.0676996
0.0677658
0.0678507
0.0679151
0.0679829
0.0680338
0.0680814
0.0681135
0.068139
0.0681501
0.0704102
0.0676397
0.0675429
0.067589
0.0676672
0.0677256
0.0678079
0.0678693
0.0679335
0.0679827
0.0680284
0.0680588
0.0680845
0.0680948
0.0780518
0.0676909
0.0675489
0.067673
0.0676898
0.0677636
0.0678093
0.0678691
0.0679147
0.0679606
0.0679928
0.0680217
0.0680332
0.0706982
0.0677618
0.0675244
0.0676444
0.0676593
0.0677174
0.0677633
0.0678075
0.0678502
0.0678887
0.067915
0.067944
0.067953
0.0760263
0.0676706
0.0676254
0.0676688
0.0676594
0.0676895
0.0677255
0.0677656
0.0678011
0.0678359
0.0678706
0.0678832
0.0728392
0.0677331
0.0675228
0.0676243
0.0676445
0.0676727
0.0676671
0.0676994
0.0677182
0.0677328
0.0677721
0.0677765
0.0878964
0.0677116
0.0676678
0.0675231
0.0675483
0.0675886
0.0676178
0.0676179
0.0676646
0.0677102
0.0677243
0.0857253
0.0800434
0.06776
0.0676896
0.0675421
0.0675608
0.0675544
0.0675236
0.0676034
0.0675977
0.0774439
0.078709
0.0676384
0.0675698
0.0674265
0.0675324
0.0675788
0.0675916
0.0706621
0.0757644
0.0780547
0.0675073
0.067306
0.0675173
0.0674955
0.0832224
0.0791542
0.0790504
0.0785044
0.0691721
0.0665506
0.0665504
0.0665904
0.0666637
0.0667178
0.0667962
0.0668581
0.0669235
0.0669779
0.0670259
0.0670648
0.0670938
0.0671134
0.0671217
0.0695676
0.0665686
0.0665357
0.0665926
0.0666528
0.0667135
0.0667864
0.0668506
0.0669142
0.0669692
0.0670164
0.0670557
0.0670847
0.0671049
0.0671139
0.0708864
0.0664244
0.0665285
0.0665418
0.0666281
0.0666865
0.0667627
0.0668287
0.0668918
0.0669482
0.066995
0.067035
0.0670638
0.0670847
0.0670943
0.0666075
0.0664449
0.0665615
0.0665953
0.066675
0.0667367
0.0668075
0.0668658
0.0669225
0.0669674
0.0670071
0.0670349
0.0670557
0.0670651
0.0750235
0.0665764
0.0665533
0.0666006
0.0666591
0.0667115
0.0667775
0.0668297
0.066885
0.0669276
0.0669674
0.0669951
0.0670167
0.0670262
0.069514
0.0666833
0.0665436
0.0665917
0.0666393
0.0666837
0.0667456
0.0667936
0.0668449
0.066885
0.0669227
0.0669485
0.0669698
0.0669785
0.0771289
0.0666746
0.0665506
0.066646
0.0666567
0.0667118
0.0667473
0.0667937
0.0668298
0.0668661
0.0668923
0.0669148
0.0669243
0.0697586
0.066767
0.0665338
0.0666231
0.0666319
0.0666786
0.0667117
0.0667456
0.0667776
0.0668078
0.0668291
0.0668512
0.0668589
0.0750494
0.0666284
0.0666111
0.0666357
0.0666319
0.0666566
0.0666838
0.0667117
0.0667369
0.0667629
0.0667869
0.0667969
0.0718675
0.0667234
0.0664701
0.0666116
0.0666233
0.066646
0.0666394
0.0666592
0.0666751
0.0666865
0.0667137
0.0667185
0.0869764
0.0668075
0.0666351
0.0665331
0.0665502
0.0665916
0.0666006
0.0665951
0.066628
0.066653
0.0666642
0.084975
0.0791752
0.0667656
0.0666737
0.0665432
0.066553
0.0665614
0.0665418
0.0665929
0.0665912
0.0765411
0.0777523
0.0666824
0.0665761
0.0664447
0.0665287
0.0665361
0.0665513
0.0697232
0.0747971
0.0771061
0.0666075
0.0664244
0.066569
0.0665514
0.0824182
0.0783313
0.0781534
0.0775579
0.0682446
0.0655532
0.0655074
0.0655669
0.0656062
0.0656606
0.0657169
0.0657716
0.0658236
0.0658712
0.0659121
0.0659465
0.0659719
0.0659889
0.0659952
0.0686414
0.0655648
0.0654935
0.0655674
0.0655976
0.0656566
0.0657092
0.0657653
0.0658161
0.065864
0.0659041
0.0659387
0.0659639
0.0659818
0.0659892
0.0699997
0.0654576
0.0655038
0.0655318
0.0655842
0.0656369
0.0656928
0.0657485
0.065799
0.0658469
0.0658862
0.0659206
0.0659455
0.0659638
0.0659721
0.0656173
0.0654357
0.0655486
0.0655617
0.0656283
0.0656736
0.0657316
0.0657782
0.0658256
0.065863
0.0658967
0.0659205
0.0659386
0.0659469
0.0741772
0.0655466
0.0655247
0.0655668
0.0656128
0.0656548
0.0657075
0.0657496
0.0657949
0.06583
0.0658631
0.0658863
0.0659045
0.0659128
0.0686124
0.0656671
0.0655181
0.0655676
0.0655995
0.0656346
0.0656831
0.0657212
0.0657625
0.065795
0.065826
0.0658474
0.0658649
0.0658724
0.0762451
0.0656234
0.0655235
0.0656028
0.0656111
0.0656554
0.0656841
0.0657213
0.0657499
0.0657787
0.0657995
0.0658171
0.0658247
0.0688318
0.0657246
0.0655146
0.0655816
0.0655903
0.0656293
0.0656555
0.0656833
0.0657077
0.065732
0.065749
0.0657661
0.0657724
0.0741461
0.0655967
0.0655869
0.0655839
0.0655904
0.0656113
0.0656348
0.065655
0.0656739
0.065693
0.0657098
0.0657174
0.0709772
0.0658404
0.0654378
0.0655805
0.0655803
0.0656031
0.0655996
0.0656131
0.0656285
0.0656372
0.0656571
0.0656614
0.086795
0.0656482
0.0655693
0.0655103
0.0655229
0.0655676
0.065567
0.0655616
0.0655844
0.0655982
0.0656069
0.084143
0.078357
0.0657227
0.0656229
0.0655178
0.0655245
0.0655486
0.0655319
0.065568
0.0655679
0.0756724
0.0768687
0.0656665
0.0655464
0.0654356
0.065504
0.0654943
0.0655082
0.0688044
0.0738775
0.0762214
0.0656174
0.0654578
0.0655653
0.0655535
0.0815786
0.077529
0.0772785
0.0766696
0.0769026
0.0646591
0.0763645
0.0652713
0.0759797
0.0669665
0.0675087
0.0754265
0.064194
0.0663539
0.0660612
0.068784
0.0777775
0.0806545
0.0689669
0.0770592
0.0664384
0.0774342
0.0677472
0.0653137
0.0555002
0.0662041
0.0672885
0.0596942
0.0787645
0.0688281
0.0752305
0.0681526
0.0668862
0.0669282
0.0554763
0.0647972
0.060436
0.0747204
0.0666115
0.0759813
0.0756914
0.05831
0.0600575
0.0753203
0.0601295
0.0583525
0.0757014
0.0759854
0.0666233
0.0604461
0.074725
0.0648056
0.0554844
0.0669475
0.0668835
0.0682013
0.0688184
0.0596575
0.0788015
0.0673636
0.075355
0.0664259
0.0572796
0.0655905
0.0678833
0.0792484
0.0666133
0.0689943
0.0787768
0.0807793
0.0794632
0.0712151
0.0684958
0.0685023
0.0661381
0.07564
0.0676058
0.067193
0.0776642
0.065492
0.0648789
0.0780304
0.078555
0.0983707
0.0868083
0.0978604
0.0779153
0.0673149
0.0775948
0.0678716
0.0964335
0.0957952
0.0773686
0.0694987
0.0698364
0.0885774
0.0981089
0.0770604
0.0666497
0.0959892
0.0959684
0.0688052
0.0688636
0.0936489
0.0856757
0.0711952
0.0786604
0.0949047
0.0865954
0.0971432
0.080645
0.0705593
0.0781243
0.0686558
0.0963023
0.0975454
0.0782469
0.0697404
0.0684773
0.107697
0.0982786
0.0587605
0.0667037
0.102631
0.0864619
0.0952406
0.0693587
0.0630759
0.0790859
0.0701838
0.0897273
0.0750769
0.0966088
0.0964188
0.0684303
0.0692953
0.0697658
0.109023
0.0571185
0.101682
0.0906534
0.0971596
0.0671958
0.0638561
0.0745131
0.0686496
0.0884903
0.105812
0.075983
0.0770382
0.059017
0.0885969
0.10422
0.060712
0.0768651
0.0607743
0.08848
0.0888923
0.0590544
0.0770506
0.0759892
0.10168
0.0906542
0.099118
0.0686592
0.0638677
0.0745203
0.0672062
0.109025
0.0571249
0.0966075
0.0967294
0.0697763
0.0692979
0.0684333
0.102598
0.0864704
0.096498
0.070199
0.063077
0.0790972
0.069361
0.0897592
0.0750818
0.107377
0.0666966
0.0587088
0.0962186
0.0868228
0.0684292
0.0697206
0.0783055
0.0948774
0.0868581
0.0846514
0.0686428
0.0705642
0.0781592
0.080606
0.0938204
0.0787013
0.0711691
0.096106
0.0688187
0.0687695
0.0885778
0.0666433
0.077041
0.0963489
0.0873647
0.0698042
0.0694805
0.0773861
0.0982886
0.087106
0.0867475
0.0678544
0.0672915
0.0776184
0.0779496
0.0957291
0.0858317
0.0952712
0.0767548
0.0669061
0.0764324
0.0674009
0.0938618
0.0932432
0.0761965
0.0689292
0.0691504
0.0864489
0.0967146
0.0761058
0.0654587
0.0947497
0.0946978
0.0675133
0.0676124
0.0924001
0.0848042
0.0698929
0.0773791
0.0925661
0.0854369
0.094884
0.0792658
0.0698119
0.0768417
0.068097
0.0937234
0.0953743
0.0769659
0.0689712
0.0677785
0.106195
0.0969456
0.0574108
0.0654215
0.100068
0.0844775
0.0929042
0.0683785
0.0625432
0.077842
0.0694045
0.0885861
0.0737434
0.0942152
0.0943132
0.0671181
0.0685472
0.0688961
0.107675
0.05588
0.099041
0.0892962
0.0946813
0.0663396
0.0632825
0.0732224
0.0678855
0.0865191
0.104609
0.0747531
0.076082
0.0576879
0.0866315
0.103007
0.059366
0.0759187
0.0594293
0.0865088
0.0877939
0.0577248
0.0760937
0.0747592
0.0990384