/*--------------------------------*- C++ -*----------------------------------*\
| =========                 |                                                 |
| \\      /  F ield         | OpenFOAM: The Open Source CFD Toolbox           |
|  \\    /   O peration     | Version:  2.1.1                                 |
|   \\  /    A nd           | Web:      www.OpenFOAM.org                      |
|    \\/     M anipulation  |                                                 |
\*---------------------------------------------------------------------------*/
FoamFile
{
    version     2.0;
    format      ascii;
    class       volScalarField;
    location    "0.003";
    object      Th;
}
// * * * * * * * * * * * * * * * * * * * * * * * * * * * * * * * * * * * * * //

dimensions      [0 0 0 0 0 0 0];

internalField   nonuniform List<scalar> 
10260
(
3.5711e-13
1.0321e-14
1.00008e-14
1.00002e-14
1.00001e-14
1.00001e-14
1.00002e-14
1.00003e-14
1.00002e-14
1.00001e-14
1e-14
1e-14
1.00001e-14
1.00003e-14
1.00001e-14
3.99055e-13
1.09525e-14
1.00025e-14
1e-14
1.00001e-14
1e-14
1e-14
1e-14
1e-14
1e-14
1e-14
1e-14
1e-14
1.00001e-14
1e-14
1e-14
1e-14
1e-14
1e-14
1e-14
1e-14
1e-14
1e-14
1e-14
1e-14
1e-14
1e-14
1e-14
1.00002e-14
1.16467e-14
1.00165e-14
1e-14
1e-14
1e-14
1e-14
1e-14
1e-14
1e-14
1.00001e-14
1.00001e-14
1e-14
1e-14
1.00002e-14
2.67875e-14
1.00307e-14
1.00001e-14
1e-14
1e-14
1e-14
1e-14
1.00001e-14
1.00001e-14
1.00001e-14
1.00001e-14
1.00001e-14
1.00001e-14
1e-14
2.45892e-13
1.13989e-14
1.00026e-14
1e-14
1e-14
1e-14
1e-14
1.00001e-14
1.00001e-14
1e-14
1e-14
1.00001e-14
1e-14
1.00001e-14
1.08855e-14
1.00276e-14
1e-14
1e-14
1e-14
1e-14
1e-14
1e-14
1e-14
1e-14
1e-14
1e-14
1.00002e-14
1e-14
1.2463e-14
1.00025e-14
1e-14
1e-14
1e-14
1e-14
1.00001e-14
1.00001e-14
1.00001e-14
1.00001e-14
1e-14
1.00001e-14
1.60545e-14
1.01119e-14
1.00001e-14
1.00001e-14
1e-14
1e-14
1e-14
1e-14
1.00001e-14
1.00001e-14
1e-14
1e-14
7.89959e-13
1e-14
1.01208e-14
1.00002e-14
1e-14
1e-14
1e-14
1e-14
1e-14
1e-14
1e-14
1e-14
4.58823e-13
1e-14
1.01114e-14
1.00026e-14
1e-14
1e-14
1e-14
1e-14
1e-14
1e-14
1e-14
4.14143e-13
1.22731e-14
1.24623e-14
1.00278e-14
1.00027e-14
1e-14
1.00001e-14
1.00001e-14
1e-14
1.00001e-14
1.84622e-14
1e-14
1.14148e-14
1.00313e-14
1.00168e-14
1e-14
1.00026e-14
1.00011e-14
1.46151e-13
1.81145e-14
1.01715e-14
1e-14
1e-14
1.0964e-14
1.03387e-14
1.01487e-12
1e-14
1e-14
1.21437e-14
1.51054e-14
3.59858e-13
1.02883e-14
1.00003e-14
1.00002e-14
1.00002e-14
1.00002e-14
1.00002e-14
1.00003e-14
1.00002e-14
1e-14
1e-14
1e-14
1e-14
1.00003e-14
1.00001e-14
4.03585e-13
1.08707e-14
1.00011e-14
1e-14
1.00001e-14
1e-14
1e-14
1e-14
1e-14
1e-14
1e-14
1e-14
1e-14
1e-14
1e-14
1e-14
1e-14
1e-14
1e-14
1e-14
1e-14
1e-14
1e-14
1e-14
1e-14
1e-14
1e-14
1e-14
1.00002e-14
1.15526e-14
1.00141e-14
1.00001e-14
1e-14
1e-14
1e-14
1e-14
1e-14
1e-14
1e-14
1.00001e-14
1e-14
1e-14
1.00001e-14
2.67351e-14
1.00262e-14
1e-14
1e-14
1e-14
1e-14
1e-14
1e-14
1e-14
1e-14
1e-14
1e-14
1e-14
1e-14
2.48205e-13
1.13131e-14
1.00013e-14
1e-14
1e-14
1e-14
1e-14
1e-14
1.00001e-14
1e-14
1e-14
1.00001e-14
1e-14
1.00001e-14
1.07994e-14
1.00246e-14
1e-14
1e-14
1e-14
1e-14
1e-14
1e-14
1e-14
1e-14
1e-14
1e-14
1.00001e-14
1e-14
1.23065e-14
1.00014e-14
1e-14
1e-14
1e-14
1e-14
1e-14
1.00001e-14
1.00001e-14
1.00001e-14
1e-14
1e-14
1.59498e-14
1.00984e-14
1e-14
1e-14
1e-14
1e-14
1e-14
1e-14
1e-14
1e-14
1e-14
1e-14
7.91364e-13
1e-14
1.01076e-14
1e-14
1e-14
1e-14
1e-14
1e-14
1e-14
1e-14
1e-14
1e-14
4.73994e-13
1e-14
1.00979e-14
1.00014e-14
1e-14
1e-14
1e-14
1e-14
1e-14
1e-14
1e-14
4.28836e-13
1.21391e-14
1.23067e-14
1.00247e-14
1.00013e-14
1e-14
1.00001e-14
1e-14
1e-14
1e-14
1.95394e-14
1e-14
1.13145e-14
1.00265e-14
1.00144e-14
1e-14
1.00012e-14
1.00005e-14
1.51917e-13
1.83451e-14
1.01774e-14
1e-14
1e-14
1.08724e-14
1.02921e-14
1.01067e-12
1e-14
1e-14
1.21931e-14
1.50711e-14
3.60193e-13
1.02801e-14
1e-14
1.00002e-14
1.00001e-14
1.00001e-14
1.00001e-14
1.00001e-14
1.00001e-14
1e-14
1e-14
1e-14
1e-14
1.00002e-14
1.00002e-14
4.03984e-13
1.08501e-14
1e-14
1e-14
1e-14
1e-14
1e-14
1e-14
1e-14
1e-14
1e-14
1e-14
1e-14
1e-14
1e-14
1e-14
1e-14
1e-14
1e-14
1e-14
1e-14
1e-14
1e-14
1e-14
1e-14
1e-14
1e-14
1e-14
1.00001e-14
1.1563e-14
1.00136e-14
1e-14
1e-14
1e-14
1e-14
1e-14
1e-14
1e-14
1e-14
1e-14
1e-14
1e-14
1.00002e-14
2.69421e-14
1.00258e-14
1e-14
1e-14
1e-14
1e-14
1e-14
1e-14
1e-14
1e-14
1e-14
1e-14
1e-14
1e-14
2.48341e-13
1.12909e-14
1.00005e-14
1e-14
1e-14
1e-14
1e-14
1e-14
1e-14
1e-14
1e-14
1e-14
1e-14
1e-14
1.08119e-14
1.00238e-14
1e-14
1e-14
1e-14
1e-14
1e-14
1e-14
1e-14
1e-14
1e-14
1e-14
1.00001e-14
1e-14
1.22715e-14
1.00007e-14
1e-14
1e-14
1e-14
1e-14
1e-14
1.00001e-14
1e-14
1e-14
1e-14
1e-14
1.59923e-14
1.00961e-14
1e-14
1.00001e-14
1e-14
1e-14
1e-14
1e-14
1e-14
1e-14
1e-14
1.00001e-14
7.91056e-13
1e-14
1.01053e-14
1e-14
1e-14
1e-14
1e-14
1e-14
1e-14
1e-14
1e-14
1.00002e-14
4.74197e-13
1e-14
1.00956e-14
1.00007e-14
1e-14
1e-14
1e-14
1e-14
1e-14
1e-14
1.00001e-14
4.28844e-13
1.21246e-14
1.22716e-14
1.00239e-14
1.00006e-14
1e-14
1.00001e-14
1e-14
1e-14
1e-14
1.97631e-14
1e-14
1.12918e-14
1.00258e-14
1.00137e-14
1e-14
1e-14
1e-14
1.51702e-13
1.84517e-14
1.01808e-14
1e-14
1e-14
1.08503e-14
1.02809e-14
1.00895e-12
1e-14
1e-14
1.22043e-14
1.51188e-14
3.60164e-13
1.02751e-14
1e-14
1.00001e-14
1.00001e-14
1.00001e-14
1e-14
1.00001e-14
1.00002e-14
1.00002e-14
1e-14
1e-14
1.00001e-14
1.00001e-14
1.00001e-14
4.03892e-13
1.08475e-14
1e-14
1e-14
1e-14
1e-14
1e-14
1.00001e-14
1e-14
1e-14
1e-14
1e-14
1e-14
1e-14
1e-14
1e-14
1e-14
1e-14
1e-14
1e-14
1e-14
1e-14
1e-14
1e-14
1e-14
1e-14
1e-14
1e-14
1e-14
1.15645e-14
1.00134e-14
1e-14
1e-14
1e-14
1e-14
1e-14
1e-14
1e-14
1e-14
1e-14
1e-14
1e-14
1e-14
2.70154e-14
1.00258e-14
1e-14
1e-14
1e-14
1e-14
1e-14
1e-14
1e-14
1e-14
1e-14
1e-14
1e-14
1e-14
2.4841e-13
1.12873e-14
1e-14
1e-14
1e-14
1e-14
1e-14
1e-14
1e-14
1e-14
1e-14
1e-14
1e-14
1e-14
1.0823e-14
1.00232e-14
1e-14
1e-14
1e-14
1e-14
1e-14
1e-14
1e-14
1e-14
1e-14
1e-14
1e-14
1e-14
1.22708e-14
1e-14
1e-14
1e-14
1e-14
1e-14
1e-14
1e-14
1e-14
1e-14
1e-14
1.00001e-14
1.60049e-14
1.00958e-14
1e-14
1e-14
1e-14
1e-14
1e-14
1e-14
1e-14
1e-14
1e-14
1.00001e-14
7.91072e-13
1e-14
1.0105e-14
1e-14
1e-14
1e-14
1e-14
1e-14
1e-14
1e-14
1.00001e-14
1.00001e-14
4.73959e-13
1e-14
1.00953e-14
1e-14
1e-14
1e-14
1e-14
1.00001e-14
1e-14
1e-14
1e-14
4.28575e-13
1.21204e-14
1.22706e-14
1.00232e-14
1e-14
1e-14
1e-14
1e-14
1e-14
1e-14
1.97003e-14
1e-14
1.12876e-14
1.00258e-14
1.00134e-14
1e-14
1e-14
1e-14
1.51348e-13
1.83798e-14
1.01801e-14
1e-14
1e-14
1.08471e-14
1.02751e-14
1.00843e-12
1e-14
1e-14
1.2157e-14
1.51214e-14
3.5963e-13
1.03042e-14
1e-14
1.00001e-14
1e-14
1.00001e-14
1.00001e-14
1.00001e-14
1.00001e-14
1.00001e-14
1e-14
1e-14
1.00001e-14
1e-14
1.00002e-14
4.03186e-13
1.08885e-14
1e-14
1e-14
1e-14
1e-14
1e-14
1e-14
1e-14
1e-14
1e-14
1e-14
1e-14
1e-14
1e-14
1e-14
1e-14
1e-14
1e-14
1e-14
1e-14
1e-14
1e-14
1e-14
1e-14
1e-14
1e-14
1e-14
1e-14
1.1573e-14
1.00133e-14
1e-14
1e-14
1e-14
1e-14
1e-14
1e-14
1e-14
1e-14
1e-14
1e-14
1e-14
1e-14
2.71788e-14
1.00283e-14
1e-14
1e-14
1e-14
1e-14
1e-14
1e-14
1e-14
1e-14
1.00001e-14
1e-14
1e-14
1e-14
2.4843e-13
1.13048e-14
1e-14
1e-14
1e-14
1e-14
1e-14
1e-14
1e-14
1.00001e-14
1e-14
1e-14
1e-14
1e-14
1.08388e-14
1.00225e-14
1e-14
1e-14
1e-14
1e-14
1e-14
1e-14
1e-14
1e-14
1e-14
1e-14
1.00001e-14
1e-14
1.22162e-14
1e-14
1e-14
1e-14
1e-14
1e-14
1e-14
1e-14
1e-14
1e-14
1.00001e-14
1.00001e-14
1.59883e-14
1.0094e-14
1e-14
1e-14
1e-14
1e-14
1e-14
1e-14
1e-14
1.00001e-14
1.00001e-14
1e-14
7.90974e-13
1e-14
1.01044e-14
1e-14
1e-14
1e-14
1e-14
1e-14
1.00001e-14
1.00001e-14
1e-14
1e-14
4.73792e-13
1e-14
1.00935e-14
1e-14
1e-14
1e-14
1.00001e-14
1.00001e-14
1e-14
1e-14
1e-14
4.28363e-13
1.21129e-14
1.22152e-14
1.00225e-14
1e-14
1e-14
1e-14
1e-14
1e-14
1e-14
1.95166e-14
1e-14
1.13047e-14
1.00284e-14
1.00133e-14
1e-14
1e-14
1e-14
1.50529e-13
1.82154e-14
1.01772e-14
1e-14
1e-14
1.08883e-14
1.0304e-14
1.00757e-12
1e-14
1e-14
1.20908e-14
1.51186e-14
3.57739e-13
1.02089e-14
1e-14
1e-14
1e-14
1e-14
1.00001e-14
1.00001e-14
1e-14
1e-14
1e-14
1e-14
1e-14
1e-14
1.00003e-14
4.00672e-13
1.08227e-14
1e-14
1e-14
1e-14
1e-14
1e-14
1e-14
1e-14
1e-14
1e-14
1e-14
1e-14
1e-14
1e-14
1e-14
1e-14
1e-14
1e-14
1e-14
1e-14
1e-14
1e-14
1e-14
1e-14
1e-14
1e-14
1e-14
1e-14
1.16107e-14
1.00124e-14
1e-14
1e-14
1e-14
1e-14
1e-14
1e-14
1e-14
1e-14
1e-14
1e-14
1e-14
1e-14
2.77227e-14
1.00206e-14
1e-14
1e-14
1e-14
1e-14
1e-14
1e-14
1e-14
1.00001e-14
1e-14
1e-14
1e-14
1.00001e-14
2.48164e-13
1.12449e-14
1e-14
1e-14
1e-14
1e-14
1e-14
1e-14
1.00001e-14
1e-14
1e-14
1e-14
1e-14
1.00001e-14
1.08512e-14
1.00194e-14
1e-14
1e-14
1e-14
1e-14
1e-14
1e-14
1e-14
1e-14
1e-14
1.00001e-14
1.00001e-14
1e-14
1.23955e-14
1e-14
1e-14
1e-14
1e-14
1e-14
1e-14
1e-14
1e-14
1.00001e-14
1e-14
1e-14
1.58697e-14
1.0111e-14
1e-14
1e-14
1e-14
1e-14
1e-14
1e-14
1.00001e-14
1.00001e-14
1e-14
1e-14
7.90207e-13
1e-14
1.01123e-14
1e-14
1e-14
1e-14
1.00001e-14
1.00001e-14
1.00001e-14
1e-14
1e-14
1e-14
4.73031e-13
1e-14
1.01104e-14
1e-14
1e-14
1.00001e-14
1.00001e-14
1e-14
1e-14
1e-14
1e-14
4.27398e-13
1.20793e-14
1.23949e-14
1.00194e-14
1e-14
1e-14
1e-14
1e-14
1e-14
1e-14
1.89728e-14
1e-14
1.12449e-14
1.00206e-14
1.00124e-14
1e-14
1e-14
1e-14
1.47963e-13
1.78871e-14
1.01667e-14
1e-14
1e-14
1.08229e-14
1.02091e-14
1.00478e-12
1e-14
1e-14
1.19228e-14
1.49802e-14
3.462e-13
1.06843e-14
1e-14
1e-14
1e-14
1e-14
1.00001e-14
1e-14
1e-14
1e-14
1e-14
1e-14
1e-14
1e-14
1.00001e-14
3.88682e-13
1.1522e-14
1e-14
1e-14
1e-14
1e-14
1e-14
1e-14
1e-14
1e-14
1e-14
1e-14
1e-14
1e-14
1e-14
1e-14
1e-14
1e-14
1e-14
1e-14
1e-14
1e-14
1e-14
1e-14
1e-14
1e-14
1e-14
1e-14
1e-14
1.10748e-14
1.00162e-14
1e-14
1e-14
1e-14
1e-14
1e-14
1e-14
1e-14
1e-14
1e-14
1e-14
1e-14
1e-14
2.70795e-14
1.00632e-14
1e-14
1e-14
1e-14
1e-14
1e-14
1e-14
1e-14
1e-14
1e-14
1e-14
1e-14
1.00001e-14
2.45269e-13
1.17233e-14
1e-14
1e-14
1e-14
1e-14
1e-14
1e-14
1e-14
1e-14
1e-14
1e-14
1.00001e-14
1e-14
1.10438e-14
1.00188e-14
1e-14
1e-14
1e-14
1e-14
1e-14
1e-14
1e-14
1e-14
1.00001e-14
1.00001e-14
1e-14
1e-14
1.21949e-14
1e-14
1e-14
1e-14
1e-14
1e-14
1e-14
1e-14
1e-14
1.00001e-14
1e-14
1e-14
1.62644e-14
1.00343e-14
1e-14
1e-14
1e-14
1e-14
1e-14
1.00001e-14
1e-14
1e-14
1e-14
1e-14
7.8751e-13
1e-14
1.007e-14
1e-14
1e-14
1e-14
1.00001e-14
1e-14
1e-14
1e-14
1e-14
1.00001e-14
4.72196e-13
1e-14
1.00337e-14
1e-14
1e-14
1e-14
1e-14
1e-14
1e-14
1.00001e-14
1.00001e-14
4.23642e-13
1.2385e-14
1.21949e-14
1.00188e-14
1e-14
1e-14
1e-14
1e-14
1.00001e-14
1e-14
2.5836e-14
1e-14
1.17235e-14
1.00632e-14
1.00163e-14
1e-14
1e-14
1e-14
1.32207e-13
1.70808e-14
1.01147e-14
1e-14
1e-14
1.15226e-14
1.06845e-14
1.00653e-12
1e-14
1e-14
1.14901e-14
1.23655e-14
4.58942e-14
1.01922e-14
1e-14
1e-14
1e-14
1.00001e-14
1.00001e-14
1e-14
1e-14
1e-14
1e-14
1e-14
1e-14
1e-14
1e-14
3.87001e-14
1.0309e-14
1e-14
1e-14
1e-14
1e-14
1e-14
1e-14
1e-14
1e-14
1e-14
1e-14
1e-14
1e-14
1e-14
1e-14
1e-14
1e-14
1e-14
1e-14
1e-14
1e-14
1e-14
1e-14
1e-14
1e-14
1e-14
1e-14
1.00001e-14
1.07896e-14
1.0003e-14
1e-14
1e-14
1e-14
1e-14
1e-14
1e-14
1e-14
1e-14
1e-14
1e-14
1e-14
1.00001e-14
1.65618e-14
1.00151e-14
1e-14
1e-14
1e-14
1e-14
1e-14
1e-14
1e-14
1e-14
1e-14
1e-14
1e-14
1.00001e-14
4.16922e-14
1.02436e-14
1e-14
1e-14
1e-14
1e-14
1e-14
1e-14
1e-14
1e-14
1e-14
1e-14
1.00001e-14
1.00001e-14
1.04899e-14
1.00027e-14
1e-14
1e-14
1e-14
1e-14
1e-14
1e-14
1e-14
1.00001e-14
1e-14
1e-14
1.00001e-14
2.71847e-14
1.02992e-14
1e-14
1.00001e-14
1e-14
1e-14
1e-14
1e-14
1.00001e-14
1.00001e-14
1e-14
1e-14
1e-14
1.24256e-14
1.00034e-14
1e-14
1e-14
1e-14
1e-14
1.00001e-14
1.00001e-14
1e-14
1e-14
1e-14
1e-14
1e-14
1e-14
1.00085e-14
1e-14
1e-14
1e-14
1e-14
1e-14
1e-14
1e-14
1e-14
1.00001e-14
1e-14
1e-14
1.00033e-14
1e-14
1e-14
1e-14
1e-14
1e-14
1e-14
1.00001e-14
1.00001e-14
1e-14
1e-14
1.02992e-14
1.00026e-14
1e-14
1e-14
1e-14
1.00001e-14
1.00001e-14
1e-14
1.64546e-14
1.00279e-14
1.02436e-14
1.00151e-14
1.00031e-14
1.00001e-14
1e-14
1e-14
1e-14
1.64267e-14
1e-14
1.00196e-14
1e-14
1.03092e-14
1.01924e-14
1e-14
5.09906e-14
1.34539e-14
1.44523e-14
1e-14
1.05429e-14
1.00418e-14
1e-14
1e-14
1e-14
1e-14
1e-14
1e-14
1e-14
1e-14
1e-14
1e-14
1e-14
1e-14
1.00001e-14
1.02433e-14
1.00644e-14
1e-14
1e-14
1e-14
1e-14
1e-14
1e-14
1e-14
1e-14
1e-14
1e-14
1e-14
1e-14
1e-14
1.00133e-14
1e-14
1e-14
1e-14
1e-14
1e-14
1e-14
1e-14
1e-14
1e-14
1e-14
1e-14
1e-14
1e-14
1e-14
1.00012e-14
1.00006e-14
1e-14
1e-14
1e-14
1e-14
1e-14
1e-14
1e-14
1e-14
1e-14
1e-14
1e-14
1.00001e-14
1.00909e-14
1.00032e-14
1e-14
1e-14
1e-14
1e-14
1e-14
1e-14
1e-14
1e-14
1e-14
1e-14
1e-14
1.00001e-14
1.02865e-14
1.00424e-14
1e-14
1e-14
1e-14
1e-14
1e-14
1e-14
1e-14
1e-14
1e-14
1e-14
1e-14
1e-14
1.00125e-14
1.00004e-14
1e-14
1e-14
1e-14
1e-14
1e-14
1e-14
1e-14
1e-14
1e-14
1e-14
1e-14
1.00781e-14
1.00471e-14
1e-14
1e-14
1e-14
1e-14
1e-14
1e-14
1.00001e-14
1e-14
1e-14
1e-14
1e-14
1.00638e-14
1.00003e-14
1e-14
1e-14
1e-14
1e-14
1e-14
1e-14
1e-14
1e-14
1e-14
1e-14
1.00021e-14
1e-14
1.00009e-14
1e-14
1e-14
1e-14
1e-14
1e-14
1e-14
1e-14
1e-14
1.00001e-14
1.00003e-14
1e-14
1.00003e-14
1e-14
1e-14
1e-14
1e-14
1.00001e-14
1.00001e-14
1.00001e-14
1e-14
1.00012e-14
1e-14
1.00471e-14
1.00004e-14
1e-14
1e-14
1.00001e-14
1.00001e-14
1.00001e-14
1e-14
1.01097e-14
1e-14
1.00424e-14
1.00032e-14
1.00006e-14
1.00001e-14
1e-14
1e-14
1.00004e-14
1.01296e-14
1e-14
1.00013e-14
1e-14
1.00645e-14
1.00419e-14
1.0352e-14
1.00381e-14
1.01228e-14
1e-14
1.00063e-14
1.00077e-14
1e-14
1e-14
1e-14
1e-14
1e-14
1e-14
1e-14
1e-14
1e-14
1e-14
1e-14
1e-14
1.00002e-14
1.0002e-14
1.0012e-14
1e-14
1e-14
1e-14
1e-14
1e-14
1e-14
1e-14
1e-14
1e-14
1e-14
1e-14
1e-14
1e-14
1.00001e-14
1.00001e-14
1e-14
1e-14
1e-14
1e-14
1e-14
1e-14
1e-14
1e-14
1e-14
1e-14
1e-14
1e-14
1e-14
1.00001e-14
1.00001e-14
1e-14
1e-14
1e-14
1e-14
1e-14
1e-14
1e-14
1e-14
1e-14
1e-14
1e-14
1e-14
1.00009e-14
1.00005e-14
1e-14
1e-14
1e-14
1e-14
1e-14
1e-14
1e-14
1e-14
1e-14
1e-14
1e-14
1e-14
1.00018e-14
1.00064e-14
1e-14
1e-14
1e-14
1e-14
1e-14
1e-14
1e-14
1e-14
1e-14
1e-14
1e-14
1e-14
1.00004e-14
1.00001e-14
1e-14
1e-14
1e-14
1e-14
1e-14
1e-14
1e-14
1e-14
1e-14
1e-14
1e-14
1.00004e-14
1.00065e-14
1e-14
1e-14
1e-14
1e-14
1e-14
1e-14
1e-14
1e-14
1e-14
1e-14
1e-14
1.00011e-14
1e-14
1e-14
1e-14
1e-14
1e-14
1e-14
1e-14
1e-14
1e-14
1e-14
1e-14
1.00001e-14
1.00001e-14
1.00001e-14
1e-14
1e-14
1e-14
1e-14
1e-14
1e-14
1e-14
1e-14
1.00001e-14
1e-14
1.00001e-14
1.00001e-14
1e-14
1e-14
1e-14
1e-14
1e-14
1e-14
1e-14
1e-14
1e-14
1.00001e-14
1.00066e-14
1.00001e-14
1e-14
1e-14
1e-14
1e-14
1e-14
1e-14
1.00012e-14
1e-14
1.00064e-14
1.00006e-14
1.00001e-14
1e-14
1e-14
1e-14
1e-14
1.00019e-14
1e-14
1.00001e-14
1.00001e-14
1.00119e-14
1.00078e-14
1.00034e-14
1.00004e-14
1.00022e-14
1.00003e-14
1.00005e-14
1.00013e-14
1e-14
1e-14
1e-14
1e-14
1e-14
1e-14
1e-14
1e-14
1e-14
1e-14
1e-14
1e-14
1.00002e-14
1.00002e-14
1.00019e-14
1e-14
1e-14
1e-14
1e-14
1e-14
1e-14
1e-14
1e-14
1e-14
1e-14
1e-14
1e-14
1e-14
1e-14
1e-14
1e-14
1e-14
1e-14
1e-14
1e-14
1e-14
1e-14
1e-14
1e-14
1e-14
1e-14
1e-14
1.00001e-14
1e-14
1e-14
1e-14
1e-14
1e-14
1e-14
1e-14
1e-14
1e-14
1e-14
1e-14
1e-14
1e-14
1.00001e-14
1e-14
1.00001e-14
1e-14
1e-14
1e-14
1e-14
1e-14
1e-14
1e-14
1e-14
1e-14
1e-14
1e-14
1e-14
1e-14
1.00009e-14
1e-14
1e-14
1e-14
1e-14
1e-14
1e-14
1e-14
1e-14
1e-14
1e-14
1e-14
1e-14
1e-14
1e-14
1e-14
1e-14
1e-14
1e-14
1e-14
1e-14
1e-14
1e-14
1e-14
1e-14
1e-14
1e-14
1.00008e-14
1e-14
1e-14
1e-14
1e-14
1e-14
1e-14
1e-14
1e-14
1e-14
1e-14
1e-14
1e-14
1e-14
1e-14
1e-14
1e-14
1e-14
1e-14
1e-14
1e-14
1e-14
1e-14
1e-14
1e-14
1e-14
1e-14
1e-14
1e-14
1e-14
1e-14
1e-14
1e-14
1e-14
1e-14
1e-14
1e-14
1.00001e-14
1.00001e-14
1e-14
1e-14
1e-14
1e-14
1e-14
1e-14
1e-14
1e-14
1e-14
1.00001e-14
1.00009e-14
1e-14
1e-14
1e-14
1e-14
1e-14
1e-14
1e-14
1.00001e-14
1e-14
1.00008e-14
1.00001e-14
1e-14
1e-14
1e-14
1e-14
1e-14
1e-14
1e-14
1e-14
1e-14
1.0002e-14
1.00013e-14
1e-14
1e-14
1.00001e-14
1e-14
1e-14
1.00002e-14
1e-14
1e-14
1e-14
1e-14
1e-14
1e-14
1e-14
1e-14
1e-14
1e-14
1.00001e-14
1.00001e-14
1.00002e-14
1e-14
1.00003e-14
1e-14
1e-14
1e-14
1e-14
1e-14
1e-14
1e-14
1e-14
1e-14
1.00001e-14
1.00001e-14
1e-14
1.00001e-14
1e-14
1e-14
1e-14
1e-14
1e-14
1e-14
1e-14
1e-14
1e-14
1e-14
1e-14
1e-14
1e-14
1e-14
1.00001e-14
1e-14
1e-14
1e-14
1e-14
1e-14
1e-14
1e-14
1e-14
1e-14
1e-14
1e-14
1e-14
1e-14
1e-14
1e-14
1e-14
1e-14
1e-14
1e-14
1e-14
1e-14
1e-14
1e-14
1e-14
1e-14
1e-14
1e-14
1e-14
1e-14
1.00001e-14
1e-14
1e-14
1e-14
1e-14
1e-14
1e-14
1e-14
1e-14
1e-14
1e-14
1e-14
1e-14
1.00001e-14
1e-14
1.00001e-14
1.00001e-14
1e-14
1e-14
1e-14
1e-14
1e-14
1e-14
1e-14
1e-14
1e-14
1.00002e-14
1.00001e-14
1e-14
1e-14
1e-14
1e-14
1e-14
1e-14
1e-14
1e-14
1e-14
1e-14
1e-14
1e-14
1e-14
1e-14
1e-14
1e-14
1e-14
1e-14
1e-14
1e-14
1e-14
1e-14
1e-14
1e-14
1e-14
1e-14
1e-14
1e-14
1e-14
1e-14
1e-14
1e-14
1e-14
1e-14
1e-14
1e-14
1.00001e-14
1e-14
1e-14
1e-14
1e-14
1e-14
1e-14
1e-14
1e-14
1e-14
1e-14
1e-14
1.00001e-14
1e-14
1e-14
1e-14
1e-14
1e-14
1e-14
1e-14
1e-14
1e-14
1.00001e-14
1e-14
1e-14
1e-14
1e-14
1e-14
1e-14
1e-14
1e-14
1e-14
1e-14
1.00003e-14
1.00002e-14
1e-14
1.00001e-14
1e-14
1e-14
1e-14
1e-14
1e-14
1e-14
1e-14
1.00001e-14
1.00001e-14
1.00001e-14
1e-14
1.00001e-14
1.00001e-14
1.00001e-14
1.00002e-14
1.00001e-14
1.00003e-14
1e-14
1e-14
1e-14
1e-14
1e-14
1e-14
1e-14
1e-14
1e-14
1e-14
1.00001e-14
1.00001e-14
1e-14
1e-14
1.00001e-14
1e-14
1e-14
1e-14
1e-14
1e-14
1e-14
1e-14
1e-14
1e-14
1e-14
1.00001e-14
1e-14
1e-14
1e-14
1.00001e-14
1e-14
1e-14
1e-14
1e-14
1e-14
1e-14
1e-14
1e-14
1e-14
1e-14
1e-14
1e-14
1e-14
1e-14
1e-14
1e-14
1e-14
1e-14
1.00001e-14
1.00001e-14
1e-14
1e-14
1e-14
1e-14
1e-14
1e-14
1e-14
1e-14
1e-14
1e-14
1e-14
1.00001e-14
1.00001e-14
1e-14
1e-14
1e-14
1e-14
1e-14
1e-14
1e-14
1.00001e-14
1e-14
1e-14
1.00001e-14
1.00001e-14
1e-14
1e-14
1e-14
1e-14
1e-14
1e-14
1e-14
1e-14
1e-14
1e-14
1e-14
1e-14
1e-14
1e-14
1e-14
1e-14
1e-14
1e-14
1e-14
1e-14
1e-14
1e-14
1e-14
1e-14
1e-14
1e-14
1e-14
1e-14
1e-14
1e-14
1e-14
1e-14
1e-14
1e-14
1e-14
1e-14
1e-14
1e-14
1e-14
1.00001e-14
1e-14
1e-14
1e-14
1e-14
1e-14
1e-14
1.00001e-14
1e-14
1.00001e-14
1e-14
1e-14
1e-14
1e-14
1e-14
1e-14
1e-14
1e-14
1.00001e-14
1e-14
1e-14
1e-14
1e-14
1e-14
1e-14
1e-14
1e-14
1e-14
1.00001e-14
1.00001e-14
1.00001e-14
1e-14
1e-14
1e-14
1e-14
1.00001e-14
1e-14
1.00001e-14
1e-14
1e-14
1e-14
1e-14
1e-14
1e-14
1e-14
1.00002e-14
1e-14
1e-14
1e-14
1e-14
1.00001e-14
1.00001e-14
1.00001e-14
1.00001e-14
1.00001e-14
1.00001e-14
1e-14
1.00001e-14
1.00001e-14
1.00001e-14
1e-14
1.00001e-14
1.00005e-14
1e-14
1e-14
1e-14
1e-14
1e-14
1e-14
1e-14
1e-14
1e-14
1e-14
1e-14
1e-14
1e-14
1e-14
1.00001e-14
1e-14
1e-14
1e-14
1e-14
1e-14
1e-14
1e-14
1e-14
1e-14
1e-14
1e-14
1e-14
1e-14
1e-14
1.00001e-14
1e-14
1e-14
1e-14
1e-14
1e-14
1e-14
1e-14
1e-14
1e-14
1e-14
1e-14
1e-14
1e-14
1.00001e-14
1e-14
1e-14
1e-14
1e-14
1.00001e-14
1.00001e-14
1e-14
1e-14
1e-14
1e-14
1e-14
1e-14
1e-14
1e-14
1e-14
1e-14
1.00001e-14
1.00001e-14
1e-14
1e-14
1e-14
1e-14
1e-14
1e-14
1e-14
1e-14
1e-14
1e-14
1.00001e-14
1e-14
1e-14
1e-14
1e-14
1.00001e-14
1.00001e-14
1e-14
1e-14
1e-14
1e-14
1e-14
1e-14
1e-14
1e-14
1e-14
1e-14
1.00001e-14
1.00001e-14
1.00001e-14
1e-14
1e-14
1e-14
1e-14
1e-14
1e-14
1e-14
1e-14
1e-14
1.00001e-14
1.00001e-14
1.00001e-14
1e-14
1e-14
1e-14
1e-14
1e-14
1e-14
1.00001e-14
1e-14
1.00001e-14
1.00001e-14
1.00001e-14
1e-14
1e-14
1e-14
1e-14
1e-14
1e-14
1.00001e-14
1e-14
1e-14
1.00001e-14
1.00001e-14
1e-14
1e-14
1e-14
1e-14
1e-14
1.00001e-14
1.00001e-14
1e-14
1e-14
1e-14
1e-14
1e-14
1e-14
1e-14
1e-14
1.00001e-14
1e-14
1e-14
1e-14
1e-14
1e-14
1e-14
1e-14
1e-14
1e-14
1.00001e-14
1e-14
1e-14
1e-14
1e-14
1e-14
1e-14
1e-14
1e-14
1e-14
1e-14
1.00002e-14
1e-14
1.00001e-14
1e-14
1e-14
1e-14
1e-14
1e-14
1.00001e-14
1.00001e-14
1e-14
1e-14
1e-14
1e-14
1.00004e-14
1e-14
1e-14
1e-14
1e-14
1e-14
1e-14
1e-14
1e-14
1e-14
1e-14
1e-14
1e-14
1e-14
1e-14
1.00001e-14
1e-14
1e-14
1e-14
1e-14
1e-14
1e-14
1e-14
1e-14
1e-14
1e-14
1e-14
1e-14
1.00001e-14
1.00001e-14
1.00001e-14
1e-14
1e-14
1e-14
1e-14
1e-14
1e-14
1e-14
1e-14
1e-14
1e-14
1e-14
1e-14
1e-14
1.00001e-14
1.00001e-14
1e-14
1.00001e-14
1.00001e-14
1.00001e-14
1e-14
1e-14
1e-14
1e-14
1e-14
1e-14
1e-14
1e-14
1e-14
1e-14
1e-14
1.00001e-14
1e-14
1e-14
1e-14
1e-14
1e-14
1e-14
1e-14
1e-14
1e-14
1e-14
1e-14
1e-14
1e-14
1e-14
1e-14
1.00001e-14
1.00001e-14
1e-14
1e-14
1e-14
1e-14
1e-14
1e-14
1e-14
1e-14
1e-14
1e-14
1.00001e-14
1.00001e-14
1e-14
1e-14
1e-14
1e-14
1e-14
1e-14
1e-14
1e-14
1e-14
1e-14
1.00001e-14
1e-14
1.00001e-14
1e-14
1e-14
1e-14
1e-14
1e-14
1e-14
1e-14
1e-14
1e-14
1.00001e-14
1.00001e-14
1e-14
1e-14
1e-14
1e-14
1e-14
1e-14
1e-14
1e-14
1.00002e-14
1e-14
1.00001e-14
1e-14
1e-14
1e-14
1e-14
1e-14
1e-14
1e-14
1e-14
1.00001e-14
1e-14
1e-14
1e-14
1e-14
1e-14
1e-14
1e-14
1e-14
1e-14
1e-14
1e-14
1e-14
1e-14
1e-14
1e-14
1e-14
1.00001e-14
1e-14
1e-14
1e-14
1e-14
1e-14
1e-14
1.00001e-14
1e-14
1e-14
1e-14
1e-14
4.73795e-13
1.97897e-14
5.0493e-13
2.11773e-14
5.34922e-13
2.42489e-14
3.33642e-14
5.89331e-14
1.2608e-14
1.07033e-14
7.86705e-14
1.05422e-13
1.12626e-12
3.79221e-14
1.16514e-14
4.35512e-14
1.01317e-14
3.20828e-13
1.7662e-14
5.25527e-14
1.17265e-14
4.30657e-13
1.47381e-14
1.01111e-14
4.04453e-14
1.13399e-14
9.64643e-13
1.12985e-13
1.3992e-14
8.6884e-14
1e-14
2.72902e-14
1.02963e-14
4.1079e-13
1.51266e-14
9.94507e-13
6.88916e-14
1.0202e-12
1.03176e-12
6.19692e-14
1.02834e-12
1.01853e-12
6.87749e-14
9.94547e-13
1.51181e-14
1.02977e-14
4.10781e-13
2.72918e-14
1e-14
8.68728e-14
1.39972e-14
1.13387e-13
1.13469e-14
1.0122e-14
4.06528e-14
1.5009e-14
9.63431e-13
4.30545e-13
1.21309e-14
5.12295e-14
1.77486e-14
3.21612e-13
1.01583e-14
1.15908e-14
4.3453e-14
3.70853e-14
1.12615e-12
9.63997e-14
7.71711e-14
1.0469e-14
1.27502e-14
5.90752e-14
3.28649e-14
2.41934e-14
5.37041e-13
2.11826e-14
1.96713e-14
5.06676e-13
4.74181e-13
1.43072e-14
3.73433e-13
1.5041e-14
4.67796e-13
1.83578e-14
4.99823e-13
1.97135e-14
1.821e-14
1.20072e-14
5.30194e-13
2.229e-14
2.95158e-14
2.15462e-14
1e-14
5.16757e-14
1.21044e-14
1.01453e-14
1e-14
1.05155e-14
7.14885e-14
1e-14
1.00902e-12
9.09754e-14
1.11948e-12
1e-14
1e-14
1.01688e-14
3.30536e-14
1.10816e-14
4.08079e-14
1.01523e-14
1.46363e-14
1.80124e-14
3.18879e-13
1.66602e-14
4.65229e-14
1e-14
1.44609e-13
1.24353e-14
4.29088e-13
1.00658e-14
2.6333e-14
1e-14
1.41653e-14
1.00701e-14
3.68604e-14
1.10745e-14
7.42632e-13
9.58608e-13
1.2834e-14
1.84685e-14
1.07633e-13
1.34916e-14
7.81413e-14
1e-14
1e-14
1.00177e-14
3.08423e-13
1.22725e-14
2.58492e-14
1.01939e-14
4.04824e-13
1.41664e-14
1.36602e-14
4.1377e-13
9.85263e-13
6.09411e-14
1.02442e-12
1.17489e-14
4.57915e-13
1.03383e-12
5.44655e-14
1.03025e-12
1.36578e-14
7.89997e-13
1.02272e-12
6.08592e-14
9.8519e-13
1.00181e-14
3.08378e-13
1.6056e-14
1.41613e-14
1.0194e-14
4.04823e-13
2.58464e-14
1e-14
1e-14
1.28288e-14
1e-14
7.81394e-14
1.34883e-14
1.07451e-13
1.00674e-14
2.6486e-14
1.09084e-14
1.10846e-14
1.0072e-14
3.69692e-14
1.42036e-14
7.42843e-13
9.58623e-13
1e-14
4.29224e-13
1.24346e-14
1.47028e-14
2.47182e-13
4.68427e-14
1.67521e-14
3.1911e-13
1e-14
1e-14
2.71638e-14
1.01497e-14
1.1111e-14
4.08402e-14
3.34422e-14
1e-14
1.11978e-12
9.17279e-14
1.01666e-14
7.20499e-14
1.05053e-14
2.26287e-14
1.2138e-14
5.21768e-14
1.82436e-14
4.02217e-13
2.97033e-14
2.2396e-14
5.30547e-13
1.43546e-14
3.7626e-13
3.59429e-13
1.98218e-14
1.84476e-14
5.00189e-13
4.67967e-13
1.43065e-14
3.76808e-13
1.50393e-14
4.67809e-13
1.83071e-14
4.9968e-13
1.96626e-14
1.79931e-14
1.2161e-14
5.3043e-13
2.22493e-14
2.91788e-14
2.39657e-14
1e-14
5.10826e-14
1.20716e-14
1.01375e-14
1e-14
1.04701e-14
7.17829e-14
1e-14
1.01077e-12
9.1787e-14
1.11962e-12
1e-14
1e-14
1.01769e-14
3.29782e-14
1.10252e-14
4.00642e-14
1.01421e-14
1.45482e-14
1.82539e-14
3.19221e-13
1.66476e-14
4.65326e-14
1e-14
1.52004e-13
1.27284e-14
4.27898e-13
1.00603e-14
2.68188e-14
1e-14
1.42123e-14
1.0068e-14
3.69124e-14
1.10056e-14
7.47482e-13
9.59322e-13
1.27101e-14
1.95341e-14
1.09166e-13
1.34274e-14
7.68534e-14
1.04596e-14
1e-14
1.00276e-14
3.0953e-13
1.21384e-14
2.60026e-14
1.01946e-14
4.05211e-13
1.40126e-14
1.49539e-14
4.28433e-13
9.86402e-13
5.92032e-14
1.02148e-12
1.2607e-14
4.73013e-13
1.03105e-12
5.30333e-14
1.02745e-12
1.49503e-14
7.91377e-13
1.01977e-12
5.91206e-14
9.86319e-13
1.00278e-14
3.09507e-13
1.59507e-14
1.40081e-14
1.01943e-14
4.05204e-13
2.59988e-14
1.04662e-14
1e-14
1.27108e-14
1e-14
7.68669e-14
1.34281e-14
1.09133e-13
1.00605e-14
2.68598e-14
1.08075e-14
1.10064e-14
1.00688e-14
3.69229e-14
1.42169e-14
7.47464e-13
9.59431e-13
1e-14
4.27908e-13
1.27272e-14
1.45771e-14
2.48168e-13
4.65718e-14
1.66599e-14
3.19221e-13
1e-14
1e-14
2.68595e-14
1.01419e-14
1.10278e-14
4.00517e-14
3.30318e-14
1e-14
1.11995e-12
9.18595e-14
1.01409e-14
7.18434e-14
1.04716e-14
2.41061e-14
1.20801e-14
5.11301e-14
1.80269e-14
4.03522e-13
2.9195e-14
2.22716e-14
5.30413e-13
1.43359e-14
3.76778e-13
3.59729e-13
1.96903e-14
1.83202e-14
4.99772e-13
4.67629e-13
1.43748e-14
3.77169e-13
1.51099e-14
4.679e-13
1.83302e-14
4.997e-13
1.96927e-14
1.80511e-14
1.21956e-14
5.30461e-13
2.22945e-14
2.9163e-14
2.45153e-14
1e-14
5.11449e-14
1.20679e-14
1.01386e-14
1e-14
1.04668e-14
7.17623e-14
1e-14
1.00901e-12
9.1986e-14
1.11969e-12
1e-14
1e-14
1.01805e-14
3.30312e-14
1.10173e-14
3.99077e-14
1.01409e-14
1.45977e-14
1.84416e-14
3.19432e-13
1.66769e-14
4.65664e-14
1e-14
1.51729e-13
1.27985e-14
4.27338e-13
1.00582e-14
2.70784e-14
1e-14
1.42402e-14
1.00652e-14
3.69749e-14
1.09888e-14
7.48167e-13
9.59698e-13
1.27038e-14
1.97585e-14
1.10112e-13
1.34185e-14
7.66781e-14
1.07875e-14
1e-14
1.00284e-14
3.09784e-13
1.21235e-14
2.60483e-14
1.01888e-14
4.05362e-13
1.39999e-14
1.52518e-14
4.28473e-13
9.86565e-13
5.89335e-14
1.0209e-12
1.27967e-14
4.73225e-13
1.03044e-12
5.28035e-14
1.02686e-12
1.52454e-14
7.91079e-13
1.01923e-12
5.88452e-14
9.86566e-13
1.00285e-14
3.09751e-13
1.59913e-14
1.39952e-14
1.01887e-14
4.05334e-13
2.6047e-14
1.07933e-14
1e-14
1.27041e-14
1e-14
7.66824e-14
1.34187e-14
1.10098e-13
1.00584e-14
2.70865e-14
1.08132e-14
1.09891e-14
1.00658e-14
3.69763e-14
1.42416e-14
7.48233e-13
9.59661e-13
1e-14
4.2732e-13
1.2796e-14
1.46006e-14
2.48339e-13
4.65785e-14
1.66793e-14
3.19431e-13
1e-14
1e-14
2.69606e-14
1.01407e-14
1.10181e-14
3.99001e-14
3.30422e-14
1e-14
1.1198e-12
9.19967e-14
1.01418e-14
7.17794e-14
1.04648e-14
2.45423e-14
1.20689e-14
5.1151e-14
1.80626e-14
4.03945e-13
2.91675e-14
2.23009e-14
5.305e-13
1.43819e-14
3.77044e-13
3.60024e-13
1.97018e-14
1.83324e-14
4.99734e-13
4.67595e-13
1.43813e-14
3.77013e-13
1.51201e-14
4.67857e-13
1.83668e-14
4.99831e-13
1.97435e-14
1.80678e-14
1.21588e-14
5.3064e-13
2.23829e-14
2.93181e-14
2.46792e-14
1e-14
5.14259e-14
1.20654e-14
1.01382e-14
1e-14
1.04729e-14
7.16747e-14
1e-14
1.00842e-12
9.20628e-14
1.11959e-12
1e-14
1e-14
1.01802e-14
3.31071e-14
1.10136e-14
3.96781e-14
1.01399e-14
1.46045e-14
1.83696e-14
3.19736e-13
1.66966e-14
4.66095e-14
1e-14
1.51339e-13
1.28517e-14
4.26836e-13
1.00567e-14
2.70869e-14
1e-14
1.42548e-14
1.00616e-14
3.69726e-14
1.09731e-14
7.48465e-13
9.59843e-13
1.26912e-14
1.96997e-14
1.10956e-13
1.34057e-14
7.65345e-14
1.08098e-14
1e-14
1.00272e-14
3.09885e-13
1.21192e-14
2.60455e-14
1.01845e-14
4.0535e-13
1.39925e-14
1.5266e-14
4.28164e-13
9.86579e-13
5.89194e-14
1.02085e-12
1.28057e-14
4.73022e-13
1.0303e-12
5.28014e-14
1.02672e-12
1.52633e-14
7.9108e-13
1.01917e-12
5.88362e-14
9.86541e-13
1.00274e-14
3.09847e-13
1.60049e-14
1.39881e-14
1.01842e-14
4.05343e-13
2.60429e-14
1.08183e-14
1e-14
1.26914e-14
1e-14
7.65316e-14
1.34053e-14
1.10957e-13
1.00567e-14
2.70882e-14
1.08234e-14
1.0973e-14
1.00617e-14
3.69741e-14
1.42549e-14
7.48293e-13
9.59774e-13
1e-14
4.26804e-13
1.2851e-14
1.46054e-14
2.48411e-13
4.66146e-14
1.66976e-14
3.19751e-13
1e-14
1e-14
2.70199e-14
1.01399e-14
1.10134e-14
3.96811e-14
3.31075e-14
1e-14
1.11953e-12
9.20435e-14
1.01381e-14
7.16719e-14
1.04727e-14
2.46807e-14
1.20674e-14
5.14265e-14
1.80682e-14
4.03854e-13
2.9314e-14
2.23812e-14
5.30595e-13
1.43845e-14
3.76939e-13
3.59971e-13
1.97413e-14
1.83738e-14
4.99818e-13
4.6787e-13
1.43726e-14
3.76575e-13
1.51201e-14
4.67969e-13
1.84429e-14
5.00158e-13
1.98665e-14
1.80887e-14
1.20924e-14
5.30653e-13
2.26401e-14
2.98667e-14
2.49539e-14
1e-14
5.20108e-14
1.21129e-14
1.01317e-14
1e-14
1.05361e-14
7.17034e-14
1e-14
1.00754e-12
9.25729e-14
1.11932e-12
1e-14
1e-14
1.01771e-14
3.34033e-14
1.10068e-14
3.91243e-14
1.01391e-14
1.45987e-14
1.82135e-14
3.20586e-13
1.6737e-14
4.67846e-14
1e-14
1.5052e-13
1.29326e-14
4.26212e-13
1.00551e-14
2.70564e-14
1e-14
1.4278e-14
1.00572e-14
3.70554e-14
1.09573e-14
7.48492e-13
9.60002e-13
1.26581e-14
1.95178e-14
1.12143e-13
1.34097e-14
7.65554e-14
1.08295e-14
1e-14
1.00223e-14
3.1001e-13
1.21119e-14
2.6063e-14
1.01841e-14
4.05309e-13
1.4004e-14
1.5245e-14
4.28003e-13
9.86542e-13
5.92063e-14
1.02063e-12
1.27981e-14
4.72873e-13
1.03007e-12
5.29827e-14
1.02649e-12
1.52396e-14
7.91002e-13
1.01896e-12
5.91271e-14
9.86484e-13
1.00225e-14
3.09974e-13
1.59887e-14
1.3999e-14
1.01836e-14
4.05306e-13
2.60584e-14
1.08365e-14
1e-14
1.26577e-14
1e-14
7.65456e-14
1.34088e-14
1.12135e-13
1.0055e-14
2.70571e-14
1.08384e-14
1.09573e-14
1.00571e-14
3.70572e-14
1.42778e-14
7.48394e-13
9.59937e-13
1e-14
4.26209e-13
1.29324e-14
1.45999e-14
2.4842e-13
4.67843e-14
1.67372e-14
3.20596e-13
1e-14
1e-14
2.71791e-14
1.0139e-14
1.10071e-14
3.91207e-14
3.3408e-14
1e-14
1.11939e-12
9.25906e-14
1.01333e-14
7.17132e-14
1.05345e-14
2.4958e-14
1.21143e-14
5.20141e-14
1.80875e-14
4.03158e-13
2.98668e-14
2.26405e-14
5.30662e-13
1.43757e-14
3.76478e-13
3.5962e-13
1.98649e-14
1.8447e-14
5.00138e-13
4.68016e-13
1.42332e-14
3.74812e-13
1.49806e-14
4.68938e-13
1.88786e-14
5.01795e-13
2.05095e-14
1.80934e-14
1.19242e-14
5.31699e-13
2.34596e-14
3.15578e-14
2.61388e-14
1e-14
5.33175e-14
1.24682e-14
1.01125e-14
1e-14
1.07682e-14
7.39555e-14
1e-14
1.0048e-12
9.44182e-14
1.12002e-12
1e-14
1e-14
1.01665e-14
3.50303e-14
1.10111e-14
3.97816e-14
1.01586e-14
1.45208e-14
1.7889e-14
3.23152e-13
1.69344e-14
4.7469e-14
1e-14
1.47979e-13
1.29889e-14
4.24438e-13
1.00488e-14
2.70763e-14
1e-14