/*--------------------------------*- C++ -*----------------------------------*\
| =========                 |                                                 |
| \\      /  F ield         | OpenFOAM: The Open Source CFD Toolbox           |
|  \\    /   O peration     | Version:  2.1.1                                 |
|   \\  /    A nd           | Web:      www.OpenFOAM.org                      |
|    \\/     M anipulation  |                                                 |
\*---------------------------------------------------------------------------*/
FoamFile
{
    version     2.0;
    format      ascii;
    class       volVectorField;
    location    "0.0045";
    object      U;
}
// * * * * * * * * * * * * * * * * * * * * * * * * * * * * * * * * * * * * * //

dimensions      [0 1 -1 0 0 0 0];

internalField   nonuniform List<vector> 
10229
(
(-0.00497949 -7.57567e-07 0.0217344)
(-0.000244798 -3.55686e-05 0.0881899)
(0.000206331 -1.54226e-05 0.112814)
(-0.000111614 -6.15272e-06 0.112312)
(0.000120725 -1.27847e-05 0.111955)
(-3.26976e-05 -4.71418e-06 0.112168)
(7.85922e-05 -1.0543e-05 0.112313)
(5.27077e-06 -6.19363e-06 0.112389)
(5.98969e-05 -9.90805e-06 0.112453)
(1.91337e-05 -7.90664e-06 0.112504)
(4.42592e-05 -1.0081e-05 0.112557)
(1.73744e-05 -9.58975e-06 0.112606)
(2.82798e-05 -1.106e-05 0.112658)
(5.97349e-06 -1.09032e-05 0.112705)
(1.00603e-05 -1.15368e-05 0.112737)
(-0.00468198 -0.000706434 0.0197572)
(-0.000255015 8.91747e-05 0.0888612)
(0.000241307 -5.98443e-05 0.11329)
(-0.000106403 5.5353e-05 0.112568)
(0.000121359 -3.08625e-05 0.112109)
(-2.94728e-05 1.63497e-05 0.112251)
(7.70615e-05 -1.71616e-05 0.112344)
(6.03569e-06 1.29867e-06 0.112392)
(5.78011e-05 -1.12061e-05 0.112444)
(1.88812e-05 -4.19796e-06 0.112491)
(4.26896e-05 -8.83298e-06 0.112544)
(1.64645e-05 -6.06065e-06 0.112591)
(2.6908e-05 -7.89112e-06 0.112641)
(5.40821e-06 -6.57838e-06 0.112681)
(9.70539e-06 -7.33316e-06 0.112706)
(-0.00127506 -0.00150386 0.0104576)
(-0.000154024 -0.00011731 0.0937167)
(0.000121379 -4.65237e-05 0.116133)
(-7.59134e-05 3.34849e-05 0.113506)
(7.80044e-05 -4.83364e-05 0.112319)
(-1.68497e-05 7.24593e-06 0.112326)
(6.32324e-05 -3.44798e-05 0.112372)
(1.14793e-05 -9.56755e-06 0.112387)
(5.43168e-05 -2.8565e-05 0.112425)
(2.15182e-05 -1.88541e-05 0.112466)
(4.23805e-05 -2.78933e-05 0.112517)
(1.83168e-05 -2.46757e-05 0.112563)
(2.77685e-05 -2.85406e-05 0.112609)
(6.53302e-06 -2.81346e-05 0.112642)
(9.4635e-06 -2.93931e-05 0.112659)
(-0.000481736 0.000350299 0.0751884)
(0.000399727 -0.000178437 0.113412)
(-9.95221e-05 0.000125978 0.114771)
(8.82701e-05 -6.87958e-05 0.112619)
(-1.53724e-05 1.66137e-05 0.112299)
(5.99919e-05 -3.40737e-05 0.112337)
(1.21181e-05 -6.31525e-06 0.112348)
(4.83745e-05 -2.46791e-05 0.112379)
(1.95072e-05 -1.41937e-05 0.112421)
(3.68331e-05 -2.12134e-05 0.112474)
(1.58083e-05 -1.62395e-05 0.112521)
(2.34463e-05 -1.93039e-05 0.112564)
(4.55671e-06 -1.77729e-05 0.112592)
(8.26628e-06 -1.8467e-05 0.112608)
(-0.00589407 0.0014357 0.0290676)
(-0.00027037 -0.00020788 0.0885553)
(8.29445e-05 0.000176146 0.114024)
(-2.92854e-05 -0.000101485 0.113145)
(1.32065e-05 1.25413e-05 0.112199)
(3.96266e-05 -5.21392e-05 0.112211)
(2.09068e-05 -1.46287e-05 0.11226)
(4.6336e-05 -4.23062e-05 0.112306)
(2.48895e-05 -2.84126e-05 0.112359)
(4.03147e-05 -4.07353e-05 0.112421)
(2.02304e-05 -3.76966e-05 0.112473)
(2.62519e-05 -4.38087e-05 0.112517)
(7.38099e-06 -4.38536e-05 0.112543)
(8.86989e-06 -4.54858e-05 0.112558)
(-0.00324605 0.000471856 0.0180722)
(-0.000332873 0.000386341 0.0720082)
(0.000294262 -0.000114999 0.112116)
(-5.90193e-06 5.2092e-05 0.11427)
(2.84205e-05 -5.39167e-05 0.112236)
(3.01159e-05 -2.48852e-05 0.112009)
(2.17255e-05 -2.25005e-05 0.112123)
(3.45275e-05 -2.62992e-05 0.112208)
(2.09868e-05 -2.173e-05 0.112284)
(2.75594e-05 -2.54731e-05 0.112359)
(1.27516e-05 -2.07475e-05 0.11242)
(1.73263e-05 -2.22674e-05 0.112465)
(2.8976e-06 -1.94363e-05 0.112491)
(6.47332e-06 -1.97596e-05 0.112505)
(-0.00882463 0.0018528 0.0309253)
(-0.000346067 -4.73915e-05 0.0875691)
(0.000112359 7.04902e-05 0.113545)
(-6.53505e-05 -1.67053e-05 0.112684)
(6.49843e-05 -4.00608e-05 0.111826)
(1.87575e-05 -2.30459e-05 0.111933)
(4.72237e-05 -4.77834e-05 0.112096)
(2.57209e-05 -3.53616e-05 0.112208)
(4.13907e-05 -4.72185e-05 0.112304)
(2.35209e-05 -4.93279e-05 0.112376)
(2.76162e-05 -5.48226e-05 0.112423)
(9.87977e-06 -5.87356e-05 0.112443)
(8.42332e-06 -6.0333e-05 0.112453)
(-0.00451703 -0.000456448 0.0193003)
(-0.000390135 0.000405831 0.073692)
(0.000345641 -0.000176522 0.112346)
(-1.75929e-05 -1.87458e-05 0.113794)
(1.98551e-05 -9.79267e-05 0.111791)
(1.16895e-05 -1.26134e-05 0.111681)
(2.22253e-05 -1.96571e-05 0.111934)
(2.14392e-05 -2.23018e-05 0.112121)
(1.36465e-05 -2.14275e-05 0.112257)
(5.24862e-06 -1.2508e-05 0.112344)
(8.06659e-06 -1.19424e-05 0.112385)
(-2.51873e-06 -6.52125e-06 0.112389)
(4.79744e-06 -5.5792e-06 0.112388)
(-0.00603419 0.00061462 0.0313923)
(-0.000345108 -0.000248538 0.0887054)
(8.31392e-05 0.000265403 0.113548)
(6.87712e-05 -6.9068e-05 0.112651)
(9.70713e-05 -2.01593e-05 0.111793)
(3.98527e-05 -6.53169e-05 0.111826)
(2.46688e-05 -3.05699e-05 0.112005)
(5.13954e-05 -4.0347e-05 0.112205)
(3.2969e-05 -6.04895e-05 0.112331)
(3.34389e-05 -6.38101e-05 0.112366)
(1.60006e-05 -7.72218e-05 0.112339)
(9.4141e-06 -7.92458e-05 0.11231)
(-0.00423027 -0.00184938 0.014947)
(-0.000460322 0.000582777 0.0705349)
(0.00056352 -0.000565795 0.112483)
(-0.000265922 -8.3253e-05 0.113543)
(1.78677e-05 1.71246e-05 0.113791)
(1.57426e-05 6.50194e-05 0.112679)
(5.24522e-05 -2.88877e-05 0.112228)
(-1.35889e-05 -1.36755e-05 0.112191)
(-1.7555e-05 1.4889e-05 0.112291)
(-8.42188e-06 1.6291e-05 0.112319)
(-1.76401e-05 2.9238e-05 0.112244)
(3.29571e-06 3.23699e-05 0.112165)
(0.00237947 -0.0116368 0.0165365)
(-0.00058092 0.000461668 0.0704802)
(0.000248921 0.000344852 0.0886594)
(0.000175346 -0.000347177 0.112331)
(-7.07186e-05 -0.000113215 0.113534)
(-5.23933e-05 5.06239e-06 0.114261)
(0.000100757 2.8794e-05 0.113135)
(6.7613e-05 -8.85296e-05 0.112607)
(4.75272e-05 -7.84771e-05 0.112307)
(2.99153e-05 -0.000121517 0.112097)
(1.18145e-05 -0.000121288 0.111949)
(0.00418029 -0.00862232 0.018877)
(-0.00141226 -0.00061902 0.0271484)
(-0.000406334 0.000389478 0.0736811)
(4.69647e-05 0.000344947 0.0875564)
(0.000113906 -0.000295413 0.112106)
(-0.000176625 -8.37655e-05 0.114014)
(-0.00012689 9.90558e-05 0.114758)
(-3.45841e-05 7.51146e-05 0.11349)
(-5.67324e-05 0.0001057 0.112551)
(4.72641e-06 0.000111023 0.112304)
(-0.00215565 0.00142129 0.0296485)
(-0.00447082 0.000438723 0.0268675)
(-0.000385712 0.000332075 0.0720034)
(0.000207849 0.00026941 0.0885475)
(0.000177273 -0.000400789 0.113397)
(4.53866e-05 -0.00012216 0.11611)
(5.90598e-05 -0.000242249 0.113265)
(1.45238e-05 -0.000207449 0.112802)
(-0.00252249 0.000427356 0.0166274)
(-0.00269847 0.0015805 0.0314885)
(-0.00434318 -0.000175228 0.0269844)
(-0.000350155 0.000479911 0.0751792)
(0.00011646 0.000152044 0.0937)
(-9.07242e-05 0.000253136 0.0888431)
(3.42574e-05 0.000243035 0.0881819)
(-0.0023005 -0.00657718 0.0221232)
(0.00298933 -0.00667983 0.0251121)
(-0.00108363 0.00153147 0.0321049)
(0.000151928 0.00148739 0.0293725)
(-0.00498001 -6.55683e-07 0.0217367)
(-0.000242374 -3.51507e-05 0.0881833)
(0.000209492 -1.47891e-05 0.112813)
(-0.000108816 -8.31596e-06 0.112309)
(0.000124296 -1.26774e-05 0.111955)
(-2.87746e-05 -5.36978e-06 0.112167)
(8.33463e-05 -1.10424e-05 0.112314)
(9.35031e-06 -6.79696e-06 0.11239)
(6.43902e-05 -1.04057e-05 0.112456)
(2.29435e-05 -8.42735e-06 0.112505)
(4.83407e-05 -1.06339e-05 0.11256)
(2.00814e-05 -1.0312e-05 0.112608)
(3.09616e-05 -1.17193e-05 0.11266)
(7.29942e-06 -1.16223e-05 0.112706)
(1.14824e-05 -1.28499e-05 0.112738)
(-0.00468236 -0.000706499 0.0197593)
(-0.000252371 8.90907e-05 0.0888555)
(0.00024204 -6.09749e-05 0.113288)
(-0.000104142 5.5608e-05 0.112564)
(0.000126557 -3.21573e-05 0.112108)
(-2.59788e-05 1.56441e-05 0.11225)
(8.19092e-05 -1.83412e-05 0.112346)
(1.02266e-05 3.86732e-07 0.112393)
(6.2411e-05 -1.21283e-05 0.112447)
(2.25848e-05 -4.97032e-06 0.112493)
(4.65064e-05 -9.70764e-06 0.112546)
(1.92979e-05 -7.01339e-06 0.112593)
(2.96568e-05 -8.74256e-06 0.112643)
(6.6792e-06 -7.76743e-06 0.112682)
(1.04759e-05 -8.31689e-06 0.112707)
(-0.00127518 -0.00150408 0.01046)
(-0.000152453 -0.000117001 0.0937116)
(0.000125333 -4.66289e-05 0.116128)
(-7.31147e-05 3.25409e-05 0.113505)
(8.06529e-05 -4.87244e-05 0.112318)
(-1.26977e-05 6.10101e-06 0.112326)
(6.78257e-05 -3.59207e-05 0.112373)
(1.58297e-05 -1.1023e-05 0.112388)
(5.89384e-05 -3.05377e-05 0.112427)
(2.53667e-05 -2.06358e-05 0.112468)
(4.6283e-05 -3.00016e-05 0.112519)
(2.10398e-05 -2.69888e-05 0.112565)
(3.02102e-05 -3.11752e-05 0.112611)
(7.73117e-06 -3.09423e-05 0.112643)
(1.03531e-05 -3.22303e-05 0.112662)
(-0.000478993 0.000350026 0.0751832)
(0.00039913 -0.000182203 0.113409)
(-9.72356e-05 0.000123943 0.114766)
(9.32605e-05 -7.11236e-05 0.112617)
(-1.28958e-05 1.43375e-05 0.112297)
(6.45523e-05 -3.57438e-05 0.112338)
(1.57732e-05 -8.24226e-06 0.112349)
(5.26274e-05 -2.67586e-05 0.112381)
(2.3046e-05 -1.61683e-05 0.112422)
(4.01094e-05 -2.36889e-05 0.112476)
(1.81152e-05 -1.88214e-05 0.112523)
(2.57098e-05 -2.22609e-05 0.112566)
(5.6302e-06 -2.05532e-05 0.112594)
(8.99902e-06 -2.14858e-05 0.112609)
(-0.00589498 0.00143633 0.0290716)
(-0.000269241 -0.000214048 0.0885505)
(8.7091e-05 0.00017769 0.11402)
(-2.69456e-05 -0.000104299 0.113142)
(1.79122e-05 1.17518e-05 0.112198)
(4.45315e-05 -5.46329e-05 0.112211)
(2.48245e-05 -1.66026e-05 0.11226)
(5.08783e-05 -4.5422e-05 0.112308)
(2.83279e-05 -3.12671e-05 0.112361)
(4.36066e-05 -4.43853e-05 0.112423)
(2.24681e-05 -4.10862e-05 0.112475)
(2.84904e-05 -4.76158e-05 0.112519)
(8.51328e-06 -4.75757e-05 0.112546)
(9.44125e-06 -4.94588e-05 0.11256)
(-0.00324654 0.00047127 0.0180744)
(-0.000331144 0.00038652 0.0720028)
(0.000300169 -0.000117447 0.112109)
(-3.16577e-06 5.31262e-05 0.114267)
(3.10635e-05 -5.59356e-05 0.112232)
(3.34071e-05 -2.64171e-05 0.11201)
(2.47301e-05 -2.51811e-05 0.112122)
(3.78794e-05 -2.91426e-05 0.11221)
(2.39734e-05 -2.48156e-05 0.112285)
(3.02878e-05 -2.90552e-05 0.11236)
(1.49113e-05 -2.40665e-05 0.112421)
(1.92715e-05 -2.59897e-05 0.112467)
(3.80913e-06 -2.32419e-05 0.112492)
(7.05632e-06 -2.3692e-05 0.112506)
(-0.00882619 0.00185357 0.0309297)
(-0.000342302 -5.39398e-05 0.087567)
(0.000115018 6.7335e-05 0.11354)
(-6.33886e-05 -1.56692e-05 0.112683)
(6.90867e-05 -4.41317e-05 0.111824)
(2.13271e-05 -2.48004e-05 0.111933)
(5.13605e-05 -5.19278e-05 0.112097)
(2.84204e-05 -3.88507e-05 0.112209)
(4.44628e-05 -5.18061e-05 0.112306)
(2.56451e-05 -5.35476e-05 0.112379)
(2.93884e-05 -5.96488e-05 0.112425)
(1.08076e-05 -6.3347e-05 0.112446)
(8.93907e-06 -6.50319e-05 0.112456)
(-0.00451747 -0.00045693 0.019302)
(-0.000388024 0.000404224 0.0736866)
(0.00035685 -0.00018242 0.112341)
(-1.58732e-05 -2.49914e-05 0.113789)
(2.02065e-05 -0.00010152 0.11179)
(1.45552e-05 -1.55283e-05 0.111679)
(2.3842e-05 -2.24858e-05 0.111934)
(2.39833e-05 -2.57581e-05 0.112121)
(1.56675e-05 -2.56383e-05 0.112257)
(7.2058e-06 -1.63353e-05 0.112345)
(9.64765e-06 -1.63639e-05 0.112385)
(-1.47095e-06 -1.06623e-05 0.11239)
(5.23943e-06 -9.8723e-06 0.11239)
(-0.0060356 0.000615904 0.0313965)
(-0.000345076 -0.000252703 0.0887016)
(8.75355e-05 0.000261028 0.113545)
(7.60899e-05 -7.66846e-05 0.112649)
(0.000100406 -2.06578e-05 0.111792)
(4.35107e-05 -6.95795e-05 0.111824)
(2.60265e-05 -3.41503e-05 0.112006)
(5.41378e-05 -4.54614e-05 0.112205)
(3.49147e-05 -6.51144e-05 0.112332)
(3.49043e-05 -6.84114e-05 0.112367)
(1.70433e-05 -8.22495e-05 0.112341)
(9.59957e-06 -8.40459e-05 0.112312)
(-0.00423087 -0.00184966 0.0149489)
(-0.000457869 0.00057983 0.0705311)
(0.000561542 -0.00056307 0.112478)
(-0.000261703 -8.76408e-05 0.11354)
(2.41961e-05 1.52648e-05 0.113787)
(1.44186e-05 6.29683e-05 0.112678)
(5.42743e-05 -3.13991e-05 0.112225)
(-1.25275e-05 -1.84419e-05 0.11219)
(-1.50374e-05 1.21801e-05 0.112289)
(-7.25314e-06 1.16311e-05 0.112318)
(-1.6826e-05 2.54573e-05 0.112244)
(3.96071e-06 2.81439e-05 0.112165)
(0.0023893 -0.0116425 0.0165282)
(-0.000581988 0.000458519 0.0704779)
(0.000251932 0.000344499 0.088656)
(0.000180861 -0.000358551 0.112327)
(-6.77087e-05 -0.000116185 0.113529)
(-5.36067e-05 2.15092e-06 0.114258)
(0.00010342 2.63118e-05 0.113132)
(6.97485e-05 -9.37261e-05 0.112606)
(4.78919e-05 -8.12858e-05 0.112306)
(3.13016e-05 -0.000126713 0.112097)
(1.17194e-05 -0.000125204 0.111949)
(0.00418144 -0.00862466 0.0188806)
(-0.00141403 -0.000619297 0.0271537)
(-0.00040459 0.000387477 0.0736759)
(5.32788e-05 0.000340955 0.0875547)
(0.00011626 -0.000301386 0.1121)
(-0.000177977 -8.80798e-05 0.11401)
(-0.000124682 9.64216e-05 0.114753)
(-3.3437e-05 7.22858e-05 0.113488)
(-5.70691e-05 0.000103257 0.112548)
(6.85449e-06 0.000107929 0.112302)
(-0.00215553 0.00142279 0.0296523)
(-0.0044717 0.000439727 0.0268727)
(-0.00038608 0.000330441 0.0719985)
(0.0002136 0.000267625 0.0885431)
(0.000180903 -0.000400593 0.113395)
(4.55908e-05 -0.000126277 0.116106)
(6.00176e-05 -0.000243054 0.113263)
(1.3786e-05 -0.000210545 0.112801)
(-0.00252274 0.000427462 0.0166288)
(-0.00269875 0.00158152 0.031492)
(-0.00434416 -0.000173865 0.0269901)
(-0.000349588 0.000476702 0.0751744)
(0.000116422 0.00015071 0.0936957)
(-9.04611e-05 0.000251052 0.0888379)
(3.38954e-05 0.000240709 0.088176)
(-0.00229976 -0.00657795 0.0221271)
(0.00299008 -0.00667969 0.0251172)
(-0.00108345 0.00153265 0.0321107)
(0.000151355 0.0014887 0.0293781)
(-0.00498041 -5.73023e-07 0.0217396)
(-0.000238933 -3.41046e-05 0.0881775)
(0.000214183 -1.51007e-05 0.112811)
(-0.000106419 -1.02433e-05 0.112306)
(0.00012799 -1.27116e-05 0.111956)
(-2.51337e-05 -6.09787e-06 0.112167)
(8.78048e-05 -1.13343e-05 0.112317)
(1.31035e-05 -7.27359e-06 0.11239)
(6.85844e-05 -1.08297e-05 0.112458)
(2.60597e-05 -9.1059e-06 0.112505)
(5.17461e-05 -1.1387e-05 0.11256)
(2.24975e-05 -1.09888e-05 0.112605)
(3.39827e-05 -1.24224e-05 0.112658)
(8.70471e-06 -1.26537e-05 0.112703)
(1.20904e-05 -1.34526e-05 0.112736)
(-0.00468289 -0.00070661 0.0197619)
(-0.000249289 9.05197e-05 0.08885)
(0.000243816 -6.33765e-05 0.113285)
(-0.000101324 5.69562e-05 0.112562)
(0.00013165 -3.35805e-05 0.112109)
(-2.25863e-05 1.52355e-05 0.112249)
(8.66311e-05 -1.93541e-05 0.112348)
(1.38588e-05 -2.11159e-07 0.112393)
(6.64694e-05 -1.30379e-05 0.112449)
(2.54657e-05 -5.60022e-06 0.112492)
(4.9861e-05 -1.06731e-05 0.112546)
(2.17925e-05 -7.43009e-06 0.112591)
(3.23356e-05 -9.69081e-06 0.112641)
(7.88281e-06 -8.99217e-06 0.112679)
(1.13836e-05 -9.67747e-06 0.112705)
(-0.00127541 -0.00150421 0.0104629)
(-0.00015023 -0.000116665 0.0937063)
(0.000130305 -4.5344e-05 0.116123)
(-6.94628e-05 3.0339e-05 0.113502)
(8.27051e-05 -4.94727e-05 0.112318)
(-8.50415e-06 4.77716e-06 0.112326)
(7.21281e-05 -3.73689e-05 0.112375)
(1.96976e-05 -1.23931e-05 0.112389)
(6.30909e-05 -3.23648e-05 0.112429)
(2.8421e-05 -2.21228e-05 0.112468)
(4.99006e-05 -3.18327e-05 0.11252)
(2.3467e-05 -2.88185e-05 0.112565)
(3.24146e-05 -3.36745e-05 0.11261)
(8.72487e-06 -3.3605e-05 0.112641)
(1.11711e-05 -3.5138e-05 0.11266)
(-0.000474201 0.000348977 0.075178)
(0.000398344 -0.000186644 0.113407)
(-9.6039e-05 0.000120727 0.11476)
(9.92985e-05 -7.39773e-05 0.112617)
(-1.01362e-05 1.22016e-05 0.112296)
(6.9229e-05 -3.78541e-05 0.11234)
(1.90078e-05 -9.96226e-06 0.112349)
(5.65372e-05 -2.86614e-05 0.112383)
(2.58935e-05 -1.77465e-05 0.112423)
(4.3109e-05 -2.57738e-05 0.112477)
(1.99415e-05 -2.09665e-05 0.112522)
(2.75592e-05 -2.46648e-05 0.112565)
(6.43115e-06 -2.27593e-05 0.112591)
(9.71758e-06 -2.39778e-05 0.112607)
(-0.00589647 0.0014364 0.0290766)
(-0.000267064 -0.000222508 0.0885476)
(9.22778e-05 0.000179143 0.114016)
(-2.38768e-05 -0.000107307 0.11314)
(2.27754e-05 1.056e-05 0.112198)
(4.91911e-05 -5.72488e-05 0.112212)
(2.88411e-05 -1.84744e-05 0.112261)
(5.51223e-05 -4.8377e-05 0.11231)
(3.11761e-05 -3.38578e-05 0.112362)
(4.66515e-05 -4.77229e-05 0.112425)
(2.45723e-05 -4.41634e-05 0.112475)
(3.06331e-05 -5.104e-05 0.112519)
(9.42337e-06 -5.08302e-05 0.112545)
(9.97895e-06 -5.29297e-05 0.11256)
(-0.00324713 0.000471031 0.018077)
(-0.000329258 0.000386394 0.0719981)
(0.000307409 -0.000119434 0.112102)
(3.26045e-07 5.33794e-05 0.114265)
(3.40965e-05 -5.76902e-05 0.11223)
(3.73142e-05 -2.87013e-05 0.11201)
(2.75541e-05 -2.73895e-05 0.112122)
(4.10234e-05 -3.19205e-05 0.112211)
(2.64166e-05 -2.73065e-05 0.112285)
(3.27966e-05 -3.20191e-05 0.112361)
(1.66617e-05 -2.67066e-05 0.112421)
(2.09599e-05 -2.92078e-05 0.112467)
(4.56677e-06 -2.62472e-05 0.112492)
(7.62031e-06 -2.68289e-05 0.112506)
(-0.0088278 0.00185431 0.0309357)
(-0.000338233 -5.95849e-05 0.0875635)
(0.000118149 6.46219e-05 0.113535)
(-6.12168e-05 -1.48254e-05 0.112682)
(7.31858e-05 -4.80627e-05 0.111822)
(2.47882e-05 -2.65165e-05 0.111933)
(5.53046e-05 -5.6027e-05 0.112098)
(3.10843e-05 -4.1952e-05 0.11221)
(4.73792e-05 -5.61118e-05 0.112308)
(2.7522e-05 -5.75478e-05 0.11238)
(3.11889e-05 -6.40593e-05 0.112427)
(1.18044e-05 -6.74216e-05 0.112447)
(9.47986e-06 -6.93582e-05 0.112457)
(-0.00451787 -0.000457391 0.0193045)
(-0.000384741 0.000402449 0.0736833)
(0.000367741 -0.000187293 0.112337)
(-1.41056e-05 -3.06856e-05 0.113785)
(2.14343e-05 -0.000103948 0.111789)
(1.71633e-05 -1.83558e-05 0.111678)
(2.56011e-05 -2.59368e-05 0.111935)
(2.62352e-05 -2.84114e-05 0.112121)
(1.73206e-05 -2.97472e-05 0.112258)
(8.89909e-06 -1.97832e-05 0.112345)
(1.12924e-05 -2.04479e-05 0.112386)
(-6.19024e-07 -1.45519e-05 0.112391)
(5.63529e-06 -1.38837e-05 0.11239)
(-0.00603711 0.000616729 0.0314017)
(-0.000344151 -0.000256727 0.0886988)
(9.21934e-05 0.000257712 0.113543)
(8.29344e-05 -8.37669e-05 0.112648)
(0.00010285 -2.20099e-05 0.111791)
(4.76818e-05 -7.37692e-05 0.111823)
(2.80958e-05 -3.82449e-05 0.112007)
(5.63342e-05 -5.02354e-05 0.112206)
(3.68736e-05 -6.97328e-05 0.112334)
(3.62791e-05 -7.2864e-05 0.112369)
(1.81001e-05 -8.71446e-05 0.112343)
(1.01317e-05 -8.86151e-05 0.112315)
(-0.00423146 -0.00184968 0.0149518)
(-0.000454961 0.000579413 0.0705288)
(0.000560108 -0.000561978 0.112473)
(-0.000258508 -9.2449e-05 0.113538)
(2.98137e-05 1.35657e-05 0.113782)
(1.35501e-05 6.05942e-05 0.112676)
(5.60495e-05 -3.47268e-05 0.112223)
(-1.12999e-05 -2.33548e-05 0.11219)
(-1.29577e-05 9.27875e-06 0.112288)
(-5.88369e-06 7.39432e-06 0.112318)
(-1.61254e-05 2.20462e-05 0.112243)
(4.68696e-06 2.43144e-05 0.112164)
(0.00238684 -0.0116426 0.016537)
(-0.000579998 0.000455901 0.0704749)
(0.000256168 0.00034329 0.088653)
(0.000185631 -0.000369528 0.112323)
(-6.51357e-05 -0.000119413 0.113525)
(-5.39283e-05 -1.45949e-06 0.114256)
(0.000106162 2.31056e-05 0.113131)
(7.24662e-05 -9.98795e-05 0.112606)
(4.87074e-05 -8.32197e-05 0.112307)
(3.26358e-05 -0.000131976 0.112098)
(1.16883e-05 -0.000129005 0.11195)
(0.00418186 -0.00862549 0.0188843)
(-0.00141547 -0.000619829 0.0271604)
(-0.000402979 0.000384533 0.0736728)
(5.8851e-05 0.000337179 0.0875512)
(0.000118236 -0.000308588 0.112093)
(-0.000179398 -9.34075e-05 0.114006)
(-0.000121274 9.53378e-05 0.114748)
(-3.12318e-05 6.85915e-05 0.113486)
(-5.83375e-05 0.000100528 0.112545)
(8.96067e-06 0.000105611 0.112299)
(-0.00215538 0.00142414 0.0296568)
(-0.00447274 0.000440867 0.0268791)
(-0.000386157 0.000328718 0.071994)
(0.000221935 0.00026541 0.0885404)
(0.000185227 -0.000399892 0.113394)
(4.43716e-05 -0.000131145 0.116102)
(6.24835e-05 -0.00024458 0.11326)
(1.41642e-05 -0.000215065 0.1128)
(-0.00252345 0.000427772 0.0166309)
(-0.00269865 0.00158222 0.0314969)
(-0.00434458 -0.000172417 0.0269966)
(-0.00034869 0.00047252 0.0751693)
(0.00011639 0.000148825 0.0936911)
(-9.17244e-05 0.000248208 0.088833)
(3.28881e-05 0.000237662 0.0881707)
(-0.00229979 -0.00657825 0.0221312)
(0.00299054 -0.0066798 0.0251226)
(-0.00108373 0.00153422 0.0321175)
(0.000151617 0.00149039 0.0293852)
(-0.00498084 -4.3083e-07 0.021743)
(-0.000235129 -3.34116e-05 0.088174)
(0.000218362 -1.50162e-05 0.112809)
(-0.000103494 -1.16641e-05 0.112303)
(0.00013139 -1.27513e-05 0.111958)
(-2.25874e-05 -6.65558e-06 0.112165)
(9.15086e-05 -1.14299e-05 0.112319)
(1.55908e-05 -7.58412e-06 0.112388)
(7.15731e-05 -1.11616e-05 0.112457)
(2.76562e-05 -9.65777e-06 0.112501)
(5.44144e-05 -1.18958e-05 0.112554)
(2.46992e-05 -1.17324e-05 0.112598)
(3.6956e-05 -1.33109e-05 0.11265)
(1.05909e-05 -1.38812e-05 0.112693)
(1.34304e-05 -1.48117e-05 0.112727)
(-0.00468348 -0.000706676 0.0197654)
(-0.000245428 9.21938e-05 0.0888456)
(0.000245886 -6.59607e-05 0.113284)
(-9.84815e-05 5.83221e-05 0.11256)
(0.000136033 -3.5246e-05 0.112111)
(-1.99325e-05 1.54332e-05 0.112248)
(9.06532e-05 -2.00472e-05 0.11235)
(1.60767e-05 -4.14082e-07 0.112391)
(6.93176e-05 -1.35518e-05 0.112448)
(2.69506e-05 -5.53467e-06 0.112488)
(5.22373e-05 -1.10669e-05 0.112541)
(2.33438e-05 -7.6734e-06 0.112585)
(3.49387e-05 -1.08527e-05 0.112633)
(9.25154e-06 -1.00729e-05 0.11267)
(1.25631e-05 -1.16197e-05 0.112695)
(-0.00127559 -0.00150424 0.0104662)
(-0.000147714 -0.000116416 0.0937014)
(0.000134437 -4.31482e-05 0.116119)
(-6.52572e-05 2.80098e-05 0.113498)
(8.50799e-05 -5.00479e-05 0.11232)
(-4.83141e-06 3.81027e-06 0.112326)
(7.54612e-05 -3.86491e-05 0.112377)
(2.23799e-05 -1.34028e-05 0.112388)
(6.63356e-05 -3.3802e-05 0.112429)
(3.01282e-05 -2.30511e-05 0.112465)
(5.22466e-05 -3.34475e-05 0.112517)
(2.48893e-05 -3.04385e-05 0.112559)
(3.45412e-05 -3.58192e-05 0.112604)
(9.82859e-06 -3.61997e-05 0.112633)
(1.21752e-05 -3.81932e-05 0.112651)
(-0.000468201 0.000347577 0.0751729)
(0.000397822 -0.000190014 0.113405)
(-9.5466e-05 0.000118338 0.114757)
(0.000105144 -7.71744e-05 0.112619)
(-8.11106e-06 1.07961e-05 0.112295)
(7.31965e-05 -3.9495e-05 0.112342)
(2.10497e-05 -1.07504e-05 0.112348)
(5.9432e-05 -3.0002e-05 0.112383)
(2.71753e-05 -1.84758e-05 0.11242)
(4.4778e-05 -2.70136e-05 0.112474)
(2.09557e-05 -2.17521e-05 0.112517)
(2.91826e-05 -2.59469e-05 0.112559)
(6.89654e-06 -2.40434e-05 0.112585)
(1.05579e-05 -2.58031e-05 0.1126)
(-0.00589808 0.00143636 0.0290828)
(-0.000264086 -0.000232849 0.0885465)
(9.66836e-05 0.000179865 0.114013)
(-2.06067e-05 -0.000111045 0.11314)
(2.79006e-05 9.46913e-06 0.112199)
(5.30523e-05 -5.99459e-05 0.112214)
(3.17525e-05 -1.96445e-05 0.112261)
(5.83674e-05 -5.08229e-05 0.112311)
(3.29418e-05 -3.56004e-05 0.112361)
(4.89256e-05 -4.99387e-05 0.112423)
(2.59503e-05 -4.58428e-05 0.112472)
(3.22715e-05 -5.3596e-05 0.112516)
(1.0003e-05 -5.30647e-05 0.112541)
(1.06441e-05 -5.5539e-05 0.112556)
(-0.00324789 0.000470691 0.0180799)
(-0.000327282 0.000385043 0.0719951)
(0.000315781 -0.000121174 0.112096)
(4.51274e-06 5.31103e-05 0.114263)
(3.70105e-05 -5.93466e-05 0.112229)
(4.10611e-05 -3.1422e-05 0.112011)
(2.97404e-05 -2.88177e-05 0.112122)
(4.32898e-05 -3.41124e-05 0.112212)
(2.79058e-05 -2.86691e-05 0.112284)
(3.45348e-05 -3.38287e-05 0.11236)
(1.73491e-05 -2.81176e-05 0.112418)
(2.20442e-05 -3.10627e-05 0.112464)
(4.9889e-06 -2.7737e-05 0.112488)
(8.1009e-06 -2.87282e-05 0.112502)
(-0.00882981 0.00185514 0.0309433)
(-0.000333495 -6.33596e-05 0.0875613)
(0.000121431 6.16825e-05 0.113532)
(-5.87126e-05 -1.42436e-05 0.112681)
(7.71316e-05 -5.14155e-05 0.111824)
(2.8129e-05 -2.80493e-05 0.111935)
(5.85909e-05 -5.93924e-05 0.1121)
(3.3235e-05 -4.42812e-05 0.112211)
(4.96293e-05 -5.96713e-05 0.112309)
(2.88889e-05 -6.05365e-05 0.11238)
(3.2775e-05 -6.71689e-05 0.112427)
(1.23495e-05 -7.05079e-05 0.112447)
(9.8646e-06 -7.26578e-05 0.112457)
(-0.00451844 -0.000457739 0.0193074)
(-0.00038137 0.000400005 0.0736809)
(0.000377023 -0.000191311 0.112334)
(-1.17006e-05 -3.57355e-05 0.113781)
(2.29203e-05 -0.000105285 0.11179)
(1.92731e-05 -2.05508e-05 0.111677)
(2.70739e-05 -2.9429e-05 0.111936)
(2.75545e-05 -3.07568e-05 0.112121)
(1.84489e-05 -3.27681e-05 0.112258)
(1.00901e-05 -2.1838e-05 0.112344)
(1.23155e-05 -2.34295e-05 0.112386)
(-3.72843e-07 -1.69891e-05 0.112389)
(6.10437e-06 -1.65621e-05 0.112388)
(-0.00603891 0.000617212 0.0314081)
(-0.000341764 -0.000260673 0.0886974)
(9.74453e-05 0.000255313 0.113541)
(8.96041e-05 -9.04595e-05 0.112649)
(0.00010404 -2.35444e-05 0.111792)
(5.08857e-05 -7.77858e-05 0.111824)
(3.08144e-05 -4.20614e-05 0.112007)
(5.8978e-05 -5.40624e-05 0.112209)
(3.83488e-05 -7.38503e-05 0.112336)
(3.75015e-05 -7.64429e-05 0.112372)
(1.89342e-05 -9.11195e-05 0.112346)
(1.03475e-05 -9.25723e-05 0.112317)
(-0.00423234 -0.00184981 0.0149549)
(-0.000450545 0.00057711 0.0705261)
(0.000560043 -0.000561639 0.11247)
(-0.000256156 -9.76298e-05 0.113537)
(3.47359e-05 1.11313e-05 0.113779)
(1.28801e-05 5.81015e-05 0.112676)
(5.76946e-05 -3.75759e-05 0.112222)
(-1.03336e-05 -2.85081e-05 0.112191)
(-1.14316e-05 7.23297e-06 0.112287)
(-4.70902e-06 3.7956e-06 0.112318)
(-1.62897e-05 1.9292e-05 0.112242)
(5.20673e-06 2.14527e-05 0.112163)
(0.00238965 -0.0116455 0.0165395)
(-0.000578594 0.000451863 0.0704725)
(0.000259775 0.000341387 0.0886518)
(0.000189491 -0.000378783 0.11232)
(-6.22454e-05 -0.000122577 0.113522)
(-5.3703e-05 -5.74014e-06 0.114254)
(0.000109762 1.9815e-05 0.113131)
(7.5604e-05 -0.000105694 0.112608)
(4.91494e-05 -8.56965e-05 0.112309)
(3.40563e-05 -0.000136511 0.112101)
(1.17385e-05 -0.000132348 0.111953)
(0.00418246 -0.00862756 0.0188885)
(-0.00141657 -0.000619615 0.0271683)
(-0.000400612 0.000381117 0.0736705)
(6.2495e-05 0.000333008 0.0875495)
(0.000119844 -0.000316946 0.112088)
(-0.00018012 -9.78115e-05 0.114004)
(-0.000118833 9.47747e-05 0.114745)
(-2.88667e-05 6.43662e-05 0.113482)
(-5.9505e-05 9.79354e-05 0.112543)
(1.05182e-05 0.00010281 0.112296)
(-0.00215494 0.0014246 0.0296627)
(-0.00447402 0.000442161 0.0268862)
(-0.000385303 0.000326911 0.0719912)
(0.000232162 0.000262637 0.0885396)
(0.000188541 -0.000399179 0.113392)
(4.23249e-05 -0.000135183 0.116098)
(6.49797e-05 -0.00024658 0.11326)
(1.41122e-05 -0.000218997 0.112797)
(-0.00252405 0.000427888 0.0166334)
(-0.00269855 0.00158355 0.0315025)
(-0.00434572 -0.000171043 0.0270047)
(-0.000347293 0.000466856 0.0751647)
(0.00011603 0.000146475 0.0936863)
(-9.318e-05 0.000244883 0.0888285)
(3.24824e-05 0.000234992 0.0881675)
(-0.002299 -0.00657882 0.0221361)
(0.00299162 -0.00667996 0.0251295)
(-0.00108381 0.00153582 0.0321257)
(0.000151816 0.00149249 0.0293933)
(-0.00498185 -4.19379e-07 0.0217476)
(-0.000231222 -3.35713e-05 0.0881726)
(0.000220449 -1.39582e-05 0.112808)
(-9.999e-05 -1.25444e-05 0.112302)
(0.000133727 -1.28613e-05 0.111963)
(-2.14022e-05 -6.96682e-06 0.112164)
(9.31965e-05 -1.17053e-05 0.112321)
(1.4787e-05 -7.86181e-06 0.112386)
(7.32122e-05 -1.14604e-05 0.112453)
(2.68206e-05 -9.95236e-06 0.112493)
(5.64044e-05 -1.24063e-05 0.112542)
(2.53674e-05 -1.23939e-05 0.112583)
(3.89993e-05 -1.39477e-05 0.112629)
(1.26961e-05 -1.49505e-05 0.11267)
(1.51326e-05 -1.65884e-05 0.112703)
(-0.00468416 -0.000706671 0.0197697)
(-0.000240893 9.35456e-05 0.0888431)
(0.000247342 -6.8315e-05 0.113285)
(-9.60272e-05 5.9905e-05 0.112558)
(0.000138989 -3.70849e-05 0.112116)
(-1.88779e-05 1.67195e-05 0.112247)
(9.23346e-05 -2.11164e-05 0.112353)
(1.53429e-05 6.94157e-07 0.112389)
(7.10159e-05 -1.3627e-05 0.112444)
(2.60879e-05 -5.09908e-06 0.112481)
(5.39845e-05 -1.0852e-05 0.11253)
(2.34678e-05 -7.81337e-06 0.11257)
(3.63519e-05 -1.11854e-05 0.112613)
(1.03453e-05 -1.10064e-05 0.112648)
(1.35563e-05 -1.36478e-05 0.112672)
(-0.00127577 -0.00150425 0.0104702)
(-0.000145018 -0.000116587 0.0936978)
(0.000137141 -4.09035e-05 0.116117)
(-6.07711e-05 2.56593e-05 0.113497)
(8.72834e-05 -5.02942e-05 0.112324)
(-2.69384e-06 3.56769e-06 0.112326)
(7.70021e-05 -3.97588e-05 0.11238)
(2.25913e-05 -1.30561e-05 0.112388)
(6.72795e-05 -3.45986e-05 0.112426)
(2.95614e-05 -2.36056e-05 0.112459)
(5.36308e-05 -3.44045e-05 0.112507)
(2.49743e-05 -3.12918e-05 0.112546)
(3.5772e-05 -3.70168e-05 0.112587)
(1.02381e-05 -3.76263e-05 0.112613)
(1.28034e-05 -4.02512e-05 0.11263)
(-0.000461122 0.000345619 0.0751681)
(0.000397256 -0.000192837 0.113405)
(-9.49171e-05 0.000117267 0.114755)
(0.000110325 -8.04306e-05 0.112623)
(-7.82136e-06 1.06337e-05 0.112295)
(7.54534e-05 -4.08277e-05 0.112345)
(2.06086e-05 -1.05963e-05 0.112347)
(6.01809e-05 -3.01717e-05 0.112382)
(2.61139e-05 -1.77885e-05 0.112416)
(4.6199e-05 -2.68162e-05 0.112467)
(2.08211e-05 -2.14961e-05 0.112508)
(3.00192e-05 -2.5919e-05 0.112546)
(7.14823e-06 -2.42213e-05 0.11257)
(1.1e-05 -2.62404e-05 0.112584)
(-0.00589982 0.00143637 0.0290904)
(-0.00026027 -0.000242977 0.0885459)
(0.000100736 0.000181048 0.114012)
(-1.76409e-05 -0.000116021 0.113143)
(3.18248e-05 9.66846e-06 0.112202)
(5.48065e-05 -6.25638e-05 0.112217)
(3.30479e-05 -1.93633e-05 0.112263)
(5.97769e-05 -5.20722e-05 0.112311)
(3.26912e-05 -3.57515e-05 0.112359)
(4.98538e-05 -5.06671e-05 0.112419)
(2.58643e-05 -4.72541e-05 0.112465)
(3.30889e-05 -5.48925e-05 0.112506)
(9.98916e-06 -5.49106e-05 0.112529)
(1.10932e-05 -5.76222e-05 0.112543)
(-0.0032488 0.000470514 0.0180836)
(-0.000324979 0.000382783 0.0719943)
(0.0003228 -0.000122249 0.112094)
(8.79657e-06 5.23968e-05 0.114263)
(3.94322e-05 -6.11075e-05 0.112231)
(4.32241e-05 -3.27804e-05 0.112013)
(3.05459e-05 -2.85033e-05 0.112123)
(4.35457e-05 -3.45296e-05 0.112213)
(2.73373e-05 -2.78803e-05 0.112283)
(3.46997e-05 -3.36399e-05 0.112358)
(1.6669e-05 -2.71425e-05 0.112414)
(2.24746e-05 -3.05224e-05 0.112458)
(4.48217e-06 -2.69342e-05 0.112481)
(8.37743e-06 -2.80931e-05 0.112494)
(-0.00883252 0.00185507 0.0309523)
(-0.000328182 -6.5788e-05 0.0875617)
(0.000123714 5.94238e-05 0.113532)
(-5.56595e-05 -1.40893e-05 0.112682)
(8.07677e-05 -5.35327e-05 0.111829)
(3.02485e-05 -2.86419e-05 0.111937)
(6.04456e-05 -6.12708e-05 0.112104)
(3.35925e-05 -4.46285e-05 0.112212)
(5.07726e-05 -6.12748e-05 0.112309)
(2.91988e-05 -6.10607e-05 0.112379)
(3.34587e-05 -6.81263e-05 0.112425)
(1.24511e-05 -7.20035e-05 0.112443)
(1.02848e-05 -7.41729e-05 0.112453)
(-0.00451927 -0.000458087 0.0193112)
(-0.000377362 0.000397039 0.0736782)
(0.000384708 -0.000193948 0.112333)
(-9.24507e-06 -3.95951e-05 0.11378)
(2.41427e-05 -0.000105603 0.111793)
(2.02326e-05 -2.1763e-05 0.111678)
(2.75789e-05 -3.19202e-05 0.111939)