/*--------------------------------*- C++ -*----------------------------------*\
| =========                 |                                                 |
| \\      /  F ield         | OpenFOAM: The Open Source CFD Toolbox           |
|  \\    /   O peration     | Version:  2.1.1                                 |
|   \\  /    A nd           | Web:      www.OpenFOAM.org                      |
|    \\/     M anipulation  |                                                 |
\*---------------------------------------------------------------------------*/
FoamFile
{
    version     2.0;
    format      ascii;
    class       volScalarField;
    location    "0.0045";
    object      p;
}
// * * * * * * * * * * * * * * * * * * * * * * * * * * * * * * * * * * * * * //

dimensions      [0 2 -2 0 0 0 0];

internalField   nonuniform List<scalar> 
10339
(
0.0294122
0.0294124
0.0196447
0.0196546
0.0196645
0.0196924
0.0197063
0.0197504
0.0197594
0.0198201
0.0198087
0.0198927
0.0198354
0.0199672
0.0198218
0.0200525
0.0307909
0.0196546
0.0196643
0.0196738
0.0197009
0.0197145
0.0197571
0.0197657
0.0198255
0.0198151
0.0198975
0.0198388
0.0199688
0.0198259
0.0200828
0.0311241
0.0196645
0.0196738
0.0196832
0.0197095
0.0197232
0.0197641
0.0197738
0.0198288
0.0198234
0.0198921
0.0198547
0.0199448
0.0198634
0.0199678
0.029251
0.0196923
0.0197009
0.0197095
0.0197335
0.0197466
0.0197837
0.019794
0.019843
0.0198385
0.019904
0.0198622
0.019976
0.0198217
0.0201558
0.0320058
0.0197063
0.0197144
0.0197231
0.0197465
0.0197594
0.0197953
0.0198049
0.0198493
0.0198473
0.0198952
0.0198854
0.0199107
0.0199375
0.0361465
0.0262617
0.0197502
0.019757
0.0197638
0.0197833
0.019795
0.0198234
0.0198364
0.0198671
0.0198735
0.0199034
0.0199211
0.0198999
0.0200732
0.0293975
0.0197586
0.0197659
0.0197734
0.0197933
0.019804
0.0198355
0.0198397
0.019883
0.0198709
0.0199343
0.0198611
0.0199861
0.0376648
0.0253287
0.0198197
0.0198252
0.0198282
0.0198423
0.0198486
0.019866
0.0198782
0.0198959
0.0199039
0.0199186
0.0198931
0.0200862
0.030492
0.0198083
0.0198146
0.0198227
0.0198381
0.0198484
0.019877
0.0198671
0.0199022
0.0199127
0.0199534
0.0199355
0.0378701
0.0269309
0.0198924
0.019897
0.0198913
0.0199031
0.0198948
0.0199034
0.0199334
0.0199177
0.0199527
0.0197815
0.0201682
0.0334466
0.0198352
0.0198383
0.0198538
0.0198616
0.0198881
0.0199206
0.0198598
0.0198927
0.0199344
0.0201767
0.0414646
0.019967
0.0199683
0.0199438
0.019974
0.0199034
0.0198972
0.0199845
0.0200843
0.0378692
0.0334388
0.0198215
0.0198254
0.0198625
0.0198204
0.0199345
0.0200711
0.0376629
0.0304903
0.0269282
0.0200523
0.0200823
0.0199668
0.0201539
0.0361446
0.0293956
0.025327
0.0307916
0.0311241
0.0292505
0.0320047
0.0262601
0.0185296
0.0185416
0.0185549
0.0185883
0.0186082
0.0186596
0.018675
0.0187438
0.0187392
0.0188297
0.0187774
0.0189145
0.0187694
0.0190035
0.0297438
0.0185416
0.0185532
0.0185661
0.0185985
0.0186178
0.0186678
0.0186833
0.0187509
0.0187479
0.018836
0.0187824
0.0189239
0.018767
0.0190326
0.030077
0.0185549
0.018566
0.0185787
0.0186099
0.0186291
0.018677
0.0186933
0.0187561
0.0187584
0.0188316
0.0187987
0.0188921
0.0188121
0.0189192
0.0282037
0.0185882
0.0185984
0.0186099
0.0186385
0.0186565
0.0186998
0.0187161
0.0187726
0.018775
0.0188454
0.0188059
0.0189248
0.0187687
0.0191089
0.0309589
0.018608
0.0186177
0.018629
0.0186563
0.0186736
0.0187151
0.0187299
0.0187807
0.0187842
0.0188388
0.0188334
0.0188569
0.0188881
0.0351002
0.0252145
0.0186594
0.0186676
0.0186768
0.0186996
0.0187149
0.0187478
0.0187649
0.0188
0.0188081
0.0188454
0.0188678
0.018849
0.0190249
0.0283501
0.0186746
0.0186831
0.0186929
0.0187156
0.0187293
0.0187644
0.0187723
0.0188188
0.0188092
0.0188794
0.0188084
0.0189365
0.0366181
0.0242813
0.0187434
0.0187505
0.0187556
0.018772
0.0187801
0.0187994
0.0188178
0.0188369
0.0188488
0.0188645
0.0188429
0.0190394
0.0294449
0.0187388
0.0187474
0.0187578
0.0187744
0.0187838
0.0188079
0.0188082
0.0188482
0.0188591
0.0189061
0.0188884
0.0368253
0.0258841
0.0188294
0.0188356
0.018831
0.0188447
0.0188381
0.0188447
0.0188785
0.0188641
0.0189041
0.0187316
0.0191377
0.0324048
0.0187771
0.0187819
0.018798
0.0188051
0.0188325
0.0188669
0.0188073
0.018842
0.0188845
0.0191137
0.0404234
0.0189143
0.0189235
0.0188914
0.0189235
0.0188548
0.0188475
0.0189352
0.0190379
0.0368269
0.0324014
0.0187692
0.0187665
0.0188113
0.0187675
0.0188864
0.0190234
0.0366166
0.0294436
0.0258823
0.0190033
0.0190321
0.0189184
0.0191077
0.0350986
0.0283485
0.0242798
0.0297446
0.030077
0.0282033
0.030958
0.0252131
0.0174055
0.0174197
0.0174372
0.0174771
0.0175036
0.0175638
0.0175866
0.017664
0.0176637
0.0177661
0.0177201
0.017864
0.0177208
0.0179596
0.0287003
0.0174197
0.0174336
0.0174504
0.0174891
0.017515
0.0175736
0.0175964
0.0176721
0.0176731
0.0177732
0.0177252
0.0178736
0.0177196
0.0179884
0.0290339
0.0174371
0.0174504
0.0174668
0.0175039
0.0175294
0.0175855
0.0176089
0.0176799
0.0176867
0.01777
0.0177435
0.0178413
0.0177657
0.0178747
0.0271606
0.0174769
0.017489
0.0175038
0.0175378
0.0175615
0.0176125
0.0176355
0.0177002
0.0177075
0.0177873
0.0177512
0.0178779
0.0177201
0.0180649
0.0299168
0.0175034
0.0175148
0.0175293
0.0175614
0.017584
0.0176323
0.0176536
0.0177135
0.0177268
0.0177847
0.0177824
0.0178084
0.0178432
0.0340588
0.0241723
0.0175636
0.0175734
0.0175852
0.0176123
0.0176321
0.017671
0.0176939
0.0177375
0.0177564
0.0177946
0.0178176
0.0178027
0.0179806
0.0273074
0.0175863
0.0175961
0.0176085
0.017635
0.017653
0.0176935
0.0177061
0.0177591
0.0177549
0.017829
0.0177598
0.0178909
0.0355761
0.0232388
0.0176637
0.0176718
0.0176794
0.0176996
0.0177126
0.0177367
0.0177584
0.0177807
0.0177971
0.0178145
0.0177955
0.0179964
0.0284022
0.0176634
0.0176728
0.0176861
0.0177066
0.0177256
0.0177553
0.017754
0.0177967
0.0178085
0.0178596
0.0178397
0.035784
0.0248416
0.0177659
0.0177729
0.0177695
0.0177865
0.0177833
0.0177924
0.017829
0.0178144
0.0178607
0.0176848
0.0180669
0.0313597
0.01772
0.0177249
0.0177429
0.0177503
0.0177811
0.0178165
0.017759
0.0177953
0.0178427
0.0180941
0.0393808
0.0178639
0.0178733
0.0178408
0.017877
0.0178072
0.0178016
0.0178899
0.0179957
0.0357885
0.0313668
0.0177207
0.0177193
0.0177651
0.0177193
0.0178421
0.0179795
0.0355752
0.0284014
0.0248413
0.0179595
0.0179882
0.0178742
0.0180642
0.0340578
0.0273063
0.0232376
0.0287012
0.029034
0.0271603
0.0299163
0.0241713
0.0162703
0.0162876
0.0163101
0.0163576
0.0163919
0.0164625
0.0164943
0.0165838
0.0165935
0.0167053
0.0166647
0.0168169
0.0166763
0.0169201
0.0276626
0.0162876
0.0163043
0.0163259
0.016372
0.0164054
0.0164741
0.0165056
0.0165929
0.0166026
0.0167129
0.01667
0.0168275
0.0166751
0.0169492
0.0279963
0.01631
0.0163258
0.0163467
0.0163906
0.0164234
0.0164891
0.0165209
0.0166024
0.0166173
0.0167103
0.0166903
0.0167945
0.0167234
0.0168349
0.0261227
0.0163575
0.0163719
0.0163905
0.016431
0.0164612
0.0165212
0.0165519
0.0166266
0.0166405
0.0167304
0.016698
0.0168346
0.0166753
0.0170262
0.0288798
0.0163917
0.0164052
0.0164233
0.0164611
0.0164899
0.0165464
0.016575
0.0166437
0.0166612
0.0167294
0.0167324
0.0167638
0.0168022
0.0330226
0.0231351
0.0164623
0.0164739
0.0164889
0.016521
0.0165461
0.0165924
0.0166219
0.0166739
0.0166991
0.016744
0.0167717
0.0167613
0.016941
0.0262698
0.0164941
0.0165053
0.0165206
0.0165514
0.0165744
0.0166213
0.0166399
0.0167006
0.0167025
0.016783
0.0167157
0.0168496
0.0345392
0.0222012
0.0165837
0.0165927
0.0166021
0.0166259
0.0166426
0.0166723
0.016699
0.0167269
0.0167493
0.01677
0.0167536
0.0169577
0.0273644
0.0165935
0.0166024
0.0166169
0.0166396
0.0166598
0.0166967
0.0166996
0.0167466
0.0167615
0.0168203
0.016802
0.0347491
0.0238043
0.0167053
0.0167128
0.0167099
0.0167296
0.016728
0.016742
0.0167809
0.0167679
0.0168181
0.0166436
0.0170562
0.0303267
0.0166648
0.0166699
0.01669
0.0166973
0.0167313
0.0167707
0.0167146
0.0167524
0.0167986
0.0170304
0.038349
0.0168171
0.0168275
0.0167942
0.0168341
0.0167631
0.0167605
0.016849
0.0169572
0.0347533
0.0303291
0.0166765
0.0166751
0.0167231
0.0166748
0.0168015
0.0169404
0.0345387
0.0273641
0.0238047
0.0169203
0.0169491
0.0168347
0.0170258
0.033022
0.0262691
0.0222005
0.0276636
0.0279965
0.0261227
0.0288796
0.0231345
0.015123
0.0151442
0.0151729
0.015229
0.0152726
0.0153553
0.0153972
0.0155009
0.0155199
0.015645
0.0156108
0.0157739
0.0156366
0.0158857
0.0266312
0.0151442
0.0151641
0.0151916
0.0152459
0.0152884
0.0153689
0.0154101
0.0155114
0.0155299
0.0156536
0.0156165
0.0157854
0.0156347
0.0159154
0.0269646
0.0151728
0.0151915
0.0152175
0.0152694
0.0153105
0.0153873
0.0154288
0.0155228
0.0155471
0.0156517
0.0156395
0.0157518
0.0156858
0.0158004
0.0250908
0.0152289
0.0152458
0.0152693
0.0153168
0.0153549
0.0154254
0.0154648
0.0155515
0.0155732
0.0156757
0.0156478
0.0157961
0.015635
0.0159933
0.0278492
0.0152724
0.0152882
0.0153103
0.0153548
0.0153906
0.0154568
0.0154938
0.0155734
0.0155987
0.0156767
0.0156879
0.0157239
0.0157663
0.0319925
0.0221041
0.0153552
0.0153687
0.0153871
0.0154251
0.0154565
0.0155114
0.0155484
0.0156104
0.0156435
0.0156958
0.0157272
0.0157239
0.0159058
0.025238
0.0153972
0.01541
0.0154285
0.0154643
0.015493
0.0155475
0.015573
0.0156438
0.015657
0.0157399
0.0156747
0.0158125
0.0335078
0.0211696
0.0155009
0.0155114
0.0155225
0.0155509
0.015572
0.0156076
0.0156392
0.0156753
0.0157079
0.0157291
0.0157151
0.0159236
0.0263323
0.0155201
0.0155299
0.0155469
0.0155725
0.015597
0.0156383
0.0156406
0.0156956
0.0157177
0.0157822
0.0157621
0.0337195
0.0227728
0.0156455
0.0156538
0.0156516
0.0156752
0.0156754
0.0156931
0.0157352
0.0157258
0.0157827
0.0156061
0.015996
0.0292941
0.0156114
0.0156168
0.0156395
0.0156474
0.0156872
0.0157262
0.0156738
0.0157147
0.0157651
0.0160205
0.0373173
0.0157745
0.0157857
0.0157519
0.0157959
0.0157235
0.0157235
0.0158124
0.0159239
0.033725
0.0293015
0.0156372
0.015635
0.0156859
0.0156348
0.0157661
0.0159056
0.0335078
0.0263326
0.0227738
0.0158862
0.0159156
0.0158004
0.0159932
0.0319922
0.0252376
0.0211694
0.0266325
0.0269651
0.0250911
0.0278492
0.0221039
0.013964
0.01399
0.0140258
0.0140914
0.0141453
0.0142406
0.014295
0.0144136
0.014444
0.0145847
0.0145582
0.0147345
0.0146018
0.0148574
0.0256058
0.0139899
0.0140138
0.0140478
0.0141111
0.0141636
0.0142564
0.0143098
0.0144261
0.0144549
0.0145952
0.0145645
0.0147475
0.0145989
0.0148878
0.0259397
0.0140257
0.0140477
0.0140795
0.0141397
0.0141903
0.0142789
0.0143321
0.01444
0.0144757
0.0145942
0.0145911
0.0147132
0.014654
0.0147719
0.0240656
0.0140913
0.014111
0.0141397
0.0141947
0.0142418
0.0143234
0.0143738
0.0144743
0.0145054
0.0146231
0.0145994
0.0147618
0.0146002
0.0149674
0.0268257
0.0141452
0.0141634
0.0141901
0.0142417
0.0142855
0.0143623
0.0144093
0.0145007
0.0145363
0.0146255
0.0146457
0.0146883
0.0147364
0.0309698
0.0210804
0.0142405
0.0142563
0.0142788
0.0143232
0.0143622
0.0144263
0.0144726
0.014545
0.0145859
0.0146489
0.0146873
0.0146917
0.0148759
0.024213
0.014295
0.0143097
0.0143319
0.0143734
0.0144088
0.0144723
0.0145048
0.0145836
0.014597
0.014696
0.0146372
0.01478
0.0324835
0.020145
0.0144138
0.0144262
0.0144399
0.0144738
0.0144999
0.0145443
0.0145841
0.0146257
0.0146518
0.014689
0.0146807
0.0148957
0.0253067
0.0144447
0.0144553
0.0144757
0.0145049
0.0145354
0.0145848
0.0145985
0.0146654
0.0146776
0.0147509
0.0147327
0.0326971
0.0217479
0.0145859
0.0145959
0.0145944
0.014623
0.014625
0.0146485
0.014697
0.0146926
0.0147511
0.0145743
0.0149956
0.028273
0.0145594
0.0145652
0.0145914
0.0145995
0.0146456
0.0146874
0.0146385
0.0146818
0.0147313
0.0149695
0.0362974
0.0147357
0.0147483
0.0147135
0.0147619
0.0146884
0.014692
0.0147808
0.0148969
0.0327031
0.0282765
0.0146028
0.0145996
0.0146543
0.0146004
0.0147364
0.0148761
0.0324839
0.0253076
0.0217498
0.0148581
0.0148883
0.0147721
0.0149675
0.0309697
0.024213
0.0201452
0.0256071
0.0259404
0.024066
0.0268259
0.0210804
0.0127966
0.0128265
0.0128701
0.0129453
0.0130104
0.0131186
0.0131868
0.013321
0.013366
0.0135221
0.0135036
0.0136979
0.0135724
0.013836
0.0245892
0.0128265
0.0128542
0.0128954
0.0129679
0.0130312
0.0131369
0.0132037
0.0133356
0.0133784
0.0135354
0.013511
0.0137135
0.0135683
0.0138673
0.024923
0.01287
0.0128951
0.0129331
0.013002
0.0130627
0.0131638
0.0132299
0.0133527
0.0134026
0.013536
0.0135458
0.0136788
0.013628
0.0137496
0.0230485
0.0129452
0.0129678
0.0130019
0.013065
0.0131217
0.0132152
0.013278
0.013393
0.0134369
0.0135721
0.0135585
0.0137348
0.013569
0.0139493
0.0258106
0.0130103
0.013031
0.0130627
0.0131217
0.0131743
0.0132622
0.0133205
0.0134253
0.0134735
0.0135767
0.0136096
0.0136587
0.0137125
0.0299549
0.0200649
0.0131186
0.0131369
0.0131637
0.0132151
0.0132622
0.0133366
0.0133941
0.0134781
0.013531
0.0136052
0.0136528
0.0136647
0.0138526
0.0231958
0.0131869
0.0132037
0.0132298
0.0132777
0.0133202
0.0133939
0.0134351
0.0135261
0.013547
0.0136569
0.0136007
0.0137523
0.0314669
0.0191282
0.0133214
0.0133359
0.0133527
0.0133927
0.013425
0.0134781
0.0135268
0.0135772
0.0136169
0.0136578
0.0136538
0.0138742
0.0242883
0.0133671
0.013379
0.0134027
0.0134366
0.0134732
0.013531
0.0135486
0.0136201
0.0136415
0.0137225
0.0137004
0.0316811
0.0207302
0.0135245
0.0135365
0.0135363
0.0135721
0.0135766
0.0136057
0.0136591
0.0136624
0.0137277
0.0135456
0.0139423
0.027253
0.0135072
0.0135123
0.0135462
0.0135584
0.0136096
0.0136535
0.0136031
0.0136584
0.0137096
0.01398
0.035279
0.0137002
0.0137147
0.0136794
0.013735
0.0136589
0.0136655
0.013754
0.0138774
0.0316902
0.0272648
0.013574
0.0135692
0.0136285
0.0135691
0.0137126
0.0138529
0.0314678
0.0242898
0.0207333
0.0138369
0.0138679
0.0137499
0.0139495
0.029955
0.0231958
0.0191285
0.0245906
0.0249238
0.023049
0.0258109
0.0200649
0.011629
0.0116591
0.0117079
0.0117922
0.0118683
0.0119895
0.0120723
0.0122228
0.0122851
0.0124597
0.0124607
0.0126676
0.0125503
0.0128216
0.0235826
0.0116592
0.0116887
0.0117359
0.0118176
0.0118916
0.0120104
0.0120915
0.0122398
0.0122993
0.0124745
0.0124671
0.012685
0.0125444
0.0128542
0.0239158
0.0117078
0.0117355
0.0117795
0.0118569
0.0119281
0.0120417
0.0121219
0.0122605
0.0123266
0.0124756
0.0124993
0.0126476
0.0126088
0.0127344
0.0220405
0.0117921
0.0118175
0.0118567
0.0119281
0.0119946
0.0121005
0.0121768
0.0123075
0.0123669
0.0125164
0.012507
0.0127082
0.0125462
0.0129382
0.0248055
0.0118682
0.0118915
0.011928
0.0119946
0.0120563
0.0121562
0.0122269
0.0123467
0.0124085
0.0125282
0.0125781
0.0126343
0.0126948
0.0289492
0.0190584
0.0119896
0.0120105
0.0120416
0.0121004
0.0121561
0.012242
0.0123113
0.0124094
0.0124753
0.0125649
0.0126238
0.0126467
0.0128374
0.022187
0.0120725
0.0120916
0.0121218
0.0121766
0.0122267
0.0123112
0.0123625
0.0124672
0.0124988
0.0126221
0.0125768
0.0127326
0.0304593
0.0181202
0.0122233
0.0122402
0.0122606
0.0123072
0.0123465
0.0124093
0.0124677
0.0125292
0.0125785
0.0126276
0.012624
0.0128581
0.0232782
0.0122863
0.0123
0.0123267
0.0123666
0.0124081
0.0124752
0.0125002
0.0125813
0.0126076
0.0126837
0.0126762
0.0306742
0.0197209
0.0124616
0.0124756
0.0124759
0.0125163
0.0125279
0.0125652
0.0126238
0.0126339
0.0127249
0.0125216
0.0129785
0.0262501
0.0124631
0.0124683
0.0124998
0.0125071
0.0125779
0.0126243
0.0125808
0.0126368
0.0126833
0.0129282
0.0342765
0.0126696
0.0126862
0.0126482
0.0127084
0.0126343
0.0126473
0.0127344
0.012863
0.0306842
0.0262522
0.0125518
0.0125454
0.0126092
0.0125463
0.0126947
0.0128374
0.0304601
0.0232799
0.0197244
0.0128226
0.0128549
0.0127348
0.0129383
0.0289492
0.0221869
0.0181203
0.0235841
0.0239167
0.0220411
0.0248058
0.0190583
0.0104677
0.010497
0.0105451
0.0106347
0.0107206
0.0108541
0.0109514
0.0111187
0.0111999
0.0113942
0.0114159
0.0116397
0.0115359
0.0118146
0.0225864
0.0104971
0.0105266
0.0105741
0.0106625
0.0107463
0.0108774
0.010973
0.0111381
0.0112163
0.0114114
0.0114233
0.0116599
0.0115285
0.0118491
0.0229197
0.010545
0.0105737
0.0106209
0.0107063
0.010787
0.0109129
0.0110073
0.0111625
0.0112465
0.0114151
0.0114588
0.0116212
0.0115966
0.0117266
0.0210425
0.0106346
0.0106624
0.0107059
0.0107848
0.0108609
0.0109791
0.0110694
0.0112166
0.0112935
0.0114627
0.0114759
0.0116892
0.0115313
0.0119348
0.0238114
0.0107205
0.0107462
0.0107869
0.0108608
0.0109315
0.0110435
0.0111273
0.0112634
0.0113409
0.0114772
0.0115355
0.0116119
0.0116826
0.0279542
0.0180624
0.0108542
0.0108774
0.0109129
0.010979
0.0110435
0.0111413
0.0112234
0.0113373
0.0114184
0.0115248
0.0115976
0.0116302
0.0118288
0.0211883
0.0109517
0.0109731
0.0110072
0.0110692
0.011127
0.0112231
0.0112859
0.011405
0.0114513
0.0115877
0.0115565
0.011717
0.0294611
0.0171222
0.0111192
0.0111385
0.0111625
0.0112163
0.011263
0.011337
0.011405
0.0114808
0.0115424
0.0116048
0.011612
0.0118514
0.0222778
0.0112008
0.0112168
0.0112465
0.011293
0.0113402
0.0114177
0.0114515
0.0115435
0.0115747
0.0116833
0.0116519
0.0296769
0.0187213
0.0113956
0.0114122
0.0114153
0.0114623
0.0114764
0.0115238
0.0115877
0.0116084
0.0116935
0.0115005
0.0119041
0.0252428
0.0114176
0.0114243
0.0114591
0.0114756
0.0115347
0.0115967
0.0115564
0.0116147
0.0116663
0.0119877
0.0332712
0.0116413
0.0116608
0.0116216
0.0116891
0.0116114
0.0116298
0.0117162
0.0118524
0.029687
0.0252608
0.0115372
0.0115293
0.0115969
0.0115311
0.011682
0.0118279
0.0294607
0.022278
0.0187235
0.0118156
0.0118498
0.0117269
0.0119347
0.0279538
0.0211877
0.0171215
0.022588
0.0229206
0.021043
0.0238116
0.0180621
0.00932057
0.00934778
0.00939309
0.00947984
0.00957014
0.00971368
0.00982424
0.0100078
0.0101087
0.0103239
0.0103695
0.0106116
0.0105298
0.0108146
0.021603
0.00934779
0.00937564
0.0094209
0.00950776
0.00959781
0.00973911
0.00984808
0.0100296
0.0101275
0.0103439
0.0103788
0.0106354
0.0105207
0.0108517
0.0219364
0.009393
0.00942073
0.00946652
0.00955334
0.0096417
0.0097782
0.00988576
0.0100577
0.0101605
0.0103503
0.010416
0.0105961
0.0105915
0.0107257
0.0200558
0.00947974
0.00950759
0.0095529
0.00963724
0.00972174
0.00985123
0.00995509
0.0101191
0.010215
0.0104052
0.0104398
0.0106731
0.0105234
0.01094
0.0228302
0.00957012
0.00959771
0.00964154
0.0097215
0.00980015
0.00992359
0.0100203
0.0101735
0.0102679
0.0104249
0.0104979
0.0105962
0.0106757
0.0269708
0.0170781
0.0097138
0.0097392
0.00977816
0.00985115
0.00992359
0.0100335
0.0101287
0.0102598
0.0103584
0.0104832
0.0105756
0.0106209
0.0108288
0.0202001
0.00982444
0.00984816
0.00988562
0.00995469
0.01002
0.0101282
0.0102027
0.0103383
0.0103992
0.0105538
0.0105372
0.0107057
0.0284729
0.0161348
0.0100083
0.0100299
0.0100576
0.0101187
0.0101729
0.0102589
0.0103378
0.0104299
0.0105078
0.0105868
0.0106035
0.0108505
0.0212871
0.0101095
0.0101278
0.0101604
0.0102143
0.0102668
0.0103566
0.0103975
0.0105063
0.0105426
0.0106786
0.0106529
0.0286949
0.0177325
0.010325
0.0103445
0.0103504
0.0104045
0.0104235
0.0104807
0.0105506
0.0105835
0.0106727
0.0104953
0.0110145
0.0242721
0.0103707
0.0103795
0.010416
0.010439
0.0104963
0.0105723
0.0105332
0.0106021
0.010634
0.0108867
0.0322931
0.0106129
0.0106361
0.0105962
0.0106726
0.0105948
0.010618
0.0107019
0.0108472
0.0286954
0.0242581
0.0105309
0.0105214
0.0105915
0.010523
0.0106744
0.0108264
0.0284705
0.0212849
0.0177314
0.0108156
0.0108524
0.0107259
0.0109397
0.0269699
0.0201986
0.0161328
0.0216047
0.0219373
0.0200563
0.0228302
0.0170774
0.00819573
0.00822019
0.00826047
0.00834098
0.00842513
0.00857144
0.00869173
0.00888951
0.00900953
0.00924672
0.00931865
0.00958315
0.00952871
0.0098215
0.0206334
0.00822021
0.00824557
0.00828587
0.0083673
0.00845222
0.0085985
0.00871763
0.00891373
0.00903073
0.00926918
0.00933043
0.00960984
0.00951981
0.00986197
0.0209672
0.0082604
0.00828577
0.00832753
0.00840974
0.0084961
0.00863977
0.00875765
0.0089449
0.00906607
0.00927855
0.00936828
0.00957101
0.00959037
0.00973089
0.0190813
0.00834094
0.00836723
0.00840966
0.00849236
0.00857989
0.00871821
0.0088335
0.00901351
0.00912889
0.00934114
0.00940185
0.00965758
0.00952295
0.00995417
0.0218639
0.00842509
0.00845209
0.00849584
0.00857929
0.00866343
0.00879675
0.00890477
0.0090749
0.00918628
0.00936734
0.00945678
0.00958339
0.0096718
0.0260008
0.0161072
0.00857155
0.00859857
0.00863975
0.00871806
0.00879678
0.00891789
0.00902535
0.00917409
0.00929181
0.00943794
0.00955577
0.00961371
0.00983643
0.0192232
0.00869187
0.00871764
0.00875742
0.00883293
0.00890426
0.0090246
0.00911007
0.00926387
0.00934007
0.00951856
0.00952132
0.0097003
0.0274955
0.0151594
0.0088899
0.00891389
0.00894473
0.00901292
0.00907409
0.00917288
0.00926318
0.00937345
0.00946693
0.0095699
0.0096178
0.00985702
0.0203065
0.00901006
0.00903093
0.00906577
0.00912794
0.00918472
0.00928909
0.00933698
0.00946489
0.00951006
0.00965868
0.00960504
0.027715
0.0167541
0.00924756
0.00926959
0.00927842
0.00934018
0.0093654
0.00943329
0.00950927
0.00955846
0.00966765
0.00949266
0.00988022
0.0232806
0.00931959
0.00933096
0.00936818
0.0094008
0.00945456
0.00954921
0.00950315
0.00957613
0.00964916
0.0100086
0.0312997
0.00958427
0.00961051
0.00957115
0.00965673
0.00958105
0.00960832
0.00969082
0.00984354
0.0277249
0.0232966
0.00952976
0.00952054
0.00959054
0.00952217
0.00966963
0.00983254
0.0274907
0.0203017
0.0167513
0.00982254
0.00986266
0.00973111
0.00995367
0.0259993
0.0192206
0.0151559
0.0206351
0.0209681
0.0190818
0.0218638
0.016106
0.00710326
0.0071243
0.007158
0.00722882
0.00730172
0.00743733
0.00755749
0.00776515
0.00790085
0.00816005
0.00825988
0.00855147
0.00853001
0.00883386
0.0196794
0.00712431
0.00714657
0.00718023
0.00725224
0.00732641
0.00746319
0.00758476
0.0077913
0.00792466
0.00818513
0.00827462
0.00858118
0.00852176
0.00887852
0.0200139
0.00715794
0.00718018
0.00721539
0.0072889
0.00736544
0.00750305
0.00762549
0.00782439
0.00796125
0.00819708
0.00831192
0.00854327
0.00858994
0.00874205
0.01812
0.0072288
0.00725222
0.00728884
0.00736482
0.00744485
0.00758354
0.00770617
0.00789924
0.00803246
0.00826745
0.00835644
0.0086375
0.00853012
0.00897427
0.0209144
0.00730166
0.00732629
0.0073652
0.00744447
0.00752591
0.00766536
0.00778084
0.0079662
0.00809316
0.00830025
0.00840989
0.00856982
0.00866696
0.0250462
0.0151516
0.0074374
0.00746322
0.00750296
0.00758334
0.00766539
0.00779495
0.00791238
0.00807798
0.00821423
0.00838334
0.00852812
0.00860579
0.00884897
0.018259
0.00755755
0.00758469
0.00762516
0.00770549
0.00778025
0.00791144
0.00800591
0.00817832
0.00826934
0.00847128
0.00848959
0.00869033
0.0265286
0.0141966
0.00776543
0.00779135
0.00782411
0.0078985
0.0079653
0.0080766
0.00817756
0.00830792
0.00841785
0.00854294
0.00859265
0.00885662
0.0193337
0.0079012
0.00792469
0.00796077
0.00803127
0.00809145
0.00821145
0.00826642
0.00841474
0.00846661
0.00865755
0.00862043
0.0267573
0.0157865
0.00816071
0.00818537
0.00819679
0.00826623
0.00829811
0.00837939
0.00846569
0.0085356
0.0086491
0.00849978
0.00904455
0.022336
0.00826064
0.00827502
0.00831176
0.00835516
0.00840703
0.00852271
0.00848167
0.00858293
0.0086024
0.00886918
0.0303462
0.00855252
0.00858192
0.00854374
0.00863678
0.00856677
0.00860045
0.00868379
0.00884964
0.0267582
0.022316
0.00853104
0.00852275
0.00859076
0.00852975
0.00866365
0.00884384
0.0265231
0.0193284
0.0157829
0.00883497
0.00887938
0.00874266
0.00897393
0.025044
0.0182552
0.0141921
0.0196811
0.0200148
0.0181206
0.0209143
0.0151499
0.00605047
0.00606752
0.006093
0.00615172
0.00620832
0.00632654
0.00642912
0.00663442
0.00677951
0.0070587
0.00718512
0.00750913
0.0075254
0.00784763
0.0187421
0.00606752
0.00608575
0.00611126
0.00617131
0.00622943
0.00634939
0.00645455
0.00666182
0.00680548
0.00708614
0.00720318
0.00754175
0.0075198
0.00789647
0.0190786
0.00609294
0.00611124
0.00613818
0.00619996
0.00626066
0.00638286
0.00649144
0.006695
0.00684151
0.00709955
0.00723838
0.00750465
0.00757979
0.00775542
0.0171723
0.0061517
0.00617132
0.00619994
0.0062648
0.00633072
0.00645657
0.00657285
0.00677401
0.00692022
0.0071772
0.00729471
0.00760405
0.00753292
0.00799352
0.0199844
0.00620824
0.00622933
0.00626046
0.00633044
0.00639967
0.00653226
0.00664734
0.00684351
0.00698215
0.00721505
0.00734614
0.00754697
0.00765647
0.0241112
0.0142135
0.00632657
0.00634937
0.00638273
0.00645631
0.00653233
0.00666407
0.00678677
0.0069663
0.00711852
0.0073121
0.00748245
0.00759083
0.00786046
0.0173083
0.00642911
0.0064544
0.00649104
0.00657208
0.00664674
0.00678565
0.00688505
0.00707481
0.00717862
0.00740768
0.00744869
0.00767246
0.0255739
0.013246
0.00663461
0.00666176
0.00669461
0.00677315
0.00684262
0.00696493
0.00707431
0.00722455
0.00735094
0.00749877
0.00757292
0.00784972
0.0183684
0.00677972
0.00680533
0.00684085
0.00691882
0.00698043
0.00711589
0.00717657
0.00734914
0.00740389
0.00762627
0.00757717
0.0258066
0.0148289
0.00705922
0.0070862
0.00709911
0.00717577
0.00721305
0.00730889
0.00740436
0.00749687
0.00763353
0.00749456
0.00786821
0.0213658
0.00718572
0.00720344
0.00723815
0.00729325
0.00734326
0.00747786
0.00744341
0.00756747
0.00758953
0.00802789
0.0293706
0.0075101
0.00754256
0.00750599
0.00760486
0.00754224
0.00758529
0.00766771
0.00784565
0.0258108
0.0213846
0.00752636
0.00752106
0.00758334
0.00754154
0.00764384
0.00785277
0.0255683
0.0183638
0.0148262
0.00784876
0.00789742
0.0077569
0.00799465
0.0241067
0.0173026
0.013241
0.0187437
0.0190794
0.0171729
0.0199846
0.0142116
0.00505745
0.00506994
0.00508608
0.00513086
0.00516797
0.00526213
0.00533691
0.00551663
0.00565161
0.00594492
0.00609185
0.00645464
0.00651161
0.0068597
0.0178322
0.00506995
0.00508357
0.00509967
0.00514582
0.0051845
0.00528041
0.00535841
0.00554104
0.00567906
0.00597399
0.00611333
0.00649052
0.00650975
0.00691519
0.0181734
0.00508602
0.00509964
0.00511705
0.0051648
0.00520542
0.00530386
0.00538546
0.0055676
0.0057116
0.00598601
0.00614386
0.00645323
0.00655816
0.00676851
0.016247
0.00513084
0.00514583
0.0051648
0.00521577
0.00526179
0.00536577
0.00545777
0.00564557
0.0057959
0.00606961
0.00621364
0.00655821
0.00653478
0.00701212
0.0190844
0.00516787
0.0051844
0.00520524
0.00526151
0.00531092
0.00542429
0.00551872
0.00571247
0.0058544
0.00610911
0.00625875
0.00650664
0.00662047
0.0232081
0.0133016
0.00526213
0.00528036
0.0053037
0.00536547
0.00542432
0.00554342
0.00565677
0.0058434
0.00600535
0.00622062
0.0064185
0.0065547
0.00686042
0.016376
0.00533683
0.00535818
0.00538498
0.00545693
0.0055181
0.00565569
0.00575217
0.00595481
0.00606647
0.00632236
0.00638689
0.00663646
0.0246419
0.0123093
0.00551673
0.00554088
0.00556713
0.00564461
0.00571157
0.00584201
0.00595444
0.00612313
0.00626578
0.00643902
0.00653664
0.00682214
0.0174158
0.00565168
0.00567873
0.00571079
0.00579431
0.00585262
0.00600269
0.00606458
0.00626282
0.00631884
0.00659461
0.00654576
0.0248829
0.0138853
0.0059453
0.00597385
0.00598542
0.00606805
0.00610721
0.00621799
0.00632049
0.0064357
0.00658581
0.0064932
0.00702042
0.0204521
0.00609226
0.00611324
0.00614325
0.00621182
0.00625598
0.00641474
0.00638487
0.00653688
0.00652828
0.00687852
0.0284399
0.00645544
0.0064908
0.00645345
0.00655726
0.0065037
0.00655083
0.00663375
0.00682046
0.0248845
0.0204431
0.00651242
0.00651028
0.0065588
0.00653451
0.00661635
0.0068554
0.0246374
0.017412
0.0138839
0.00686073
0.00691559
0.00676887
0.0070114
0.0232046
0.0163712
0.0123048
0.0178338
0.0181739
0.0162472
0.0190841
0.0132994
0.0041378
0.00414545
0.00415201
0.00418244
0.00419981
0.00426986
0.00431361
0.00446222
0.00456051
0.00484998
0.00500112
0.00540239
0.00548163
0.0058518
0.0169596
0.00414546
0.00415443
0.00416089
0.00419268
0.00421161
0.00428342
0.00433016
0.0044818
0.00458436
0.00488009
0.00502574
0.00544332
0.00548453
0.00592091
0.0173095
0.00415195
0.00416087
0.00416846
0.00420174
0.00422209
0.00429609
0.004345
0.0044963
0.00460484
0.00488653
0.00504728
0.00540032
0.00551886
0.00576394
0.015353
0.00418241
0.00419269
0.00420175
0.00423865
0.00426451
0.00434434
0.00440513
0.00456382
0.00468956
0.00497332
0.00513026
0.00550971
0.00551233
0.00600187
0.0182243
0.00419969
0.0042115
0.00422191
0.00426423
0.00429204
0.00438138
0.00444396
0.00461226
0.00473693
0.00500443
0.00515739
0.00544971
0.00554494
0.0223613
0.0124221
0.00426984
0.00428334
0.00429591
0.00434402
0.00438142
0.00448028
0.00456638
0.00474026
0.00490036
0.00512593
0.00534409
0.00549093
0.00581752
0.0154679
0.00431347
0.00432986
0.00434446
0.0044042
0.00444325
0.00456526
0.00463959
0.00484361
0.00494896
0.0052219
0.00530042
0.00554633
0.0237555
0.0113807
0.00446225
0.00448154
0.00449576
0.00456277
0.00461133
0.00473882
0.00484336
0.0050241
0.00516995
0.00536222
0.00547268
0.00573385
0.0164758
0.00456046
0.00458388
0.00460387
0.00468773
0.00473496
0.00489725
0.00494695
0.0051668
0.0052039
0.00552425
0.00542821
0.0239938
0.0129502
0.00485023
0.00487975
0.00488577
0.00497158
0.00500246
0.00512308
0.00521981
0.0053602
0.00552829
0.005452
0.00587824
0.0195413
0.00500132
0.00502528
0.00504628
0.00512805
0.00515451
0.00533988
0.00529662
0.00546808
0.00543629
0.0059411
0.0275014
0.005403
0.00544302
0.00539981
0.00550807
0.00544723
0.00548754
0.00554361
0.00573249
0.0240017
0.0195533
0.00548218
0.0054843
0.0055182
0.00551055
0.00554187
0.00581338
0.0237515
0.0164724
0.0129513
0.00585276
0.00592055
0.00576341
0.00600029
0.0223586
0.0154641
0.0113769
0.0169612
0.0173097
0.0153526
0.0182232
0.0124198
0.00306545
0.00306868
0.00306639
0.00308265
0.00307957
0.0031213
0.00312694
0.00322976
0.00327202
0.0035164
0.0036393
0.00408647
0.0041881
0.00463542
0.0161215
0.00306869
0.00307331
0.00307087
0.00308806
0.00308616
0.00312923
0.00313722
0.00324172
0.00328839
0.00353731
0.00366277
0.00412811
0.00418851
0.00472858
0.0164886
0.00306633
0.00307085
0.00306877
0.00308696
0.00308512
0.00312908
0.00313686
0.00323876
0.0032884
0.00352166
0.00366682
0.00406376
0.00419532
0.00454084
0.0144275
0.00308262
0.00308807
0.00308698
0.0031082
0.00311072
0.00316002
0.00317906
0.00328887
0.00335973
0.00360243
0.0037602
0.00417729
0.0042007
0.00482314
0.0173838
0.00307944
0.00308604
0.00308493
0.00311044
0.0031125
0.00317003
0.00318712
0.00330782
0.00337407
0.00361804
0.00375983
0.00409416
0.00419611
0.0216358
0.0115982
0.00312125
0.00312914
0.0031289
0.00315969
0.00317007
0.00323815
0.00328206
0.00341499
0.003538
0.00375415
0.00398936
0.00413249
0.00457096
0.0145901
0.00312676
0.00313689
0.00313628
0.00317808
0.00318633
0.0032808
0.00331182
0.00348743
0.00356417
0.00384308
0.00392584
0.00417691
0.0229876
0.0104378
0.00322974
0.0032414
0.00323818