/*--------------------------------*- C++ -*----------------------------------*\
| =========                 |                                                 |
| \\      /  F ield         | OpenFOAM: The Open Source CFD Toolbox           |
|  \\    /   O peration     | Version:  2.1.1                                 |
|   \\  /    A nd           | Web:      www.OpenFOAM.org                      |
|    \\/     M anipulation  |                                                 |
\*---------------------------------------------------------------------------*/
FoamFile
{
    version     2.0;
    format      ascii;
    class       surfaceScalarField;
    location    "0.0045";
    object      phi;
}
// * * * * * * * * * * * * * * * * * * * * * * * * * * * * * * * * * * * * * //

dimensions      [0 3 -1 0 0 0 0];

internalField   nonuniform List<scalar> 
29654
(
-3.56881e-14
-4.4414e-14
1.14557e-09
-4.46611e-14
-3.5337e-14
1.14567e-09
1.60849e-14
1.62311e-14
1.14827e-09
-1.14831e-09
3.37113e-14
1.74695e-14
1.14738e-09
-1.14743e-09
4.87704e-14
8.58421e-15
1.14627e-09
-1.14629e-09
4.68809e-14
1.52702e-14
1.14511e-09
-1.14513e-09
4.86911e-14
-1.13175e-14
1.14402e-09
-1.14401e-09
2.32855e-14
1.0867e-14
1.14289e-09
-1.14288e-09
3.44693e-14
-4.40323e-14
1.14177e-09
-1.14173e-09
-1.73843e-14
2.30111e-14
1.14039e-09
-1.14036e-09
2.98436e-14
-8.18549e-14
1.13861e-09
-1.13857e-09
-1.01382e-13
1.07561e-13
1.13554e-09
-1.13552e-09
4.01239e-14
-1.66112e-13
1.13053e-09
-1.1305e-09
-1.87305e-13
2.269e-13
1.12905e-09
-1.12905e-09
1.23562e-13
-3.15334e-13
1.12571e-09
-1.1257e-09
6.20178e-11
1.89243e-13
8.71994e-10
6.286e-11
-6.20266e-11
-6.28706e-11
-8.72041e-10
1.43439e-11
-1.07316e-12
9.87818e-11
-5.00257e-11
1.80356e-14
3.40649e-14
1.1474e-09
-1.14744e-09
3.71395e-14
3.69031e-14
1.14685e-09
-1.14689e-09
5.23051e-14
1.86764e-14
1.14586e-09
-1.14588e-09
5.12585e-14
3.19925e-14
1.14478e-09
-1.14479e-09
5.18954e-14
-1.68864e-14
1.14368e-09
-1.14368e-09
2.45805e-14
3.00405e-14
1.14256e-09
-1.14255e-09
2.8639e-14
-7.74661e-14
1.14151e-09
-1.14148e-09
-2.7255e-14
5.94254e-14
1.14038e-09
-1.14036e-09
1.13462e-14
-1.47342e-13
1.13927e-09
-1.13924e-09
-1.29567e-13
2.39417e-13
1.13755e-09
-1.13754e-09
3.66761e-16
-3.07506e-13
1.1349e-09
-1.13489e-09
-3.33871e-13
5.98398e-13
1.13733e-09
-1.13737e-09
7.70896e-15
-6.53702e-13
1.13988e-09
-1.13988e-09
6.47543e-11
2.50505e-15
8.78354e-10
6.61111e-11
-6.46029e-11
-6.602e-11
-8.78399e-10
9.47432e-13
1.41914e-11
1.50615e-12
9.66094e-11
-4.84994e-11
8.59276e-15
4.90201e-14
1.14628e-09
-1.14631e-09
1.86796e-14
5.20766e-14
1.14596e-09
-1.14598e-09
2.57141e-14
2.56079e-14
1.14517e-09
-1.14518e-09
2.34073e-14
3.94438e-14
1.14412e-09
-1.14412e-09
1.94208e-14
-2.50569e-14
1.14307e-09
-1.14305e-09
6.06888e-15
2.81166e-14
1.142e-09
-1.14198e-09
3.23196e-15
-1.05774e-13
1.14107e-09
-1.14104e-09
-1.02361e-14
5.23812e-14
1.1403e-09
-1.14028e-09
1.04428e-14
-1.94465e-13
1.13998e-09
-1.13995e-09
-1.6403e-14
2.51859e-13
1.13973e-09
-1.13972e-09
1.04801e-13
-4.34765e-13
1.14056e-09
-1.14055e-09
-2.64954e-14
7.31106e-13
1.15493e-09
-1.15492e-09
2.42385e-13
-8.92931e-13
1.1868e-09
-1.18683e-09
5.75147e-11
8.90855e-13
9.74126e-10
4.01321e-11
-5.7461e-11
-4.07905e-11
-9.74166e-10
-4.36155e-12
8.45441e-12
1.00327e-12
1.11845e-10
-5.94256e-11
1.48993e-14
4.70235e-14
1.14513e-09
-1.14514e-09
3.17696e-14
5.11974e-14
1.14482e-09
-1.14484e-09
3.97042e-14
2.35051e-14
1.14422e-09
-1.14422e-09
3.98524e-14
3.97185e-14
1.14325e-09
-1.14325e-09
3.02657e-14
-3.12099e-14
1.14206e-09
-1.14205e-09
1.11452e-14
3.05574e-14
1.14091e-09
-1.14089e-09
3.33517e-15
-1.27849e-13
1.13999e-09
-1.13996e-09
-2.77545e-14
6.42522e-14
1.13932e-09
-1.1393e-09
-5.59666e-15
-2.42784e-13
1.13928e-09
-1.13925e-09
-9.07255e-14
3.33285e-13
1.13954e-09
-1.13953e-09
1.44672e-13
-6.64336e-13
1.14445e-09
-1.14445e-09
-9.82442e-13
1.88961e-12
1.16983e-09
-1.16985e-09
2.29374e-13
-2.09562e-12
1.16275e-09
-1.16276e-09
4.27254e-11
4.45111e-11
7.6174e-10
4.83477e-11
-4.2392e-11
-4.82448e-11
5.78496e-11
-4.49211e-11
-5.67018e-11
-7.61791e-10
7.70345e-12
-6.95491e-12
7.90658e-11
-3.70879e-11
-1.15395e-14
4.88872e-14
1.14402e-09
-1.14402e-09
-1.68906e-14
5.19553e-14
1.1437e-09
-1.14369e-09
-2.50097e-14
1.95413e-14
1.1431e-09
-1.14308e-09
-3.11662e-14
3.01786e-14
1.14214e-09
-1.14212e-09
-4.42648e-14
-4.41378e-14
1.14088e-09
-1.14085e-09
-4.00096e-14
8.99391e-16
1.13947e-09
-1.13944e-09
-6.40499e-14
-1.35394e-13
1.13817e-09
-1.13814e-09
-1.10045e-14
-9.56396e-15
1.13717e-09
-1.13715e-09
-6.16523e-14
-2.10653e-13
1.1366e-09
-1.13658e-09
3.56997e-13
-9.31086e-14
1.13685e-09
-1.13685e-09
-1.26617e-13
-1.68227e-13
1.14716e-09
-1.14717e-09
1.32062e-12
4.574e-13
1.1566e-09
-1.15661e-09
4.66183e-11
7.62873e-13
9.01382e-10
5.50703e-11
-4.79621e-11
-5.5227e-11
-9.01417e-10
1.35233e-11
7.02962e-12
1.34828e-10
-6.42502e-11
-3.43433e-12
-6.50766e-12
2.02366e-11
-1.02946e-11
1.05169e-14
2.38341e-14
1.1429e-09
-1.14288e-09
2.99816e-14
2.4251e-14
1.14257e-09
-1.14256e-09
2.8084e-14
6.17434e-15
1.14201e-09
-1.14199e-09
3.04912e-14
1.1088e-14
1.14094e-09
-1.14092e-09
8.02418e-16
-3.97944e-14
1.13948e-09
-1.13946e-09
-1.05311e-14
-1.0162e-14
1.13776e-09
-1.13774e-09
-3.97293e-14
-1.30559e-13
1.13586e-09
-1.13583e-09
-1.85943e-14
-4.83194e-14
1.13399e-09
-1.13397e-09
-1.10674e-13
-1.47877e-13
1.13233e-09
-1.1323e-09
3.07012e-14
-2.20938e-13
1.13464e-09
-1.13465e-09
-1.05012e-12
9.23371e-13
1.15516e-09
-1.15517e-09
1.70275e-13
-7.2882e-13
1.13153e-09
-1.13157e-09
5.79709e-11
4.4751e-11
7.21837e-10
6.16503e-11
-5.75326e-11
-6.09083e-11
6.50539e-11
-4.53112e-11
-6.46823e-11
-7.21893e-10
-5.83902e-12
9.66665e-12
8.42526e-12
1.02951e-10
-5.7233e-11
-4.23739e-14
3.41188e-14
1.14177e-09
-1.14174e-09
-7.68653e-14
2.89912e-14
1.14152e-09
-1.14149e-09
-1.05548e-13
3.48365e-15
1.1411e-09
-1.14106e-09
-1.27808e-13
3.08015e-15
1.14003e-09
-1.13999e-09
-1.35585e-13
-6.41568e-14
1.13821e-09
-1.13817e-09
-1.30488e-13
-3.9988e-14
1.13592e-09
-1.13589e-09
-1.47634e-13
-1.36898e-13
1.13326e-09
-1.13323e-09
-2.052e-13
-1.30924e-14
1.12993e-09
-1.12991e-09
1.19283e-13
-4.71076e-13
1.12772e-09
-1.12772e-09
-3.82339e-14
-6.82109e-14
1.13644e-09
-1.13644e-09
1.33851e-12
-4.16072e-13
1.14609e-09
-1.14612e-09
4.70251e-11
1.76031e-12
8.81805e-10
5.89525e-11
-4.81819e-11
-5.89472e-11
-8.81803e-10
1.44703e-11
6.97477e-12
1.25726e-10
-5.53951e-11
-1.14187e-11
-1.63072e-11
4.8992e-12
5.45766e-11
-3.175e-11
2.28351e-14
-1.7399e-14
1.1404e-09
-1.14037e-09
5.9562e-14
-2.72002e-14
1.1404e-09
-1.14038e-09
5.22033e-14
-1.03261e-14
1.14034e-09
-1.14031e-09
6.36386e-14
-2.86717e-14
1.13938e-09
-1.13935e-09
-1.05474e-14
-1.31301e-14
1.13724e-09
-1.13722e-09
-4.62319e-14
-2.49696e-14
1.13409e-09
-1.13407e-09
-1.63013e-14
-1.86516e-13
1.13012e-09
-1.1301e-09
-1.96998e-14
-3.33673e-14
1.12503e-09
-1.125e-09
8.42364e-14
-5.84791e-13
1.12372e-09
-1.12371e-09
-1.23443e-12
1.26456e-12
1.14407e-09
-1.14409e-09
1.65573e-13
-1.78802e-12
1.13587e-09
-1.1359e-09
5.84865e-11
4.38432e-11
7.46453e-10
6.28634e-11
-5.79643e-11
-6.19474e-11
5.84221e-11
-4.44624e-11
-5.72563e-11
-7.46511e-10
-5.53731e-12
1.13151e-11
4.47292e-12
1.02891e-10
-5.46565e-11
-8.13674e-14
2.9864e-14
1.13862e-09
-1.13858e-09
-1.46807e-13
1.10859e-14
1.13929e-09
-1.13926e-09
-1.94347e-13
1.01133e-14
1.14002e-09
-1.13999e-09
-2.45039e-13
-5.90831e-15
1.13934e-09
-1.13931e-09
-2.21503e-13
-6.08847e-14
1.1367e-09
-1.13667e-09
-1.74586e-13
-1.12322e-13
1.13247e-09
-1.13243e-09
-4.79355e-13
1.05585e-13
1.12793e-09
-1.12791e-09
-5.92654e-13
4.43872e-14
1.1241e-09
-1.12407e-09
-5.95918e-13
-6.02776e-13
1.12712e-09
-1.1271e-09
1.73505e-12
-1.01886e-12
1.13168e-09
-1.13173e-09
4.52798e-11
1.2308e-12
8.80794e-10
5.28473e-11
-4.63239e-11
-5.30362e-11
-8.80843e-10
1.4385e-11
-2.82095e-13
1.37695e-10
-6.26743e-11
-5.81724e-12
-1.14636e-11
3.43247e-11
-1.70438e-11
1.07603e-13
-1.01358e-13
1.13554e-09
-1.13552e-09
2.39244e-13
-1.29744e-13
1.13757e-09
-1.13756e-09
2.51179e-13
-1.65525e-14
1.13977e-09
-1.13975e-09
3.31488e-13
-9.16911e-14
1.13959e-09
-1.13959e-09
-9.48219e-14
3.51607e-13
1.13697e-09
-1.13695e-09
-2.33585e-13
2.52909e-14
1.13476e-09
-1.13476e-09
-9.80953e-14
-5.34112e-14
1.13668e-09
-1.13665e-09
1.06925e-12
-1.32054e-12
1.14447e-09
-1.14428e-09
-1.09066e-12
1.56076e-12
1.13223e-09
-1.13223e-09
-1.00525e-12
-1.02817e-12
1.1227e-09
-1.12278e-09
5.68173e-11
3.38596e-11
7.19306e-10
5.05889e-11
-5.63381e-11
-5.08196e-11
4.33276e-11
-3.48059e-11
-4.23542e-11
-7.19355e-10
6.94846e-12
1.23415e-11
-1.89177e-11
1.02183e-10
-4.57389e-11
-1.65587e-13
3.99303e-14
1.13052e-09
-1.13049e-09
-3.06882e-13
2.13736e-16
1.13494e-09
-1.13493e-09
-4.34109e-13
1.04577e-13
1.14058e-09
-1.14057e-09
-6.665e-13
1.4506e-13
1.14447e-09
-1.14447e-09
-1.65657e-13
-1.42604e-13
1.14725e-09
-1.14725e-09
9.12946e-13
-1.05069e-12
1.15525e-09
-1.15525e-09
-4.34971e-13
1.31028e-12
1.14624e-09
-1.14625e-09
-1.93617e-12
1.51264e-13
1.1361e-09
-1.13608e-09
9.79385e-13
4.52762e-11
8.81265e-10
5.28498e-11
-4.6363e-11
-5.32028e-11
-8.81179e-10
3.37524e-11
5.68175e-11
7.20116e-10
4.33073e-11
-3.47229e-11
-4.23597e-11
5.06328e-11
-5.63728e-11
-5.08222e-11
-7.20396e-10
-1.06839e-11
-1.0643e-11
1.45959e-10
-5.70208e-11
2.27195e-13
-1.87427e-13
1.12905e-09
-1.12904e-09
5.98629e-13
-3.33792e-13
1.13736e-09
-1.1374e-09
7.30994e-13
-2.64415e-14
1.15492e-09
-1.15492e-09
1.89215e-12
-9.83844e-13
1.16984e-09
-1.16986e-09
4.54641e-13
1.31653e-12
1.15663e-09
-1.15665e-09
-7.26814e-13
1.69557e-13
1.13157e-09
-1.13161e-09
1.74756e-12
4.70213e-11
8.81859e-10
5.89513e-11
-4.81787e-11
-5.89467e-11
-8.81869e-10
4.3838e-11
5.84845e-11
7.46512e-10
5.84348e-11
-4.44574e-11
-5.72456e-11
6.28637e-11
-5.79611e-11
-6.19458e-11
-7.46624e-10
-2.86852e-13
1.43783e-11
1.3772e-10
-6.2697e-11
6.95784e-12
-1.89309e-11
1.23287e-11
1.02292e-10
-4.58309e-11
-3.14745e-13
1.23641e-13
1.12569e-09
-1.12569e-09
-6.52878e-13
7.57768e-15
1.13987e-09
-1.13987e-09
-8.92182e-13
2.42611e-13
1.18678e-09
-1.18681e-09
-2.09423e-12
2.27632e-13
1.16275e-09
-1.16276e-09
7.62706e-13
4.66172e-11
9.01388e-10
5.507e-11
-4.79615e-11
-5.52268e-11
-9.01425e-10
4.47544e-11
5.79703e-11
7.21839e-10
6.50549e-11
-4.53145e-11
-6.46836e-11
6.16502e-11
-5.75321e-11
-6.09082e-11
-7.21894e-10
6.97572e-12
1.44692e-11
1.25726e-10
-5.53951e-11
-5.53899e-12
4.47347e-12
1.13147e-11
1.02891e-10
-5.46565e-11
-1.14606e-11
-5.81898e-12
3.43273e-11
-1.70477e-11
1.89819e-13
6.20139e-11
8.71966e-10
6.28567e-11
-6.20226e-11
-6.28673e-11
-8.72013e-10
2.70397e-15
6.47532e-11
8.78332e-10
6.61113e-11
-6.46019e-11
-6.60201e-11
-8.78378e-10
8.91099e-13
5.75152e-11
9.74112e-10
4.01329e-11
-5.7461e-11
-4.07912e-11
-9.74152e-10
4.45119e-11
4.27251e-11
7.61739e-10
5.78497e-11
-4.4922e-11
-5.67021e-11
4.83475e-11
-4.23919e-11
-4.82449e-11
-7.61791e-10
7.02978e-12
1.3523e-11
1.34828e-10
-6.42504e-11
-5.83934e-12
8.42531e-12
9.66653e-12
1.02951e-10
-5.7233e-11
-1.63068e-11
-1.14187e-11
4.89916e-12
5.45764e-11
-3.175e-11
-1.07384e-12
1.43428e-11
9.87683e-11
-5.00158e-11
9.47716e-13
1.50518e-12
1.41915e-11
9.6607e-11
-4.84975e-11
-4.36184e-12
1.00437e-12
8.45426e-12
1.11842e-10
-5.94231e-11
7.70187e-12
-6.95445e-12
7.90669e-11
-3.70882e-11
-6.5075e-12
-3.43449e-12
2.02366e-11
-1.02946e-11
5.71323e-14
5.77608e-14
1.14812e-09
1.0848e-13
5.65237e-14
1.14727e-09
1.51114e-13
4.32548e-14
1.14617e-09
1.68738e-13
4.72118e-14
1.14504e-09
1.7897e-13
1.71323e-14
1.14399e-09
1.52863e-13
3.63641e-14
1.14288e-09
1.52644e-13
-2.39301e-14
1.1418e-09
8.66955e-14
3.91505e-14
1.14042e-09
1.14766e-13
-8.12749e-14
1.13867e-09
-3.51853e-14
1.16925e-13
1.13557e-09
8.24445e-14
-1.61006e-13
1.13057e-09
-1.65328e-13
2.44728e-13
1.12905e-09
1.23118e-13
-3.06501e-13
1.12573e-09
6.20322e-11
1.92148e-13
8.71938e-10
6.28733e-11
-6.20382e-11
-6.28813e-11
-5.00344e-11
1.43491e-11
-1.07207e-12
9.88012e-11
5.65361e-14
1.08874e-13
1.14728e-09
1.11168e-13
1.10756e-13
1.14675e-09
1.52502e-13
8.59966e-14
1.14578e-09
1.69782e-13
9.39266e-14
1.14471e-09
1.77376e-13
3.5978e-14
1.14366e-09
1.49054e-13
7.55226e-14
1.14255e-09
1.43291e-13
-4.18871e-14
1.14154e-09
7.13383e-14
8.80783e-14
1.14041e-09
9.28208e-14
-1.51414e-13
1.13932e-09
-7.25033e-14
2.57176e-13
1.13757e-09
2.89494e-14
-2.96103e-13
1.13494e-09
-3.4634e-13
6.17765e-13
1.13734e-09
1.17852e-14
-6.56974e-13
1.13987e-09
6.4769e-11
1.62118e-15
8.78312e-10
6.6124e-11
-6.46151e-11
-6.60336e-11
-4.85082e-11
9.47429e-13
1.41958e-11
1.50622e-12
9.66288e-11
4.2883e-14
1.51139e-13
1.14619e-09
8.60117e-14
1.52068e-13
1.14588e-09
1.18028e-13
1.17855e-13
1.14511e-09
1.32491e-13
1.23833e-13
1.14408e-09
1.35068e-13
4.74279e-14
1.14306e-09
1.21093e-13
9.05388e-14
1.142e-09
1.07536e-13
-5.65315e-14
1.14111e-09
7.88211e-14
9.07362e-14
1.14033e-09
8.20926e-14
-2.03093e-13
1.14003e-09
4.1896e-14
2.69724e-13
1.13976e-09
1.39278e-13
-4.21004e-13
1.14059e-09
-1.81214e-14
7.60744e-13
1.15494e-09
2.43418e-13
-8.96456e-13
1.18677e-09
5.75246e-11
8.9325e-13
9.74086e-10
4.01418e-11
-5.74739e-11
-4.07971e-11
-5.94342e-11
-4.36196e-12
8.45554e-12
1.00218e-12
1.11865e-10
4.69553e-14
1.68799e-13
1.14505e-09
9.40425e-14
1.69708e-13
1.14476e-09
1.24364e-13
1.32477e-13
1.14418e-09
1.40519e-13
1.40184e-13
1.14322e-09
1.36994e-13
5.4151e-14
1.14206e-09
1.16829e-13
1.04849e-13
1.14092e-09
9.92025e-14
-7.03171e-14
1.14002e-09
5.21269e-14
1.11465e-13
1.13935e-09
6.26597e-14
-2.58448e-13
1.13932e-09
-4.41529e-14
3.60227e-13
1.13956e-09
1.66396e-13
-6.55172e-13
1.14447e-09
-9.60621e-13
1.92546e-12
1.16978e-09
2.34188e-13
-2.09941e-12
1.16276e-09
4.27337e-11
4.45227e-11
7.61699e-10
4.83583e-11
-4.24005e-11
-4.82534e-11
5.78589e-11
-4.49282e-11
-5.67158e-11
-3.7093e-11
7.70432e-12
-6.95629e-12
7.90798e-11
1.69294e-14
1.79051e-13
1.14399e-09
3.60099e-14
1.77357e-13
1.14367e-09
4.74402e-14
1.3498e-13
1.14309e-09
5.43009e-14
1.36636e-13
1.14214e-09
4.59256e-14
4.58433e-14
1.1409e-09
4.81872e-14
7.98657e-14
1.13949e-09
1.38054e-14
-7.45088e-14
1.13821e-09
5.17631e-14
4.06005e-14
1.13721e-09
-2.04059e-14
-2.21944e-13
1.13664e-09
3.87895e-13
-7.38642e-14
1.13688e-09
-1.28041e-13
-1.50667e-13
1.14717e-09
1.33981e-12
4.78673e-13
1.15658e-09
4.66302e-11
7.61611e-13
9.0135e-10
5.50842e-11
-4.79666e-11
-5.52325e-11
-6.42596e-11
1.35303e-11
7.03233e-12
1.3485e-10
-1.02966e-11
-3.43412e-12
-6.51002e-12
2.02407e-11
3.63335e-14
1.53016e-13
1.14289e-09
7.55735e-14
1.48984e-13
1.14256e-09
9.05909e-14
1.21075e-13
1.14201e-09
1.04962e-13
1.16496e-13
1.14095e-09
8.00704e-14
4.81373e-14
1.13951e-09
6.82531e-14
6.79498e-14
1.13779e-09
3.02326e-14
-7.42211e-14
1.1359e-09
4.18425e-14
2.01874e-15
1.13402e-09
-6.72642e-14
-1.47846e-13
1.13236e-09
6.09749e-14
-1.98852e-13
1.13463e-09
-1.04661e-12
9.53562e-13
1.15516e-09
2.17228e-13
-7.28521e-13
1.13148e-09
5.79843e-11
4.47652e-11
7.21803e-10
6.16624e-11
-5.75418e-11
-6.09195e-11
6.50687e-11
-4.53138e-11
-6.46945e-11
-5.72393e-11
-5.83983e-12
9.67017e-12
8.42641e-12
1.02966e-10
-2.38072e-14
1.52685e-13
1.1418e-09
-4.15441e-14
1.43288e-13
1.14155e-09
-5.63417e-14
1.07479e-13
1.14113e-09
-7.03503e-14
9.86795e-14
1.14006e-09
-7.48904e-14
1.34964e-14
1.13825e-09
-7.47995e-14
2.89862e-14
1.13596e-09
-9.57768e-14
-9.51983e-14
1.1333e-09
-1.62054e-13
2.96326e-14
1.12997e-09
1.39029e-13
-4.58406e-13
1.12773e-09
-1.62923e-14
-5.82704e-14
1.13646e-09
1.38747e-12
-4.24724e-13
1.14606e-09
4.70356e-11
1.83445e-12
8.81777e-10
5.8963e-11
-4.81875e-11
-5.896e-11
-5.54034e-11
1.44768e-11
6.97896e-12
1.25747e-10
-3.17532e-11
-1.14182e-11
-1.6313e-11
4.89982e-12
5.45846e-11
3.93446e-14
8.67353e-14
1.14042e-09
8.82037e-14
7.12042e-14
1.14043e-09
9.06686e-14
7.84916e-14
1.14036e-09
1.11147e-13
5.12372e-14
1.13941e-09
4.022e-14
5.06778e-14
1.13728e-09
1.77165e-15
3.80902e-14
1.13412e-09
2.95814e-14
-1.64262e-13
1.13016e-09
2.12775e-14
9.81806e-15
1.12506e-09
1.18447e-13
-5.79998e-13
1.12374e-09
-1.2567e-12
1.3435e-12
1.14405e-09
1.3191e-13
-1.79715e-12
1.13585e-09
5.84998e-11
4.38556e-11
7.46418e-10
6.28763e-11
-5.79728e-11
-6.19592e-11
5.84336e-11
-4.44666e-11
-5.72674e-11
-5.46627e-11
-5.53776e-12
1.13182e-11
4.47416e-12
1.02908e-10
-8.08385e-14
1.1469e-13
1.13867e-09
-1.5093e-13
9.23357e-14
1.13934e-09
-2.02632e-13
8.15625e-14
1.14007e-09
-2.58566e-13
6.15786e-14
1.13939e-09
-2.22813e-13
-2.18976e-14
1.13674e-09
-1.50849e-13
-7.27415e-14
1.13251e-09
-4.64066e-13
1.29494e-13
1.12795e-09
-5.92379e-13
9.42932e-14
1.12414e-09
-6.0318e-13
-5.85344e-13
1.12713e-09
1.75878e-12
-1.01193e-12
1.13167e-09
4.52923e-11
1.21675e-12
8.80761e-10
5.28584e-11
-4.6328e-11
-5.30448e-11
-6.26826e-11
1.43899e-11
-2.77488e-13
1.37718e-10
-1.70459e-11
-5.81779e-12
-1.14667e-11
3.43304e-11
1.17087e-13
-3.5352e-14
1.13557e-09
2.57186e-13
-7.27939e-14
1.1376e-09
2.69551e-13
4.1543e-14
1.1398e-09
3.58956e-13
-4.50916e-14
1.13961e-09
-7.46602e-14
3.84608e-13
1.137e-09
-2.05602e-13
5.45226e-14
1.13477e-09
-6.8686e-14
-3.05581e-14
1.1367e-09
1.30423e-12
-1.2764e-12
1.14447e-09
-1.0333e-12
1.75631e-12
1.13223e-09
-1.00989e-12
-9.77803e-13
1.12265e-09
5.683e-11
3.38603e-11
7.19292e-10
5.06017e-11
-5.6348e-11
-5.08257e-11
4.33195e-11
-3.48241e-11
-4.23917e-11
-4.57442e-11
6.94734e-12
1.23439e-11
-1.89204e-11
1.02202e-10
-1.60408e-13
8.21665e-14
1.13056e-09
-2.95534e-13
2.87047e-14
1.13497e-09
-4.2044e-13
1.38692e-13
1.14061e-09
-6.55543e-13
1.65764e-13
1.1445e-09
-1.50968e-13
-1.29892e-13
1.14726e-09
9.46633e-13
-1.04904e-12
1.15526e-09
-4.28487e-13
1.36709e-12
1.14621e-09
-1.81932e-12
1.27239e-13
1.13609e-09
1.19131e-12
4.5311e-11
8.8125e-10
5.30015e-11
-4.63577e-11
-5.31929e-11
3.37719e-11
5.68475e-11
7.20032e-10
4.33378e-11
-3.4718e-11
-4.23391e-11
5.0616e-11
-5.63706e-11
-5.08467e-11
-5.70206e-11
-1.07077e-11
-1.06267e-11
1.45986e-10
2.45472e-13
-1.65585e-13
1.12904e-09
6.18229e-13
-3.46386e-13
1.13737e-09
7.60438e-13
-1.82206e-14
1.15494e-09
1.92576e-12
-9.61297e-13
1.16979e-09
4.79754e-13
1.33776e-12
1.15661e-09
-7.24703e-13
2.15599e-13
1.13151e-09
1.83312e-12
4.70321e-11
8.81818e-10
5.8962e-11
-4.81848e-11
-5.89607e-11
4.38338e-11
5.84983e-11
7.46465e-10
5.84338e-11
-4.44515e-11
-5.72557e-11
6.28769e-11
-5.79708e-11
-6.19589e-11
-6.26821e-11
-2.93224e-13
1.43832e-11
1.37737e-10
-4.57661e-11
6.88757e-12
-1.89193e-11
1.23535e-11
1.0229e-10
-3.05767e-13
1.23089e-13
1.12572e-09
-6.56166e-13
1.15191e-14
1.13987e-09
-8.95623e-13
2.43536e-13
1.18676e-09
-2.09859e-12
2.34102e-13
1.16276e-09
7.61887e-13
4.66293e-11
9.01355e-10
5.5084e-11
-4.7966e-11
-5.52325e-11
4.47683e-11
5.79839e-11
7.21803e-10
6.50699e-11
-4.53169e-11
-6.46955e-11
6.16624e-11
-5.75413e-11
-6.09194e-11
-5.54031e-11
6.9792e-12
1.44758e-11
1.25747e-10
-5.4662e-11
-5.53846e-12
4.47331e-12
1.1318e-11
1.02907e-10
-1.70468e-11
-1.14693e-11
-5.81679e-12
3.43329e-11
1.92794e-13
6.20283e-11
8.7191e-10
6.287e-11
-6.20342e-11
-6.2878e-11
1.85544e-15
6.47678e-11
8.78291e-10
6.61242e-11
-6.46142e-11
-6.60337e-11
8.93329e-13
5.75251e-11
9.74072e-10
4.01426e-11
-5.7474e-11
-4.07978e-11
4.45236e-11
4.27335e-11
7.61698e-10
5.78591e-11
-4.4929e-11
-5.67159e-11
4.83583e-11
-4.24004e-11
-4.82533e-11
-6.42595e-11
7.03248e-12
1.35301e-11
1.3485e-10
-5.72392e-11
-5.84012e-12
8.42646e-12
9.6701e-12
1.02966e-10
-3.17532e-11
-1.63126e-11
-1.14183e-11
4.89984e-12
5.45843e-11
-5.00245e-11
-1.07273e-12
1.43479e-11
9.87877e-11
-4.85063e-11
9.47649e-13
1.50531e-12
1.41958e-11
9.66264e-11
-5.94319e-11
-4.36222e-12
1.00321e-12
8.45546e-12
1.11862e-10
-3.70932e-11
7.70279e-12
-6.95581e-12
7.90808e-11
-1.02966e-11
-6.50987e-12
-3.43428e-12
2.02408e-11
1.1955e-13
1.20347e-13
1.14787e-09
2.22909e-13
1.15329e-13
1.14703e-09
3.03547e-13
9.70332e-14
1.14599e-09
3.50238e-13
9.61538e-14
1.1449e-09
3.73073e-13
5.87323e-14
1.14391e-09
3.47032e-13
7.16157e-14
1.14283e-09
3.31066e-13
3.75544e-15
1.14181e-09
2.48175e-13
6.18028e-14
1.14043e-09
2.42008e-13
-6.12919e-14
1.13873e-09
6.67941e-14
1.29133e-13
1.13561e-09
1.54358e-13
-1.55639e-13
1.13064e-09
-1.28455e-13
2.67506e-13
1.12906e-09
1.76026e-13
-3.14606e-13
1.12574e-09
6.2047e-11
2.01955e-13
8.71917e-10
6.28897e-11
-6.20495e-11
-6.2894e-11
-5.00458e-11
1.4351e-11
-1.07284e-12
9.88231e-11
1.15162e-13
2.23397e-13
1.14705e-09
2.20731e-13
2.2017e-13
1.14654e-09
3.00189e-13
1.86354e-13
1.14561e-09
3.45112e-13
1.86011e-13
1.14458e-09
3.6406e-13
1.13924e-13
1.14359e-09
3.36556e-13
1.43515e-13
1.14251e-09
3.16376e-13
1.08941e-14
1.14155e-09
2.24922e-13
1.32137e-13
1.14043e-09
2.13433e-13
-1.11992e-13
1.13938e-09
2.01557e-14
2.85384e-13
1.13761e-09
8.78561e-14
-2.84489e-13
1.135e-09
-3.02306e-13
6.35774e-13
1.13736e-09
2.42778e-14
-6.55638e-13
1.13988e-09
6.47854e-11
1.03842e-14
8.78281e-10
6.61394e-11
-6.46279e-11
-6.60473e-11
-4.85181e-11
9.47887e-13
1.41995e-11
1.50668e-12
9.66501e-11
9.66167e-14
3.03754e-13
1.146e-09
1.86545e-13
2.99781e-13
1.14571e-09
2.54823e-13
2.54501e-13
1.14498e-09
2.94752e-13
2.4855e-13
1.14397e-09
3.08332e-13
1.54237e-13
1.14301e-09
2.94582e-13
1.8393e-13
1.14197e-09
2.6529e-13
1.63373e-14
1.14113e-09
2.20531e-13
1.48691e-13
1.14036e-09
1.9247e-13
-1.46745e-13
1.14009e-09
1.35293e-13
2.99621e-13
1.13981e-09
2.00558e-13
-4.07895e-13
1.14065e-09
-2.90489e-15
8.42833e-13
1.15494e-09
2.45858e-13
-8.94486e-13
1.18677e-09
5.75389e-11
8.93565e-13
9.74052e-10
4.01541e-11
-5.74862e-11
-4.08036e-11
-5.94441e-11
-4.36235e-12
8.45826e-12
1.00021e-12
1.11887e-10
9.62095e-14
3.50357e-13
1.14491e-09
1.86341e-13
3.4497e-13
1.14463e-09
2.49268e-13
2.94443e-13
1.14408e-09
2.89708e-13
2.89178e-13
1.14314e-09
2.96666e-13
1.81509e-13
1.14203e-09
2.75882e-13
2.16328e-13
1.14091e-09
2.44299e-13
1.53896e-14
1.14006e-09
1.7858e-13
1.81952e-13
1.13939e-09
1.62815e-13
-1.95385e-13
1.13939e-09
2.4203e-14
3.99856e-13
1.1396e-09
2.02428e-13
-6.43715e-13
1.14453e-09
-9.24616e-13
1.9659e-12
1.16979e-09
2.29287e-13
-2.05157e-12
1.16277e-09
4.27424e-11
4.45348e-11
7.61657e-10
4.83693e-11
-4.24123e-11
-4.82643e-11
5.78679e-11
-4.49382e-11
-5.67344e-11
-3.70996e-11
7.70659e-12
-6.95967e-12
7.9096e-11
5.87968e-14
3.7316e-13
1.14391e-09
1.1394e-13
3.6381e-13
1.1436e-09
1.54264e-13
3.08004e-13
1.14303e-09
1.81921e-13
2.96138e-13
1.14211e-09
1.82391e-13
1.82095e-13
1.1409e-09
1.82736e-13
1.98619e-13
1.13951e-09
1.33044e-13
1.632e-14
1.13826e-09
1.50328e-13
1.15844e-13
1.13726e-09
5.51123e-14
-1.72768e-13
1.13671e-09
4.38727e-13
-3.55105e-14
1.13693e-09
-1.01764e-13
-1.3909e-13
1.14721e-09
1.35853e-12
5.07624e-13
1.15658e-09
4.66436e-11
7.59983e-13
9.01364e-10
5.51003e-11
-4.79724e-11
-5.52393e-11
-6.42694e-11
1.35385e-11
7.03359e-12
1.34877e-10
-1.02991e-11
-3.43403e-12
-6.51304e-12
2.02462e-11
7.18234e-14
3.47188e-13
1.14283e-09
1.43729e-13
3.36361e-13
1.14251e-09
1.84195e-13
2.94447e-13
1.14199e-09
2.16712e-13
2.75428e-13
1.14094e-09
1.99084e-13
1.82503e-13
1.13953e-09
1.86456e-13
1.85845e-13
1.13782e-09
1.37754e-13
1.28669e-14
1.13595e-09
1.27056e-13
7.91956e-14
1.13407e-09
1.91589e-15
-1.02459e-13
1.13242e-09
1.06866e-13
-1.73354e-13
1.13466e-09
-1.04418e-12
9.91403e-13
1.15518e-09
2.19418e-13
-7.2391e-13
1.13144e-09
5.79973e-11
4.47808e-11
7.21766e-10
6.16745e-11
-5.75543e-11
-6.09348e-11
6.50832e-11
-4.53194e-11
-6.4711e-11
-5.72473e-11
-5.84114e-12
9.67318e-12
8.42739e-12
1.02985e-10
4.17055e-15
3.31093e-13
1.14181e-09
1.1341e-14
3.16145e-13
1.14156e-09
1.6671e-14
2.65087e-13
1.14115e-09
1.54624e-14
2.43707e-13
1.1401e-09
1.60006e-14
1.32667e-13
1.1383e-09
1.23685e-14
1.36424e-13
1.13601e-09
-2.01534e-14
-1.9702e-14
1.13336e-09
-9.89988e-14
9.80681e-14
1.13003e-09
1.85288e-13
-4.36195e-13
1.12777e-09
1.86791e-14
-3.47697e-14
1.13648e-09
1.43544e-12
-4.24735e-13
1.14606e-09
4.70475e-11
1.86585e-12
8.81764e-10
5.89748e-11
-4.81935e-11
-5.89733e-11
-5.54122e-11
1.44834e-11
6.98535e-12
1.25772e-10
-3.17562e-11
-1.14189e-11
-1.63202e-11
4.90147e-12
5.45939e-11
6.22159e-14
2.48063e-13
1.14044e-09
1.3243e-13
2.2459e-13
1.14045e-09
1.48928e-13
2.20182e-13
1.14039e-09
1.81972e-13
1.77834e-13
1.13944e-09
1.1573e-13
1.49666e-13
1.13733e-09
7.89852e-14
1.24363e-13
1.13417e-09
9.82247e-14
-9.96509e-14
1.13022e-09
8.03925e-14
7.56331e-14
1.1251e-09
1.69594e-13
-5.72871e-13
1.12379e-09
-1.26299e-12
1.40132e-12
1.14404e-09
1.34435e-13
-1.79943e-12
1.13583e-09
5.85162e-11
4.38711e-11
7.46409e-10
6.28885e-11
-5.79847e-11
-6.19743e-11
5.84462e-11
-4.44717e-11
-5.72814e-11
-5.46722e-11
-5.54005e-12
1.1323e-11
4.47658e-12
1.02929e-10
-6.09521e-14
2.41821e-13
1.13873e-09
-1.11689e-13
2.12988e-13
1.1394e-09
-1.46328e-13
1.91975e-13
1.14013e-09
-1.95086e-13
1.61667e-13
1.13945e-09
-1.7254e-13
5.38744e-14
1.13681e-09
-1.05357e-13
-1.17055e-15
1.13257e-09
-4.39696e-13
1.80025e-13
1.128e-09
-5.79743e-13
1.58928e-13
1.1242e-09
-6.00253e-13
-5.94961e-13
1.12718e-09
1.78888e-12
-9.95294e-13
1.13168e-09
4.53058e-11
1.21715e-12
8.80749e-10
5.28697e-11
-4.63335e-11
-5.30566e-11
-6.26927e-11
1.43962e-11
-2.71284e-13
1.37744e-10
-1.70486e-11
-5.81779e-12
-1.1471e-11
3.43374e-11
1.29713e-13
6.65694e-14
1.13561e-09
2.85836e-13
1.99493e-14
1.13764e-09
2.9985e-13
1.34884e-13
1.13984e-09
3.99265e-13
2.32832e-14
1.13965e-09
-3.47617e-14
4.36115e-13
1.13705e-09
-1.71388e-13
1.01612e-13
1.1348e-09
-3.60109e-14
1.06085e-14
1.13673e-09
1.39604e-12
-1.27197e-12
1.14447e-09
-1.00595e-12
1.78713e-12
1.13225e-09
-9.72541e-13
-9.92535e-13
1.12261e-09
5.68383e-11
3.38785e-11
7.19235e-10
5.0604e-11
-5.63642e-11
-5.08469e-11
4.33663e-11
-3.48207e-11
-4.23577e-11
-4.57544e-11
6.9449e-12
1.23475e-11
-1.8923e-11
1.02223e-10
-1.54831e-13
1.54127e-13
1.13062e-09
-2.83833e-13
8.75591e-14
1.13504e-09
-4.07373e-13
1.9977e-13
1.14067e-09
-6.4376e-13
2.01461e-13
1.14455e-09
-1.39135e-13
-1.03944e-13
1.14729e-09
9.87395e-13
-1.04588e-12
1.15528e-09
-4.27247e-13
1.4248e-12
1.14621e-09
-1.80624e-12
1.31171e-13
1.13606e-09
1.19744e-12
4.5333e-11
8.81247e-10
5.30209e-11
-4.63623e-11
-5.32046e-11
3.37663e-11
5.68631e-11
7.20017e-10
4.33154e-11
-3.47399e-11
-4.23862e-11
5.06295e-11
-5.63793e-11
-5.08526e-11
-5.70362e-11
-1.06628e-11
-1.06747e-11
1.46018e-10
2.68582e-13
-1.28832e-13
1.12906e-09
6.36364e-13
-3.02446e-13
1.13739e-09
8.42821e-13
-3.13688e-15
1.15493e-09
1.96578e-12
-9.25139e-13
1.1698e-09
5.07968e-13
1.35716e-12
1.15661e-09
-7.23081e-13
2.19578e-13
1.13148e-09
1.86468e-12
4.70444e-11
8.81798e-10
5.89745e-11
-4.81908e-11
-5.8974e-11
4.38497e-11
5.85147e-11
7.46452e-10
5.84403e-11
-4.44547e-11
-5.72727e-11
6.28888e-11
-5.79832e-11
-6.19746e-11
-6.26922e-11
-2.85756e-13
1.43962e-11
1.37764e-10
-4.57768e-11
6.88187e-12
-1.89166e-11
1.23586e-11
1.02315e-10
-3.13655e-13
1.75624e-13
1.12572e-09
-6.54757e-13
2.39644e-14
1.13988e-09
-8.93708e-13
2.45935e-13
1.18675e-09
-2.05158e-12
2.29225e-13
1.16277e-09
7.60017e-13
4.66427e-11
9.01368e-10
5.51002e-11
-4.79718e-11
-5.52393e-11
4.47838e-11
5.79969e-11
7.21765e-10
6.50845e-11
-4.53222e-11
-6.47119e-11
6.16746e-11
-5.75539e-11
-6.09347e-11
-5.54119e-11
6.98564e-12
1.44826e-11
1.25772e-10
-5.46711e-11
-5.54093e-12
4.47518e-12
1.13231e-11
1.02928e-10
-1.70496e-11
-1.14757e-11
-5.81518e-12
3.43405e-11
2.02714e-13
6.20431e-11
8.71889e-10
6.28864e-11
-6.20456e-11
-6.28908e-11
1.06763e-14
6.47842e-11
8.7826e-10
6.61396e-11
-6.4627e-11
-6.60474e-11
8.93624e-13
5.75394e-11
9.74037e-10
4.0155e-11
-5.74863e-11
-4.08044e-11
4.45356e-11
4.27422e-11
7.61656e-10
5.78681e-11
-4.4939e-11
-5.67346e-11
4.83693e-11
-4.24122e-11
-4.82642e-11
-6.42693e-11
7.03373e-12
1.35383e-11
1.34876e-10
-5.72471e-11
-5.84145e-12
8.42747e-12
9.67313e-12
1.02985e-10
-3.17561e-11
-1.63199e-11
-1.14191e-11
4.90148e-12
5.45936e-11
-5.0036e-11
-1.07342e-12
1.43499e-11
9.88097e-11
-4.85163e-11
9.48041e-13
1.5058e-12
1.41995e-11
9.66478e-11
-5.94419e-11
-4.36258e-12
1.00115e-12
8.45821e-12
1.11884e-10
-3.70998e-11
7.7051e-12
-6.95924e-12
7.90971e-11
-1.02991e-11
-6.51292e-12
-3.43419e-12
2.02462e-11
2.19444e-13
2.21333e-13
1.14743e-09
4.02569e-13
2.15716e-13
1.14663e-09
5.53561e-13
1.76101e-13
1.14566e-09
6.13255e-13
1.74829e-13
1.14466e-09
6.58251e-13
1.17177e-13
1.14374e-09
6.29914e-13
1.24762e-13
1.14273e-09
5.94702e-13
4.46351e-14
1.14179e-09
4.83269e-13
1.02796e-13
1.14044e-09
4.37777e-13
-5.29666e-14
1.13882e-09
2.23149e-13
1.53679e-13
1.13566e-09
2.60579e-13
-1.49157e-13
1.13074e-09
-6.72378e-14
2.86062e-13
1.1291e-09
2.15338e-13
-3.18865e-13
1.12577e-09
6.20672e-11
2.12025e-13
8.71924e-10
6.29086e-11
-6.20636e-11
-6.29094e-11
-5.00567e-11
1.43574e-11
-1.0739e-12
9.8848e-11
2.15364e-13
4.03738e-13
1.14665e-09
3.9725e-13
3.96097e-13
1.14618e-09
5.44492e-13
3.31296e-13
1.14531e-09
6.01322e-13
3.30072e-13
1.14437e-09
6.42054e-13
2.2622e-13
1.14344e-09
6.11162e-13
2.447e-13
1.14242e-09
5.71267e-13
8.78454e-14
1.14155e-09
4.51869e-13
2.14078e-13
1.14044e-09
4.01014e-13
-9.07878e-14
1.13947e-09
1.6546e-13
3.31694e-13
1.13767e-09
1.80527e-13
-2.7001e-13
1.1351e-09
-2.35706e-13
6.57862e-13
1.1374e-09
4.929e-14
-6.45615e-13
1.13993e-09
6.48054e-11
2.02332e-14
8.7827e-10
6.61587e-11
-6.46423e-11
-6.60646e-11
-4.85301e-11
9.47411e-13
1.42048e-11
1.50769e-12
9.66763e-11
1.7554e-13
5.54441e-13
1.14567e-09
3.31819e-13
5.43403e-13
1.14541e-09
4.54356e-13
4.53398e-13
1.14473e-09
5.31186e-13
4.42528e-13
1.14379e-09
5.61633e-13
3.10325e-13
1.14289e-09
5.48604e-13
3.20277e-13
1.14191e-09
5.0048e-13
1.23392e-13
1.14114e-09
4.33391e-13
2.41496e-13
1.1404e-09
3.63988e-13
-1.10229e-13
1.14019e-09
2.71001e-13
3.51784e-13
1.13988e-09
2.92825e-13
-3.90982e-13
1.14075e-09
3.63488e-14
8.85573e-13
1.15497e-09
2.56895e-13
-8.80696e-13
1.18679e-09
5.75545e-11
8.93519e-13
9.74026e-10
4.01682e-11
-5.75018e-11
-4.08115e-11
-5.94556e-11
-4.3626e-12
8.46073e-12
9.98409e-13
1.11914e-10
1.75471e-13
6.13529e-13
1.14467e-09
3.30803e-13
6.00388e-13
1.14441e-09
4.44028e-13
5.30556e-13
1.14389e-09
5.07886e-13
5.07134e-13
1.14302e-09
5.30792e-13
3.68466e-13
1.14195e-09
5.09964e-13
3.79403e-13
1.14087e-09
4.61522e-13
1.42405e-13
1.14009e-09
3.70336e-13
2.89953e-13
1.13943e-09
3.17425e-13
-1.53905e-13
1.13949e-09
1.35114e-13
4.65946e-13
1.13966e-09
2.75692e-13
-6.288e-13
1.14462e-09
-8.78012e-13
2.01845e-12
1.16982e-09
2.27256e-13
-2.00995e-12
1.16279e-09
4.27533e-11
4.45501e-11
7.61623e-10
4.83834e-11
-4.24247e-11
-4.82769e-11
5.78792e-11
-4.49495e-11
-5.67574e-11
-3.71082e-11
7.70803e-12
-6.96279e-12