/*--------------------------------*- C++ -*----------------------------------*\
| =========                 |                                                 |
| \\      /  F ield         | OpenFOAM: The Open Source CFD Toolbox           |
|  \\    /   O peration     | Version:  2.1.1                                 |
|   \\  /    A nd           | Web:      www.OpenFOAM.org                      |
|    \\/     M anipulation  |                                                 |
\*---------------------------------------------------------------------------*/
FoamFile
{
    version     2.0;
    format      ascii;
    class       volScalarField;
    location    "0.003";
    object      p;
}
// * * * * * * * * * * * * * * * * * * * * * * * * * * * * * * * * * * * * * //

dimensions      [0 2 -2 0 0 0 0];

internalField   nonuniform List<scalar> 
10191
(
0.0239517
0.0227693
0.0234013
0.0230255
0.0201607
0.0199713
0.0200861
0.0200562
0.0238824
0.0222303
0.0200766
0.0199407
0.0198232
0.0198668
0.019829
0.019826
0.0240383
0.0200905
0.0199902
0.0199035
0.0199132
0.019979
0.0199485
0.0199731
0.0199715
0.0201742
0.0199416
0.019898
0.0198661
0.0199254
0.0198907
0.0198657
0.0198578
0.0198423
0.0198397
0.0201839
0.0197865
0.0199593
0.0199235
0.0199395
0.0199077
0.0199015
0.0199073
0.0198942
0.0198999
0.0198961
0.0240417
0.0199425
0.0199597
0.0199193
0.0199098
0.019877
0.0198805
0.0198528
0.0198415
0.0198252
0.0198168
0.0198115
0.0238834
0.0200909
0.0198983
0.0199237
0.0199099
0.0199027
0.0198882
0.0198721
0.0198533
0.0198458
0.0198308
0.0198276
0.0198223
0.0222308
0.0199904
0.0198663
0.0199397
0.0198773
0.0198883
0.019845
0.0198398
0.0198082
0.0197968
0.0197768
0.0197689
0.0197617
0.0234017
0.0200769
0.0199038
0.0199257
0.0199081
0.0198809
0.0198724
0.0198401
0.0198267
0.0197984
0.019787
0.0197675
0.0197606
0.0197537
0.0230258
0.0199409
0.0199135
0.019891
0.0199018
0.0198532
0.0198537
0.0198085
0.0197985
0.0197631
0.0197503
0.019727
0.0197187
0.0197107
0.0201609
0.0198235
0.0199792
0.019866
0.0199076
0.0198419
0.0198461
0.0197971
0.019787
0.0197503
0.0197373
0.0197136
0.0197053
0.019697
0.0199714
0.0198669
0.0199486
0.0198579
0.0198944
0.0198253
0.019831
0.0197769
0.0197676
0.0197271
0.0197137
0.0196876
0.0196786
0.0196696
0.0239518
0.020086
0.019829
0.0199731
0.0198422
0.0198997
0.0198167
0.0198276
0.0197689
0.0197607
0.0197188
0.0197054
0.0196786
0.0196696
0.0196607
0.0227692
0.0200561
0.0198259
0.0199713
0.0198394
0.0198958
0.0198112
0.0198221
0.0197617
0.0197539
0.0197109
0.0196972
0.0196696
0.0196607
0.0196513
0.0229034
0.0217209
0.0223532
0.0219773
0.0191112
0.018922
0.0190357
0.0190067
0.0228338
0.0211812
0.0190273
0.0188905
0.0187714
0.018815
0.0187708
0.0187731
0.0229901
0.0190428
0.0189397
0.0188517
0.0188591
0.0189275
0.0188949
0.0189263
0.0189181
0.0191327
0.0188921
0.018847
0.0188131
0.0188712
0.0188366
0.018808
0.0188005
0.0187846
0.0187809
0.0191268
0.0187354
0.0189107
0.0188697
0.0188863
0.0188523
0.0188431
0.0188466
0.0188315
0.0188365
0.0188321
0.0229938
0.0188915
0.0189103
0.0188649
0.018855
0.0188187
0.0188269
0.0187912
0.0187734
0.0187539
0.0187439
0.0187389
0.022835
0.0190432
0.0188472
0.0188697
0.018855
0.0188435
0.018826
0.0188083
0.0187853
0.018774
0.0187562
0.0187516
0.018746
0.0211819
0.0189401
0.0188133
0.0188865
0.0188187
0.018826
0.0187784
0.0187695
0.0187335
0.0187188
0.0186957
0.0186859
0.0186783
0.0223538
0.0190278
0.0188521
0.0188716
0.0188527
0.0188273
0.0188086
0.0187696
0.0187516
0.0187186
0.0187031
0.0186801
0.0186713
0.0186632
0.0219778
0.0188909
0.0188595
0.018837
0.0188436
0.0187917
0.0187858
0.0187337
0.0187186
0.0186771
0.0186599
0.0186326
0.0186216
0.018612
0.0191115
0.0187716
0.0189277
0.0188084
0.0188472
0.018774
0.0187745
0.0187191
0.0187032
0.0186599
0.0186422
0.0186135
0.0186026
0.0185926
0.0189221
0.0188152
0.0188951
0.0188006
0.0188317
0.018754
0.0187564
0.0186958
0.0186801
0.0186326
0.0186135
0.0185826
0.0185704
0.0185594
0.0229035
0.0190357
0.0187708
0.0189262
0.0187844
0.0188361
0.0187435
0.0187513
0.0186857
0.0186712
0.0186216
0.0186026
0.0185703
0.0185577
0.0185461
0.0217208
0.0190066
0.0187729
0.0189179
0.0187805
0.0188315
0.0187382
0.0187454
0.0186779
0.0186631
0.018612
0.0185926
0.0185594
0.0185461
0.0185336
0.0218598
0.0206776
0.0213093
0.0209333
0.0180668
0.0178769
0.0179909
0.0179624
0.0217895
0.020136
0.0179819
0.0178448
0.0177218
0.0177678
0.0177222
0.0177238
0.021946
0.0179987
0.0178928
0.0178043
0.0178099
0.0178799
0.0178437
0.0178762
0.0178672
0.0180818
0.0178449
0.017799
0.0177636
0.0178191
0.0177835
0.0177525
0.0177452
0.0177275
0.0177234
0.0180885
0.0176884
0.0178643
0.0178197
0.0178367
0.0177937
0.0177838
0.0177881
0.0177715
0.0177761
0.01777
0.02195
0.0178458
0.0178645
0.0178133
0.0178021
0.0177604
0.017759
0.017722
0.0177079
0.0176884
0.0176776
0.0176705
0.0217909
0.0179994
0.0177993
0.0178195
0.0178017
0.0177858
0.0177638
0.0177412
0.0177146
0.0177017
0.0176817
0.0176754
0.0176682
0.020137
0.0178934
0.0177639
0.0178366
0.01776
0.0177636
0.0177106
0.0176975
0.0176564
0.0176378
0.0176111
0.0175993
0.0175902
0.0213101
0.0179826
0.0178049
0.0178196
0.017794
0.0177593
0.0177413
0.0176975
0.0176746
0.0176354
0.0176155
0.0175883
0.0175769
0.0175672
0.0209339
0.0178454
0.0178103
0.017784
0.0177849
0.017724
0.0177155
0.0176567
0.0176354
0.0175871
0.0175647
0.0175323
0.0175183
0.0175072
0.0180672
0.0177222
0.0178802
0.0177531
0.0177898
0.0177129
0.0177033
0.0176382
0.0176155
0.0175647
0.0175412
0.0175072
0.017493
0.0174811
0.0178771
0.017768
0.0178438
0.0177454
0.0177719
0.0176893
0.0176822
0.0176112
0.0175883
0.0175323
0.0175072
0.0174703
0.0174543
0.017441
0.0218599
0.0179909
0.0177222
0.0178761
0.0177272
0.017775
0.0176747
0.0176742
0.0175989
0.0175767
0.0175182
0.0174929
0.0174542
0.017438
0.0174239
0.0206776
0.0179622
0.0177236
0.0178669
0.0177227
0.0177682
0.017666
0.0176664
0.0175895
0.0175669
0.017507
0.017481
0.017441
0.0174239
0.0174091
0.0208218
0.0196398
0.0202705
0.0198945
0.0170277
0.0168368
0.0169515
0.0169229
0.0207503
0.0190959
0.0169412
0.016803
0.0166766
0.016725
0.0166772
0.0166789
0.020907
0.0169585
0.01685
0.0167613
0.0167649
0.0168364
0.0167965
0.0168299
0.0168197
0.0170478
0.016803
0.0167548
0.0167168
0.0167707
0.016735
0.0166996
0.016692
0.0166722
0.0166676
0.0170411
0.0166452
0.0168221
0.0167722
0.0167851
0.0167444
0.01673
0.0167317
0.0167121
0.0167158
0.0167085
0.0209111
0.0168024
0.0168213
0.0167644
0.0167517
0.0167051
0.0167003
0.0166615
0.0166415
0.0166192
0.0166054
0.0165973
0.0207523
0.0169595
0.016755
0.016771
0.0167495
0.01673
0.0167033
0.0166762
0.0166454
0.0166283
0.0166042
0.016596
0.0165871
0.0190974
0.0168509
0.016717
0.0167841
0.016703
0.0167023
0.016643
0.0166246
0.0165772
0.0165539
0.0165231
0.0165083
0.0164973
0.0202717
0.0169424
0.0167622
0.0167712
0.0167441
0.0166994
0.0166756
0.0166244
0.0165954
0.0165491
0.0165242
0.0164917
0.0164773
0.0164655
0.0198955
0.0168039
0.0167656
0.0167355
0.0167304
0.0166619
0.0166455
0.0165773
0.0165491
0.0164928
0.0164641
0.0164261
0.0164087
0.0163952
0.0170283
0.0166771
0.0168369
0.0167001
0.0167324
0.0166426
0.0166289
0.0165541
0.0165242
0.0164641
0.0164345
0.0163939
0.0163758
0.0163611
0.0168371
0.0167253
0.0167968
0.0166922
0.0167123
0.0166194
0.0166043
0.0165231
0.0164917
0.0164261
0.0163939
0.0163499
0.0163296
0.0163135
0.0208219
0.0169516
0.0166772
0.0168298
0.016672
0.0167152
0.0166045
0.0165953
0.0165079
0.016477
0.0164085
0.0163757
0.0163295
0.0163092
0.0162922
0.0196397
0.0169228
0.0166787
0.0168194
0.0166671
0.0167075
0.0165958
0.016586
0.0164967
0.0164651
0.016395
0.016361
0.0163135
0.0162922
0.0162746
0.0197902
0.018608
0.0192379
0.018862
0.0159945
0.0158021
0.0159179
0.0158886
0.019717
0.0180615
0.0159051
0.0157664
0.0156359
0.0156872
0.0156365
0.0156388
0.0198736
0.0159231
0.0158117
0.0157232
0.0157241
0.0157973
0.0157534
0.0157878
0.0157764
0.0160049
0.0157639
0.015715
0.0156746
0.0157267
0.0156884
0.0156487
0.015641
0.0156188
0.0156136
0.0160157
0.0156071
0.0157838
0.0157301
0.0157402
0.0156959
0.0156771
0.0156771
0.0156537
0.0156566
0.0156481
0.0198787
0.0157659
0.0157836
0.0157192
0.0157095
0.015657
0.0156441
0.0155996
0.0155745
0.0155489
0.0155325
0.0155228
0.0197199
0.0159251
0.0157158
0.0157273
0.0156965
0.0156771
0.0156453
0.0156122
0.015575
0.0155533
0.0155249
0.0155147
0.0155038
0.0180637
0.0158135
0.0156753
0.0157372
0.0156438
0.0156417
0.0155754
0.0155506
0.0154959
0.0154672
0.0154312
0.0154129
0.0154002
0.0192396
0.0159069
0.0157247
0.0157275
0.0156949
0.0156408
0.0156105
0.0155502
0.0155144
0.0154597
0.0154287
0.0153902
0.0153723
0.0153582
0.0188634
0.0157677
0.0157252
0.0156891
0.0156773
0.0155994
0.0155746
0.0154957
0.0154597
0.0153937
0.0153584
0.0153137
0.0152918
0.0152755
0.0159953
0.0156367
0.0157979
0.0156491
0.0156774
0.0155748
0.0155535
0.0154671
0.0154286
0.0153583
0.0153208
0.0152728
0.0152502
0.0152329
0.0158026
0.0156876
0.0157538
0.0156412
0.0156539
0.0155489
0.0155249
0.0154312
0.0153901
0.0153137
0.0152728
0.015221
0.0151959
0.0151772
0.0197904
0.0159181
0.0156366
0.0157878
0.0156187
0.0156563
0.015532
0.0155142
0.0154126
0.0153721
0.0152915
0.0152501
0.0151957
0.015169
0.0151486
0.018608
0.0158885
0.0156386
0.0157762
0.0156132
0.0156475
0.015522
0.0155031
0.0153997
0.0153579
0.0152753
0.0152328
0.0151771
0.0151487
0.0151273
0.0187649
0.0175826
0.018212
0.0178362
0.0149679
0.0147733
0.0148905
0.0148605
0.0186904
0.0170336
0.0148742
0.0147353
0.0145988
0.0146548
0.014601
0.0146044
0.0188467
0.0148938
0.0147779
0.0146897
0.0146875
0.0147641
0.014715
0.0147508
0.0147378
0.0149864
0.0147315
0.0146793
0.0146361
0.0146857
0.014645
0.0146008
0.0145927
0.0145673
0.0145617
0.0149763
0.0145736
0.0147505
0.0146888
0.0146954
0.0146483
0.0146253
0.0146244
0.0145963
0.014599
0.0145883
0.0188525
0.0147326
0.0147518
0.0146781
0.0146527
0.0145975
0.0145864
0.014537
0.0145066
0.0144778
0.0144582
0.0144471
0.0186945
0.0148974
0.0146824
0.0146933
0.0146655
0.014627
0.0145851
0.0145469
0.0145023
0.0144766
0.0144426
0.0144295
0.0144166
0.0170369
0.0147814
0.0146394
0.0146981
0.0145999
0.0145861
0.0145071
0.0144751
0.0144118
0.0143768
0.0143347
0.0143131
0.0142981
0.0182144
0.014877
0.0146925
0.0146883
0.0146499
0.0145869
0.0145471
0.0144751
0.0144298
0.0143658
0.0143271
0.0142823
0.0142602
0.0142437
0.0178382
0.0147372
0.0146894
0.0146463
0.0146262
0.0145375
0.0145025
0.0144119
0.0143658
0.0142892
0.0142459
0.0141938
0.0141672
0.0141486
0.014969
0.0145994
0.0147654
0.014601
0.0146247
0.0145068
0.0144767
0.0143768
0.0143271
0.0142458
0.0141991
0.0141437
0.0141158
0.0140956
0.0147739
0.0146553
0.0147154
0.014593
0.0145963
0.0144777
0.0144426
0.0143346
0.0142823
0.0141937
0.0141436
0.0140832
0.0140525
0.0140305
0.0187652
0.0148907
0.0146011
0.0147508
0.0145673
0.0145987
0.0144578
0.0144291
0.0143128
0.01426
0.014167
0.0141156
0.0140523
0.014019
0.0139952
0.0175825
0.0148604
0.0146042
0.0147376
0.0145616
0.0145879
0.0144465
0.0144161
0.0142977
0.0142435
0.0141484
0.0140955
0.0140304
0.0139952
0.0139687
0.0177475
0.016565
0.0171933
0.0168179
0.0139499
0.0137511
0.0138701
0.013839
0.0176708
0.0160125
0.0138495
0.0137104
0.0135686
0.0136293
0.0135711
0.013576
0.0178259
0.0138712
0.0137486
0.01366
0.0136546
0.013734
0.0136809
0.0137191
0.0137037
0.013956
0.0137014
0.0136518
0.0135984
0.013649
0.0136028
0.0135528
0.0135473
0.013521
0.0135146
0.0139675
0.0135453
0.0137258
0.0136572
0.0136554
0.0136033
0.0135742
0.0135718
0.0135387
0.0135417
0.0135281
0.0178344
0.0137078
0.0137238
0.0136415
0.0136169
0.0135472
0.0135313
0.0134739
0.0134385
0.0134054
0.0133823
0.0133698
0.0176766
0.0138776
0.0136584
0.0136622
0.0136205
0.0135785
0.0135276
0.0134801
0.0134274
0.0133959
0.0133555
0.0133392
0.0133241
0.0160172
0.0137544
0.0136043
0.0136603
0.0135502
0.0135289
0.0134376
0.0133969
0.0133234
0.0132811
0.0132328
0.0132073
0.0131896
0.0171966
0.0138535
0.0136649
0.013654
0.0136071
0.0135333
0.0134811
0.0133972
0.0133404
0.0132657
0.013219
0.0131672
0.013141
0.0131221
0.0168205
0.0137133
0.0136579
0.0136052
0.0135766
0.0134752
0.013428
0.0133237
0.0132658
0.0131778
0.0131255
0.0130661
0.0130354
0.0130137
0.0139513
0.0135698
0.0137349
0.0135534
0.0135719
0.0134388
0.0133962
0.0132812
0.0132191
0.0131254
0.0130693
0.0130062
0.0129725
0.0129488
0.0137519
0.0136297
0.0136809
0.0135466
0.013538
0.0134052
0.0133555
0.0132328
0.0131672
0.0130661
0.0130061
0.0129373
0.0128999
0.012874
0.0177479
0.0138704
0.0135712
0.0137188
0.0135204
0.0135409
0.0133818
0.0133389
0.013207
0.0131408
0.0130351
0.0129723
0.0128996
0.01286
0.0128315
0.016565
0.0138389
0.0135757
0.0137034
0.0135143
0.0135276
0.0133692
0.0133236
0.0131893
0.0131219
0.0130135
0.0129486
0.0128739
0.0128315
0.0128011
0.0167391
0.0155564
0.0161835
0.015808
0.0129387
0.0127358
0.0128571
0.0128247
0.0166593
0.0149994
0.0128329
0.0126921
0.0125461
0.0126105
0.0125474
0.012554
0.0168122
0.0128534
0.0127259
0.0126384
0.0126275
0.0127115
0.0126517
0.0126901
0.0126724
0.0129431
0.01267
0.0126204
0.0125726
0.0126177
0.0125604
0.0125224
0.0125069
0.0124734
0.0124663
0.0129584
0.0125204
0.0126813
0.0126254
0.0126194
0.0125617
0.012524
0.0125207
0.0124808
0.0124804
0.0124647
0.0168229
0.0126874
0.0127252
0.0126073
0.0125779
0.0124983
0.012475
0.0124089
0.012369
0.0123297
0.0123036
0.0122893
0.0166667
0.012864
0.012638
0.012635
0.0125822
0.0125305
0.0124685
0.0124111
0.0123488
0.0123101
0.0122632
0.0122438
0.0122263
0.0150055
0.0127351
0.0125825
0.0126258
0.0125023
0.0124699
0.0123648
0.0123139
0.0122294
0.0121797
0.0121247
0.0120949
0.0120751
0.0161876
0.0128386
0.0126478
0.0126271
0.012568
0.012478
0.0124124
0.0123143
0.0122452
0.0121594
0.0121042
0.0120447
0.0120144
0.0119929
0.0158113
0.012696
0.012635
0.0125785
0.0125297
0.0124106
0.0123496
0.0122298
0.0121596
0.0120595
0.0119979
0.0119311
0.0118958
0.011872
0.0129405
0.0125476
0.01271
0.0125083
0.0125182
0.0123695
0.0123107
0.01218
0.0121043
0.0119978
0.0119318
0.0118606
0.0118225
0.0117968
0.0127368
0.0126108
0.0126502
0.0125017
0.0124784
0.0123293
0.0122633
0.0121249
0.0120448
0.0119311
0.0118604
0.0117832
0.0117406
0.011712
0.0167396
0.0128575
0.0125474
0.0126894
0.0124718
0.0124792
0.0123029
0.0122435
0.0120946
0.0120142
0.0118955
0.0118222
0.0117401
0.0116938
0.0116635
0.0155565
0.0128246
0.0125537
0.0126719
0.0124657
0.0124641
0.0122887
0.0122259
0.0120749
0.0119927
0.0118718
0.0117967
0.0117119
0.0116636
0.011633
0.0157413
0.0145586
0.0151839
0.0148075
0.0119352
0.0117276
0.0118517
0.0118173
0.0156578
0.0139957
0.0118247
0.0116801
0.011531
0.0115978
0.0115309
0.0115389
0.0158082
0.0118457
0.0117102
0.0116253
0.0116088
0.0116907
0.0116239
0.011664
0.0116437
0.0119711
0.0116572
0.011607
0.0115508
0.0115928
0.0115316
0.0114784
0.0114624
0.0114279
0.0114201
0.0119203
0.0114998
0.0116843
0.0116024
0.0115841
0.0115219
0.0114754
0.0114649
0.0114188
0.0114162
0.0113985
0.0158182
0.01166
0.011691
0.0115745
0.0115414
0.0114501
0.0114175
0.011341
0.0112954
0.011249
0.0112204
0.0112038
0.0156661
0.0118548
0.0116175
0.0116104
0.0115447
0.0114819
0.0114056
0.0113385
0.0112648
0.0112189
0.0111653
0.0111423
0.0111227
0.0140026
0.0117172
0.01156
0.0115913
0.0114542
0.0114071
0.0112878
0.0112253
0.0111292
0.0110722
0.0110098
0.0109766
0.0109546
0.0151885
0.0118309
0.0116346
0.0116011
0.0115277
0.0114209
0.0113401
0.0112257
0.0111441
0.0110463
0.0109823
0.0109162
0.0108812
0.0108569
0.0148113
0.0116843
0.0116144
0.0115378
0.0114794
0.0113432
0.011266
0.0111298
0.0110465
0.0109342
0.0108644
0.0107901
0.0107503
0.010724
0.0119372
0.011533
0.0116919
0.0114781
0.0114653
0.0112962
0.0112195
0.0110725
0.0109825
0.0108643
0.0107888
0.01071
0.0106674
0.0106396
0.0117289
0.0115988
0.0116238
0.0114613
0.0114181
0.011249
0.0111656
0.01101
0.0109164
0.0107901
0.0107096
0.0106242
0.0105787
0.0105494
0.0157419
0.0118522
0.0115311
0.0116636
0.0114271
0.0114154
0.0112199
0.0111421
0.0109764
0.0108811
0.01075
0.0106672
0.0105782
0.0105314
0.0105016
0.0145587
0.0118173
0.0115387
0.0116432
0.0114195
0.0113979
0.0112034
0.0111224
0.0109544
0.0108568
0.0107239
0.0106394
0.0105492
0.0105017
0.0104713
0.014756
0.0135731
0.0141953
0.0138176
0.0109406
0.0107265
0.0108541
0.0108168
0.0146662
0.0130016
0.0108247
0.0106734
0.0105233
0.0105921
0.0105228
0.0105319
0.0148104
0.0108434
0.0106987
0.0106158
0.0105939
0.0106738
0.0105978
0.0106388
0.0106147
0.0108879
0.0106314
0.0105985
0.0105301
0.0105706
0.0104957
0.0104406
0.0104181
0.0103821
0.0103724
0.0110123
0.0104946
0.0106706
0.010581
0.0105485
0.0104799
0.0104237
0.0104066
0.0103526
0.0103473
0.0103268
0.0148257
0.0106553
0.0106801
0.0105427
0.0105056
0.0103969
0.0103571
0.0102677
0.0102164
0.0101626
0.0101309
0.0101112
0.0146749
0.0108531
0.0106065
0.0105895
0.0105089
0.0104308
0.0103386
0.0102606
0.0101744
0.0101214
0.0100602
0.0100332
0.0100108
0.0130089
0.0107077
0.01054
0.0105564
0.0104012
0.0103401
0.0102044
0.0101304
0.0100221
0.00995774
0.00988794
0.0098518
0.00982741
0.0142002
0.0108306
0.0106234
0.0105784
0.0104859
0.0103607
0.0102622
0.0101307
0.0100363
0.0099262
0.00985432
0.00978117
0.00974312
0.00971691
0.0138216
0.0106775
0.0105986
0.0105002
0.0104273
0.0102702
0.0101759
0.0100228
0.00992656
0.00980281
0.00972512
0.0096447
0.00960192
0.00957275
0.0109428
0.0105253
0.010676
0.0104423
0.0104081
0.0102176
0.0101222
0.00995808
0.00985458
0.00972496
0.00964082
0.00955689
0.00951233
0.00948328
0.010728
0.0105936
0.0105987
0.0104186
0.0103531
0.010163
0.0100607
0.00988825
0.00978143
0.00964468
0.00955653
0.00947019
0.00942527
0.00939661
0.0147566
0.0108546
0.0105232
0.0106389
0.0103819
0.0103471
0.0101307
0.0100331
0.00985167
0.00974305
0.00960165
0.00951202
0.00942497
0.00938088
0.00935168
0.0135732
0.0108168
0.0105319
0.0106144
0.010372
0.0103265
0.0101109
0.0100107
0.0098273
0.00971688
0.00957265
0.00948316
0.0093965
0.00935176
0.00932376
0.0137843
0.0126009
0.0132193
0.0128389
0.00995515
0.00973199
0.00986438
0.00982324
0.0136856
0.0120181
0.00983236
0.00966971
0.00952288
0.00959115
0.00952169
0.00953035
0.0138287
0.0098422
0.00968961
0.00960785
0.0095812
0.00965825
0.00957247
0.0096129
0.00958542
0.0100139
0.00965001
0.00957487
0.00950202
0.00954913
0.00945487
0.00940252
0.00936976
0.0093333
0.00932082
0.00987568
0.00949275
0.00966791
0.00955825
0.00950884
0.00943384
0.00936642
0.00934239
0.00928033
0.00927244
0.00924898
0.0138342
0.00960594
0.00965932
0.00951071
0.0094655
0.00933748
0.00929048
0.00918598
0.00913029
0.00906803
0.0090337
0.00901115
0.0136939
0.00985908
0.00961977
0.00957162
0.00946797
0.00937499
0.00926451
0.00917499
0.009076
0.009016
0.00894691
0.00891685
0.00889147
0.0120253
0.00970228
0.0095235
0.00952074
0.00934197
0.00926583
0.00911199
0.00902728
0.00890668
0.00883591
0.00875985
0.00872065
0.00869408
0.0132241
0.00983816
0.0096158
0.00955815
0.00944052
0.00929407
0.00917651
0.00902754
0.00892089
0.00879935
0.00872177
0.00864234
0.00860221
0.00857435
0.0128429
0.00967365
0.00958562
0.00945896
0.00936997
0.0091885
0.00907749
0.00890734
0.00879978
0.00866631
0.00858291
0.00849859
0.00845564
0.00842766
0.00995739
0.00952533
0.00966067
0.00940463
0.00934412
0.00913157
0.00901687
0.00883623
0.00872201
0.00858241
0.00849611
0.00841296
0.00837134
0.00834452
0.00973352
0.00959272
0.0095738
0.00937081
0.00928122
0.00906875
0.00894752
0.00876022
0.00864269
0.00849852
0.008413
0.00833056
0.00828965
0.00826382
0.013785
0.00986498
0.00952224
0.00961325
0.0093334
0.00927249
0.00903368
0.00891686
0.00872055
0.00860217
0.00845538
0.00837116
0.00828942
0.00825013
0.00822442
0.012601
0.0098232
0.00953027
0.00958526
0.00932058
0.00924879
0.009011
0.00889143
0.00869404
0.0085744
0.0084276
0.00834451
0.00826375
0.00822449
0.0081998
0.0128273
0.011644
0.0122559
0.0118713
0.00897627
0.00874374
0.00888149
0.00883555
0.0127151
0.0110438
0.00884513
0.00866468
0.00853119
0.00859162
0.00852409
0.0085314
0.0128479
0.00885031
0.00868416
0.00860158
0.00856783
0.0086389
0.00854515
0.00858431
0.00855314
0.00886271
0.00860325
0.00858383
0.00848242
0.00852402
0.00840826
0.00835742
0.0083133
0.00827749
0.00826158
0.00905402
0.00850014
0.00865003
0.00853717
0.00846683
0.00838124
0.00829968
0.00826886
0.00819886
0.00818853
0.00816221
0.0128589
0.00862286
0.00865889
0.00846807
0.00841682
0.00826804
0.00821367
0.00809317
0.00803412
0.00796293
0.00792782
0.00790291
0.0127224
0.00885862
0.00859391
0.00854459
0.00841928
0.0083101
0.00817946
0.00807923
0.00796758
0.00790171
0.00782655
0.00779503
0.00776776
0.0110502
0.00869201
0.00849148
0.00847348
0.00827142
0.00818059
0.00800804
0.00791457
0.00778276
0.00770859
0.00762767
0.00758821
0.00755961
0.0122603
0.00885002
0.00860754
0.00853028
0.00838606
0.00821643
0.00808047
0.00791468
0.00779834
0.00766815
0.00758669
0.00750562
0.00746685
0.00743944
0.011875
0.00866823
0.00857177
0.00841217
0.00830289
0.00809541
0.00796896
0.00778339
0.00766858
0.00752893
0.00744795
0.0073682
0.00732983
0.00730376
0.00897846
0.00853366
0.0086413
0.00835949
0.0082706
0.00803539
0.00790257
0.00770891
0.00758693
0.00744769
0.0073686
0.00729226
0.00725637
0.00723166
0.00874534
0.00859333
0.00854665
0.00831455
0.00819995
0.00796379
0.00782725
0.0076281
0.00750598
0.0073682
0.00729235
0.00721804
0.00718398
0.00716079
0.012828
0.00888206
0.00852469
0.00858479
0.00827778
0.00818875
0.00792793
0.00779513
0.00758817
0.00746685
0.00732963
0.00725625
0.00718379
0.00715103
0.0071284
0.011644
0.00883548
0.0085313
0.00855305
0.00826147
0.00816216
0.00790288
0.00776783
0.00755965
0.00743955
0.00730375
0.00723171
0.00716076
0.00712849
0.00710769
0.0118862
0.0107036
0.0113045
0.0109129
0.00799787
0.00775834
0.00790029
0.0078494
0.0117526
0.0100755
0.00785542
0.00764606
0.00754341
0.00758457
0.00752313
0.00752674
0.0118772
0.00784743
0.0076692
0.0075875
0.00754415
0.00760764
0.0075076
0.00754529
0.00751034
0.00804459
0.00759343
0.00756991
0.00744528
0.00748028
0.00734506
0.00729595
0.00723981
0.00720595
0.00718608
0.00785385
0.00749474
0.00763768
0.0075001
0.00740646
0.00731145
0.00721486
0.0071788
0.00710105
0.00708893
0.00705986
0.0118809
0.00757735
0.00762635
0.00740612
0.00735232
0.0071788
0.00711867
0.0069825
0.00692178
0.00684253
0.00680815
0.00678038
0.0117581
0.00785157
0.00757406
0.00750009
0.0073522
0.00722693
0.00707655
0.006968
0.0068448
0.00677608
0.0066968
0.0066649
0.00663621
0.0100804
0.007674
0.00745049
0.00740987
0.00718058
0.00707726
0.00688728
0.00678891
0.00664909
0.00657534
0.00649276
0.00645771
0.006431
0.0113083
0.00785914
0.00759161
0.00748444
0.0073147
0.00712049
0.00696884
0.00678881
0.00666704
0.006535
0.00645946
0.00638504
0.00635277
0.00632894
0.0109162
0.00764885
0.00754737
0.00734828
0.00721751
0.00698439
0.00684603
0.00664973
0.00653547
0.006402
0.00633369
0.00626288
0.00623282
0.00621047
0.00799997
0.00754606
0.0076099
0.00729787
0.0071804
0.00692294
0.00677689
0.00657565
0.00645968
0.00633355
0.00626812
0.00620279
0.00617508
0.00615468
0.00775993
0.00758631
0.00750913
0.00724113
0.00710224
0.00684348
0.00669757
0.00649324
0.00638543
0.00626295
0.00620291
0.00614079
0.00611473
0.00609604
0.0118869
0.00790085
0.00752372
0.00754581
0.00720633
0.00708925
0.00680835
0.00666507
0.00645772
0.00635278
0.00623266
0.00617499
0.00611458
0.0060906
0.00607178
0.0107036
0.00784937
0.00752671
0.00751034
0.00718608
0.00705994
0.00678048
0.00663638
0.00643112
0.00632909
0.00621051
0.00615478
0.00609607
0.00607188
0.00605576
0.0109671
0.00978437
0.0103672
0.00996544
0.00701624
0.00677159
0.00692024
0.00686161
0.0107973
0.00910877
0.00685924
0.00661949
0.00653872
0.0065618
0.00651417
0.00651403
0.0109003
0.00682317
0.00663635
0.00655452
0.00650714
0.00656192
0.00645645
0.00649556
0.00645684
0.00686355
0.00652922
0.00654169
0.00638859
0.0064191
0.00625938
0.00621619
0.00614643
0.00611753
0.00609392
0.00704093
0.00649525
0.00658823
0.00644018
0.00632427
0.00622228
0.00611073
0.00607269
0.00598856
0.00597845
0.00594744
0.010908
0.00655026
0.00659864
0.00632222
0.00626759
0.00606833
0.00600722
0.00585607
0.00579859
0.00571388
0.00568298
0.00565332
0.0108012
0.00682421
0.00653785
0.00644165
0.00626792
0.00612682
0.00595798
0.00584633
0.00571505
0.00564905
0.00557038
0.00554496
0.00551839
0.00911243
0.00663871
0.0063894
0.00632565
0.00606954
0.00595854
0.00575567
0.00566016
0.00552151
0.0054611
0.00538827
0.00536198
0.00533869
0.0103704
0.00686224
0.00655741
0.00642162
0.00622427
0.00600835
0.00584693
0.00566013
0.00554777
0.00542796
0.00536994
0.00530737
0.0052846
0.00526459
0.00996835
0.0066223
0.00650997
0.00626206
0.00611291
0.00585766
0.00571615
0.00552213
0.00542838
0.00531439
0.0052656
0.00520869
0.0051885
0.00517046
0.0070181
0.00654078
0.00656388
0.00621791
0.00607413
0.00579962
0.0056498
0.00546142
0.00537015
0.00526549
0.00522039
0.00516886
0.00515053
0.00513428
0.0067731
0.00656339
0.00645792
0.00614776
0.00598978
0.00571487
0.00557119
0.00538877
0.00530775
0.0052088
0.00516901
0.00512083
0.0051039
0.00508914
0.0109678
0.00692082
0.00651477
0.0064961
0.00611797
0.00597884
0.00568323
0.00554515
0.005362
0.0052846
0.00518835
0.00515046
0.00510376
0.00508825
0.00507421
0.00978449
0.00686169
0.00651409
0.00645695
0.00609405
0.00594765
0.00565352
0.00551863
0.00533886
0.00526479
0.00517054
0.00513441
0.00508917
0.00507431
0.00506276
0.0100684
0.00888145
0.00943017
0.00901766
0.00600557
0.00576591
0.00592607
0.00585187
0.00983339
0.00811891
0.00581699
0.00554446
0.00551465
0.00552072
0.00548765
0.00548215
0.00990263
0.00573436
0.00554508
0.0054906
0.00544956
0.00551201
0.00540152
0.0054471
0.00540225
0.00596037
0.00544043
0.00547181
0.00529917
0.00534324
0.00515675
0.00513151
0.00504776
0.00502822
0.0050007
0.00585876
0.0054514
0.00553113
0.00536389
0.00522221
0.00512635
0.00500481
0.00497495
0.00488697
0.004883
0.00485019
0.00990164
0.00542709
0.00552504
0.00520548
0.00517094
0.00494962
0.00490098
0.00473715
0.00469074
0.00460517
0.00458647
0.00456068
0.0098361
0.00573508
0.00547293
0.00536274
0.00516955
0.0050263
0.00484537
0.00474178
0.00461349
0.00456568
0.00449675
0.00448435
0.00446264
0.00812194
0.00554783
0.00530181
0.00522364
0.00495039
0.00484579
0.00464148
0.00456813
0.00444529
0.00440671
0.00434579
0.00433249
0.00431406
0.00943314
0.00581972
0.00549336
0.00534572
0.00512819
0.00490176
0.00474231
0.00456812
0.00448277
0.00438318
0.00434657
0.00429732
0.00428616
0.00427103
0.00902038
0.00554719
0.0054523
0.00515928
0.0050069
0.00473866
0.00461456
0.00444587
0.00438361
0.00429401
0.00426659
0.00422356
0.00421405
0.00420089
0.00600727
0.00551658
0.00551382
0.00513312
0.00497635
0.00469171
0.00456642
0.00440703
0.00434679
0.00426649
0.00424123
0.00420384
0.0041956
0.0041839
0.00576743
0.00552227
0.005403
0.0050491
0.00488825
0.00460618
0.00449758
0.0043463
0.00429772
0.0042237
0.00420401
0.00416979
0.00416334
0.00415323
0.0100692
0.00592669
0.0054883
0.00544769
0.00502871
0.00488345
0.00458675
0.00448457
0.00433252
0.00428617
0.00421393
0.00419554
0.00416321
0.00415705
0.00414702
0.0088817
0.00585212
0.00548236
0.00540251
0.00500097
0.00485052
0.00456097
0.00446295
0.00431427
0.00427126
0.00420101
0.00418405
0.00415327
0.00414712
0.00413973
0.00915351
0.00797078
0.00849805
0.00800735
0.00482855
0.00454343
0.00473653
0.00463453
0.00886094
0.00701814
0.00457147
0.00419656
0.00420361
0.00419755
0.0041927
0.00418827
0.00878623
0.00442673
0.00417563
0.00413254
0.00409452
0.00418032
0.004065
0.00413265
0.00408549
0.0048184
0.00407653
0.00413633
0.00392381
0.00398849
0.00375948
0.00376181
0.0036674
0.00366548
0.00363823
0.00471868
0.00416793
0.00422564
0.00402706
0.00384331
0.00375478
0.00361829
0.00360418
0.00352209
0.00353988
0.00351516
0.00877472
0.00406384
0.00421948
0.00381612
0.00381315
0.00356465
0.00353842
0.00337418
0.00336079
0.00328828
0.00328975
0.00327068
0.00886384
0.00442862
0.00413863
0.00402602
0.0038112
0.00367152
0.00348903
0.00341647
0.00330855
0.00329012
0.00323917
0.00324307
0.00322838
0.00702144
0.00417931
0.00392745
0.00384521
0.00356551
0.00348914
0.00331347
0.00328319
0.00318743
0.00318015
0.00313671
0.00313815
0.00312565
0.00850102
0.00457426
0.00413556
0.00399121
0.00375673
0.00353903
0.0034169
0.00328315
0.00324
0.00317124
0.00316137
0.00312939
0.00313034
0.00312091
0.00801001
0.00419936
0.00409737
0.00376202
0.0036204
0.00337565
0.00330956
0.00318798
0.00317165
0.00311294
0.00311166
0.00308514
0.00308699
0.0030788
0.00483016
0.00420546
0.00418207
0.00376336
0.00360566
0.00336171
0.00329084
0.00318044
0.00316159
0.00311158
0.00310946
0.00308752
0.003089
0.00308252
0.00454499
0.00419912
0.00406651
0.00366876
0.0035234
0.00328929
0.00323999
0.00313721
0.0031298
0.0030853
0.0030877
0.00306879
0.00307122
0.00306585
0.00915432
0.00473722
0.00419341
0.00413328
0.00366601
0.00354036
0.00329003
0.00324329
0.00313819
0.00313037
0.0030869
0.00308896
0.00307109
0.0030738
0.00306833
0.0079712
0.004635
0.00418865
0.0040859
0.00363861
0.00351557
0.00327102
0.00322872
0.00312588
0.00312115
0.00307893
0.00308267
0.00306591
0.00306843
0.00306469
0.00874815
0.00744505
0.00797199
0.00734616
0.00452353
0.00436108
0.00457001
0.00440432
0.00827338
0.0061362
0.00415808
0.00374979
0.00399074
0.0038729
0.00385168
0.00380836
0.00786494
0.00388761
0.00363366
0.00382567
0.00378149
0.00397955
0.00385014
0.00394339
0.00387932
0.0042366
0.00339653
0.00377493
0.0035227
0.00372339
0.00343294
0.00349788
0.00337808
0.00340618
0.00338285
0.00433726
0.00377643
0.00385419
0.00373598
0.00351403
0.00349385
0.00336501
0.00341669
0.00335552
0.00340906
0.00339412
0.00787491
0.00341637
0.00386027
0.0034025
0.00352313
0.00327915
0.00334306
0.00320458
0.0032483
0.00319554
0.00322663
0.00321686
0.0082787
0.00389285
0.00377987
0.00373776
0.00351941
0.00344865
0.00330603
0.00330563
0.00323605
0.00326705
0.00324153
0.00327005
0.0032643
0.00614059
0.00363888
0.00352749
0.00351719
0.00328028
0.00330742
0.00319563
0.00323963
0.00318737
0.00322252
0.00320265
0.0032237
0.00321912
0.00797516
0.00416114
0.00382911
0.00372656
0.00349616
0.00334374
0.00330641
0.00323952
0.00325989
0.00323215
0.00325817
0.00324834
0.00326554
0.00326292
0.00734889
0.00375283
0.00378461
0.00343616
0.0033675
0.00320626
0.00323736
0.00318797
0.0032326
0.0032154
0.00324653
0.00324067
0.00325681
0.00325504
0.00452508