/*--------------------------------*- C++ -*----------------------------------*\
| =========                 |                                                 |
| \\      /  F ield         | OpenFOAM: The Open Source CFD Toolbox           |
|  \\    /   O peration     | Version:  2.1.1                                 |
|   \\  /    A nd           | Web:      www.OpenFOAM.org                      |
|    \\/     M anipulation  |                                                 |
\*---------------------------------------------------------------------------*/
FoamFile
{
    version     2.0;
    format      ascii;
    class       surfaceScalarField;
    location    "0.003";
    object      phi;
}
// * * * * * * * * * * * * * * * * * * * * * * * * * * * * * * * * * * * * * //

dimensions      [0 3 -1 0 0 0 0];

internalField   nonuniform List<scalar> 
29182
(
-1.96559e-12
2.03674e-12
-1.30508e-11
3.31996e-11
-2.02199e-11
-1.40988e-12
5.95759e-13
-1.43582e-11
5.47448e-11
-3.95725e-11
8.46485e-13
-7.99587e-12
2.14215e-11
-1.42721e-11
2.54854e-12
-1.24031e-11
-1.0042e-11
6.51448e-11
-4.52481e-11
-9.02107e-13
-2.48086e-13
7.62064e-10
4.83478e-11
4.27235e-11
-4.824e-11
-4.23843e-11
5.78601e-11
4.4526e-11
-5.6702e-11
-4.49296e-11
-7.62115e-10
-7.18846e-15
-2.62016e-13
9.74483e-10
4.01222e-11
5.74742e-11
-4.07754e-11
-5.74094e-11
-9.74529e-10
-1.95273e-13
-2.25613e-14
8.78288e-10
6.60433e-11
6.46814e-11
-6.5943e-11
-6.45214e-11
-8.78339e-10
-1.34185e-13
8.72419e-10
6.28042e-11
6.20181e-11
-6.28061e-11
-6.20191e-11
-8.72473e-10
3.10717e-12
-1.08374e-11
2.16892e-11
-1.39589e-11
2.91628e-12
1.87258e-12
-1.4034e-11
-1.26922e-11
9.27844e-11
-7.0847e-11
-7.78416e-13
-1.82636e-13
7.2233e-10
6.16528e-11
5.7974e-11
-6.09037e-11
-5.75246e-11
6.50617e-11
4.47594e-11
-6.46796e-11
-4.53159e-11
-7.22393e-10
2.08681e-12
-1.33493e-12
9.01887e-10
5.50697e-11
4.6613e-11
-5.52209e-11
-4.79527e-11
-9.01928e-10
8.83087e-13
9.75279e-13
1.16271e-09
-1.16274e-09
6.40591e-13
1.72559e-14
1.18611e-09
-1.18614e-09
2.99304e-13
3.28147e-13
1.13909e-09
-1.1391e-09
1.80329e-13
1.12542e-09
-1.12542e-09
-2.64321e-12
-6.04918e-12
-1.01664e-11
4.95371e-11
-3.06783e-11
-1.77674e-12
-1.78116e-13
7.47163e-10
6.2863e-11
5.84842e-11
-6.19397e-11
-5.79536e-11
5.84404e-11
4.38602e-11
-5.72653e-11
-4.44741e-11
-7.47223e-10
7.20656e-13
-1.35577e-12
8.82447e-10
5.89515e-11
4.70185e-11
-5.89388e-11
-4.81719e-11
-8.82449e-10
-4.68635e-13
1.04279e-12
1.13194e-09
-1.13198e-09
-1.90352e-12
1.20574e-13
1.15647e-09
-1.15649e-09
-7.41794e-13
-1.49387e-13
1.16919e-09
-1.16923e-09
-6.09534e-13
-1.14117e-13
1.15414e-09
-1.15414e-09
-2.41729e-13
-7.72932e-15
1.13672e-09
-1.13675e-09
-4.50033e-14
1.12872e-09
-1.12873e-09
-1.23265e-12
9.67957e-13
7.20627e-10
5.06236e-11
5.68298e-11
-5.08524e-11
-5.63467e-11
4.33176e-11
3.37422e-11
-4.2337e-11
-3.46883e-11
-7.20651e-10
1.78667e-12
-1.77183e-12
8.81863e-10
5.28516e-11
4.52675e-11
-5.30344e-11
-4.6303e-11
-8.81894e-10
4.09746e-13
1.22402e-12
1.13661e-09
-1.13664e-09
-9.36281e-13
2.95294e-14
1.14622e-09
-1.14627e-09
1.54948e-13
-3.70843e-14
1.15487e-09
-1.15489e-09
6.55451e-13
-3.6566e-13
1.14679e-09
-1.14681e-09
4.26173e-13
8.86681e-14
1.1441e-09
-1.14411e-09
2.95041e-13
1.26234e-14
1.14029e-09
-1.14028e-09
1.52824e-13
1.25256e-13
1.1347e-09
-1.13469e-09
9.91953e-14
1.13043e-09
-1.13042e-09
9.73429e-13
-1.22999e-12
7.19777e-10
4.33166e-11
3.38735e-11
-4.23706e-11
-3.48267e-11
5.05893e-11
5.68235e-11
-5.0812e-11
-5.63354e-11
-7.19779e-10
1.00009e-12
9.98108e-13
1.1231e-09
-1.12316e-09
-1.31292e-12
5.6266e-13
1.13188e-09
-1.1319e-09
5.20827e-14
-1.08192e-13
1.14399e-09
-1.14402e-09
2.0781e-13
-1.34037e-13
1.13629e-09
-1.13628e-09
8.79863e-14
1.02627e-13
1.13448e-09
-1.1345e-09
-3.45559e-13
6.03264e-14
1.13675e-09
-1.13674e-09
-2.64296e-13
2.27197e-15
1.13942e-09
-1.13942e-09
-2.53222e-13
-1.44046e-14
1.13959e-09
-1.13957e-09
-1.2325e-13
-1.57881e-14
1.1374e-09
-1.13739e-09
-3.25099e-14
1.13544e-09
-1.13543e-09
-2.65371e-12
-1.01727e-11
-6.03561e-12
4.95211e-11
-3.06591e-11
-1.77178e-12
1.78695e-12
8.81128e-10
5.28538e-11
4.52888e-11
-5.30363e-11
-4.63244e-11
-8.81156e-10
5.61285e-13
-1.31574e-12
1.13173e-09
-1.13175e-09
5.69321e-13
5.70227e-13
1.1268e-09
-1.12681e-09
4.57682e-13
1.42144e-15
1.12358e-09
-1.12359e-09
1.40243e-13
1.96014e-13
1.12772e-09
-1.12773e-09
2.0521e-13
1.62416e-14
1.13232e-09
-1.1323e-09
2.38337e-13
9.84377e-15
1.13655e-09
-1.13653e-09
1.88208e-13
2.57975e-14
1.13916e-09
-1.13914e-09
1.39051e-13
7.876e-15
1.13984e-09
-1.13981e-09
7.13557e-14
2.25249e-14
1.13913e-09
-1.1391e-09
1.43647e-14
1.13851e-09
-1.13848e-09
-1.08399e-11
3.10873e-12
2.16898e-11
-1.39586e-11
-1.77155e-13
-1.77874e-12
7.4696e-10
5.84236e-11
4.38407e-11
-5.72487e-11
-4.44553e-11
6.28664e-11
5.8492e-11
-6.19426e-11
-5.79607e-11
-7.4702e-10
1.22532e-12
4.09945e-13
1.13617e-09
-1.1362e-09
-1.08614e-13
5.12895e-14
1.14368e-09
-1.14372e-09
1.56523e-15
4.58302e-13
1.12376e-09
-1.12376e-09
-1.20852e-15
-1.25651e-15
1.12497e-09
-1.12496e-09
3.80739e-14
1.39056e-13
1.1299e-09
-1.12988e-09
1.33982e-15
3.61201e-14
1.13392e-09
-1.1339e-09
-7.20825e-14
6.09433e-14
1.13706e-09
-1.13704e-09
-6.20172e-14
-6.69095e-15
1.13919e-09
-1.13916e-09
-7.08741e-14
-8.49612e-15
1.14016e-09
-1.14014e-09
-3.87936e-14
-3.40513e-14
1.14025e-09
-1.14023e-09
-4.16005e-14
1.14028e-09
-1.14026e-09
1.87093e-12
2.91709e-12
-1.26943e-11
-1.40328e-11
9.27858e-11
-7.08467e-11
-1.35627e-12
7.20403e-13
8.82286e-10
5.89574e-11
4.70257e-11
-5.89443e-11
-4.81794e-11
-8.8229e-10
2.91614e-14
-9.36249e-13
1.14596e-09
-1.146e-09
-1.35083e-13
2.07429e-13
1.13608e-09
-1.13608e-09
1.95481e-13
1.40279e-13
1.12768e-09
-1.12769e-09
1.38297e-13
3.7988e-14
1.13e-09
-1.12998e-09
1.25719e-13
1.26116e-13
1.13313e-09
-1.13311e-09
1.28842e-13
4.42531e-15
1.13573e-09
-1.1357e-09
1.19325e-13
3.54206e-14
1.13804e-09
-1.13801e-09
9.50869e-14
-1.75335e-14
1.13986e-09
-1.13983e-09
6.48299e-14
-1.31053e-14
1.14095e-09
-1.14091e-09
3.00949e-14
-3.14686e-14
1.14139e-09
-1.14136e-09
-3.50055e-14
1.14166e-09
-1.14163e-09
-7.99611e-12
8.46565e-13
2.14215e-11
-1.42719e-11
-1.82684e-13
-7.78005e-13
7.22309e-10
6.50591e-11
4.47538e-11
-6.46773e-11
-4.53103e-11
6.16536e-11
5.79756e-11
-6.09043e-11
-5.75262e-11
-7.22373e-10
1.04253e-12
-4.68824e-13
1.13184e-09
-1.13187e-09
-3.70453e-14
1.54927e-13
1.15472e-09
-1.15473e-09
1.02409e-13
8.78135e-14
1.13433e-09
-1.13435e-09
1.61538e-14
2.05236e-13
1.13226e-09
-1.13223e-09
3.59391e-14
1.36054e-15
1.1339e-09
-1.13388e-09
4.29529e-15
1.29309e-13
1.13574e-09
-1.13571e-09
-8.71772e-15
-8.39485e-15
1.1376e-09
-1.13758e-09
-3.98828e-14
3.69252e-14
1.13932e-09
-1.1393e-09
-3.91976e-14
-3.85996e-14
1.14077e-09
-1.14075e-09
-4.2895e-14
-2.85124e-14
1.14187e-09
-1.14185e-09
-2.61346e-14
-6.18914e-14
1.14243e-09
-1.14242e-09
-6.29912e-14
1.14277e-09
-1.14276e-09
2.54837e-12
-1.00425e-11
-1.24027e-11
6.51448e-11
-4.52479e-11
-1.33494e-12
2.08716e-12
9.01858e-10
5.5071e-11
4.66148e-11
-5.5222e-11
-4.79544e-11
-9.01899e-10
1.20558e-13
-1.90356e-12
1.1564e-09
-1.15643e-09
-3.65958e-13
6.55774e-13
1.14672e-09
-1.14673e-09
5.99029e-14
-3.45575e-13
1.13668e-09
-1.13667e-09
9.27871e-15
2.38584e-13
1.13649e-09
-1.13648e-09
6.03581e-14
-7.18947e-14
1.13703e-09
-1.137e-09
3.50394e-14
1.19839e-13
1.13802e-09
-1.13799e-09
3.64544e-14
-3.93987e-14
1.13932e-09
-1.13929e-09
2.15588e-14
2.20691e-14
1.14073e-09
-1.14071e-09
1.36845e-14
-5.00256e-14
1.14192e-09
-1.1419e-09
2.55479e-15
-3.47607e-14
1.14294e-09
-1.14293e-09
-4.43707e-15
-6.37335e-14
1.14356e-09
-1.14355e-09
-6.19009e-14
1.14391e-09
-1.1439e-09
-2.48139e-13
-9.01998e-13
7.62061e-10
5.78595e-11
4.45245e-11
-5.67014e-11
-4.49282e-11
4.8348e-11
4.27236e-11
-4.824e-11
-4.23845e-11
-7.62112e-10
9.75235e-13
8.83416e-13
1.16269e-09
-1.16272e-09
-1.49616e-13
-7.41635e-13
1.16917e-09
-1.1692e-09
8.8384e-14
4.26571e-13
1.14405e-09
-1.14406e-09
1.89583e-15
-2.64039e-13
1.13937e-09
-1.13936e-09
2.54998e-14
1.88711e-13
1.13912e-09
-1.13909e-09
-6.95823e-15
-6.16123e-14
1.13916e-09
-1.13913e-09
-1.76944e-14
9.57235e-14
1.13984e-09
-1.13981e-09
-3.88807e-14
-3.85875e-14
1.14077e-09
-1.14075e-09
-5.04061e-14
1.43399e-14
1.14199e-09
-1.14197e-09
-5.25457e-14
-5.21947e-14
1.1431e-09
-1.14311e-09
-4.7276e-14
-3.84128e-14
1.14399e-09
-1.14399e-09
-3.15331e-14
-6.74184e-14
1.14465e-09
-1.14466e-09
-6.51263e-14
1.145e-09
-1.14501e-09
-2.62004e-13
-7.03433e-15
9.74475e-10
4.01224e-11
5.74746e-11
-4.07756e-11
-5.74099e-11
-9.74521e-10
1.71667e-14
6.40941e-13
1.18609e-09
-1.18613e-09
-1.14416e-13
-6.09208e-13
1.1541e-09
-1.1541e-09
1.22898e-14
2.95553e-13
1.14023e-09
-1.14023e-09
-1.47936e-14
-2.52763e-13
1.13954e-09
-1.13953e-09
7.53875e-15
1.39806e-13
1.1398e-09
-1.13978e-09
-8.87945e-15
-7.03225e-14
1.14013e-09
-1.14011e-09
-1.34759e-14
6.56052e-14
1.14093e-09
-1.14089e-09
-2.89515e-14
-4.2201e-14
1.14185e-09
-1.14183e-09
-3.52256e-14
3.36035e-15
1.14295e-09
-1.14294e-09
-3.88072e-14
-4.65277e-14
1.14408e-09
-1.14409e-09
-3.50509e-14
-3.44341e-14
1.14505e-09
-1.14506e-09
-2.55162e-14
-5.52449e-14
1.14574e-09
-1.14577e-09
-5.27604e-14
1.14616e-09
-1.14619e-09
-1.96565e-12
-1.30509e-11
2.03683e-12
3.31996e-11
-2.02199e-11
-2.2464e-14
-1.95123e-13
8.78282e-10
6.60436e-11
6.46816e-11
-6.59434e-11
-6.45216e-11
-8.78333e-10
3.28169e-13
2.99617e-13
1.13907e-09
-1.13908e-09
-7.89534e-15
-2.41352e-13
1.13669e-09
-1.13673e-09
1.25135e-13
1.53325e-13
1.13467e-09
-1.13466e-09
-1.59542e-14
-1.22794e-13
1.13737e-09
-1.13736e-09
2.23792e-14
7.19656e-14
1.13911e-09
-1.13908e-09
-3.4261e-14
-3.82059e-14
1.14023e-09
-1.14021e-09
-3.1714e-14
3.08325e-14
1.14138e-09
-1.14134e-09
-6.21431e-14
-2.53661e-14
1.14242e-09
-1.14241e-09
-6.39964e-14
-3.37711e-15
1.14356e-09
-1.14356e-09
-6.77178e-14
-3.05547e-14
1.14469e-09
-1.14471e-09
-5.58921e-14
-2.44559e-14
1.14584e-09
-1.14587e-09
-3.67688e-14
-3.53417e-14
1.14674e-09
-1.14678e-09
-3.39297e-14
1.14729e-09
-1.14733e-09
-1.40991e-12
-1.43582e-11
5.95823e-13
5.47447e-11
-3.95724e-11
-1.34298e-13
8.72415e-10
6.28042e-11
6.2018e-11
-6.28061e-11
-6.20189e-11
-8.72469e-10
1.80117e-13
1.12541e-09
-1.12542e-09
-4.49993e-14
1.12871e-09
-1.12872e-09
9.9135e-14
1.13042e-09
-1.1304e-09
-3.26882e-14
1.13543e-09
-1.13541e-09
1.41309e-14
1.1385e-09
-1.13847e-09
-4.18739e-14
1.14027e-09
-1.14025e-09
-3.52083e-14
1.14166e-09
-1.14162e-09
-6.31242e-14
1.14277e-09
-1.14276e-09
-6.19982e-14
1.14391e-09
-1.14391e-09
-6.53468e-14
1.14501e-09
-1.14503e-09
-5.34416e-14
1.14618e-09
-1.14621e-09
-3.45806e-14
1.14731e-09
-1.14735e-09
1.1482e-09
-1.14824e-09
-2.02218e-11
-1.96572e-12
2.03711e-12
-1.30541e-11
3.32045e-11
-3.95756e-11
-1.40992e-12
5.95845e-13
-1.43618e-11
5.47515e-11
-1.42738e-11
8.46777e-13
-7.99817e-12
2.14252e-11
-4.52515e-11
2.54887e-12
-1.24044e-11
-1.00462e-11
6.51533e-11
-9.0397e-13
-2.43199e-13
7.62014e-10
4.83576e-11
4.27312e-11
-4.82487e-11
-4.23935e-11
5.78678e-11
4.45361e-11
-5.67177e-11
-4.49378e-11
-6.90518e-15
-2.65681e-13
9.74436e-10
4.01319e-11
5.74848e-11
-4.07819e-11
-5.74221e-11
-1.96987e-13
-2.53384e-14
8.78242e-10
6.6056e-11
6.46949e-11
-6.59567e-11
-6.45337e-11
-1.32571e-13
8.72357e-10
6.28173e-11
6.20313e-11
-6.28177e-11
-6.20307e-11
-1.39607e-11
3.1075e-12
-1.08396e-11
2.16928e-11
-7.08528e-11
2.91708e-12
1.87294e-12
-1.40376e-11
-1.26961e-11
9.27964e-11
-7.70724e-13
-2.26574e-13
7.22295e-10
6.16629e-11
5.7985e-11
-6.09163e-11
-5.75358e-11
6.50747e-11
4.47728e-11
-6.46926e-11
-4.53194e-11
2.09425e-12
-1.35078e-12
9.01847e-10
5.50827e-11
4.66234e-11
-5.52274e-11
-4.79578e-11
8.8943e-13
9.54524e-13
1.16272e-09
6.44824e-13
7.90251e-15
1.18608e-09
2.95868e-13
3.37046e-13
1.13907e-09
1.57085e-13
1.12543e-09
-3.06808e-11
-2.64291e-12
-6.05087e-12
-1.01693e-11
4.95438e-11
-1.84893e-12
-1.48329e-13
7.47126e-10
6.28754e-11
5.84998e-11
-6.19514e-11
-5.79611e-11
5.84518e-11
4.38728e-11
-5.7276e-11
-4.44783e-11
7.21854e-13
-1.40557e-12
8.82418e-10
5.89617e-11
4.70281e-11
-5.89512e-11
-4.81782e-11
-4.89723e-13
1.03952e-12
1.13188e-09
-1.93955e-12
1.18048e-13
1.15645e-09
-7.71219e-13
-1.72075e-13
1.16915e-09
-6.26914e-13
-1.49153e-13
1.15415e-09
-2.55432e-13
-3.69003e-14
1.13672e-09
-8.87061e-14
1.12872e-09
-1.22064e-12
9.77236e-13
7.20612e-10
5.06347e-11
5.68411e-11
-5.08605e-11
-5.63565e-11
4.3313e-11
3.37403e-11
-4.2356e-11
-3.4699e-11
1.79792e-12
-1.79005e-12
8.8184e-10
5.28622e-11
4.52799e-11
-5.3043e-11
-4.63073e-11
4.1962e-13
1.24155e-12
1.1366e-09
-9.66524e-13
4.28181e-15
1.1462e-09
1.41027e-13
-7.01586e-14
1.15488e-09
6.48022e-13
-3.95589e-13
1.1468e-09
4.13695e-13
4.14241e-14
1.14412e-09
2.84262e-13
-4.54945e-14
1.14031e-09
1.4995e-13
6.75011e-14
1.13473e-09
3.32812e-14
1.13047e-09
9.69684e-13
-1.22358e-12
7.19748e-10
4.33412e-11
3.38838e-11
-4.23649e-11
-3.4831e-11
5.0594e-11
5.68321e-11
-5.08258e-11
-5.63477e-11
9.92414e-13
9.88914e-13
1.12306e-09
-1.37535e-12
5.78801e-13
1.13188e-09
3.99288e-14
-1.4761e-13
1.14396e-09
1.84991e-13
-1.56393e-13
1.1363e-09
6.27425e-14
5.10964e-14
1.13448e-09
-3.73672e-13
1.53357e-14
1.13677e-09
-2.83644e-13
-6.52951e-14
1.13943e-09
-2.71367e-13
-8.36027e-14
1.13961e-09
-1.30408e-13
-9.50353e-14
1.13742e-09
-1.14563e-13
1.13547e-09
-3.06616e-11
-2.65355e-12
-1.01756e-11
-6.03718e-12
4.95279e-11
-1.79108e-12
1.79812e-12
8.81104e-10
5.2864e-11
4.53011e-11
-5.30453e-11
-4.6329e-11
5.76828e-13
-1.37739e-12
1.13173e-09
5.74355e-13
5.75387e-13
1.1268e-09
4.46474e-13
-4.002e-14
1.12361e-09
1.27418e-13
1.54334e-13
1.12773e-09
1.72309e-13
-3.9282e-14
1.13236e-09
2.00903e-13
-5.38896e-14
1.13659e-09
1.54422e-13
-5.84136e-14
1.13921e-09
1.15971e-13
-8.58932e-14
1.13988e-09
6.06167e-14
-7.9644e-14
1.13917e-09
-9.16898e-14
1.13856e-09
-1.39604e-11
-1.08422e-11
3.10908e-12
2.16934e-11
-1.47586e-13
-1.84909e-12
7.46923e-10
5.84349e-11
4.38533e-11
-5.72594e-11
-4.44596e-11
6.28788e-11
5.85075e-11
-6.19544e-11
-5.79682e-11
1.24265e-12
4.19848e-13
1.13615e-09
-1.48027e-13
3.90571e-14
1.14365e-09
-3.99689e-14
4.47146e-13
1.12378e-09
-4.65761e-14
-4.65733e-14
1.12498e-09
-1.4734e-14
8.73519e-14
1.12994e-09
-4.75689e-14
-3.51915e-14
1.13395e-09
-1.18495e-13
-1.75886e-14
1.1371e-09
-1.00142e-13
-1.04185e-13
1.13921e-09
-9.87086e-14
-1.13103e-13
1.14018e-09
-5.17691e-14
-1.48848e-13
1.14028e-09
-1.60465e-13
1.14031e-09
-7.08525e-11
1.87126e-12
2.9179e-12
-1.26982e-11
-1.40363e-11
9.27978e-11
-1.40597e-12
7.21798e-13
8.82258e-10
5.89676e-11
4.70354e-11
-5.89566e-11
-4.81856e-11
3.94544e-15
-9.66347e-13
1.14593e-09
-1.57377e-13
1.84588e-13
1.1361e-09
1.53666e-13
1.27529e-13
1.12769e-09
8.65337e-14
-1.4741e-14
1.13003e-09
6.87608e-14
6.9265e-14
1.13317e-09
6.83092e-14
-7.4556e-14
1.13577e-09
6.22605e-14
-5.31986e-14
1.13808e-09
4.67399e-14
-1.23379e-13
1.13989e-09
3.1118e-14
-1.27431e-13
1.14098e-09
1.25028e-14
-1.5646e-13
1.14141e-09
-1.63722e-13
1.14168e-09
-1.42737e-11
-7.99841e-12
8.46861e-13
2.14252e-11
-2.26652e-13
-7.70208e-13
7.22274e-10
6.50721e-11
4.47671e-11
-6.46904e-11
-4.53139e-11
6.16636e-11
5.79866e-11
-6.0917e-11
-5.75374e-11
1.03934e-12
-4.897e-13
1.13178e-09
-7.00152e-14
1.41069e-13
1.15472e-09
5.09195e-14
6.2566e-14
1.13433e-09
-3.93781e-14
1.72174e-13
1.1323e-09
-3.54471e-14
-4.75572e-14
1.13393e-09
-7.48348e-14
6.88592e-14
1.13578e-09
-8.82203e-14
-8.78129e-14
1.13762e-09
-1.14058e-13
-5.27838e-14
1.13935e-09
-1.00828e-13
-1.45114e-13
1.14078e-09
-8.77294e-14
-1.43594e-13
1.14186e-09
-4.90538e-14
-1.86635e-13
1.14242e-09
-1.90254e-13
1.14276e-09
-4.52513e-11
2.5487e-12
-1.00466e-11
-1.24041e-11
6.51533e-11
-1.35082e-12
2.09473e-12
9.01818e-10
5.5084e-11
4.66252e-11
-5.52286e-11
-4.79596e-11
1.17923e-13
-1.93939e-12
1.15638e-09
-3.96015e-13
6.48436e-13
1.14673e-09
1.48709e-14
-3.73542e-13
1.13671e-09
-5.44862e-14
2.01271e-13
1.13653e-09
-1.81697e-14
-1.18222e-13
1.13706e-09
-5.36963e-14
6.29171e-14
1.13806e-09
-5.33094e-14
-1.13399e-13
1.13934e-09
-6.3223e-14
-6.26373e-14
1.14075e-09
-5.79522e-14
-1.50334e-13
1.14192e-09
-4.83854e-14
-1.42381e-13
1.14293e-09
-2.99618e-14
-1.81212e-13
1.14354e-09
-1.81366e-13
1.14388e-09
-2.43253e-13
-9.03813e-13
7.62011e-10
5.78672e-11
4.45346e-11
-5.67172e-11
-4.49363e-11
4.83578e-11
4.27314e-11
-4.82488e-11
-4.23936e-11
9.54472e-13
8.89853e-13
1.1627e-09
-1.72392e-13
-7.70843e-13
1.16913e-09
4.0972e-14
4.14284e-13
1.14407e-09
-6.56798e-14
-2.83054e-13
1.13938e-09
-5.86845e-14
1.56254e-13
1.13916e-09
-1.04352e-13
-9.94016e-14
1.13918e-09
-1.23616e-13
4.75807e-14
1.13987e-09
-1.45482e-13
-1.00009e-13
1.14077e-09
-1.50813e-13
-5.70886e-14
1.14198e-09
-1.35219e-13
-1.34732e-13
1.14307e-09
-1.06881e-13
-1.29233e-13
1.14394e-09
-6.07712e-14
-1.65196e-13
1.14458e-09
-1.65776e-13
1.14493e-09
-2.65715e-13
-6.70579e-15
9.74428e-10
4.01321e-11
5.74853e-11
-4.0782e-11
-5.74226e-11
7.74689e-15
6.45255e-13
1.18606e-09
-1.49527e-13
-6.26415e-13
1.15411e-09
-4.59362e-14
2.84988e-13
1.14026e-09
-8.40356e-14
-2.70574e-13
1.13957e-09
-8.62663e-14
1.18552e-13
1.13984e-09
-1.1348e-13
-9.77e-14
1.14016e-09
-1.27893e-13
3.2177e-14
1.14096e-09
-1.44089e-13
-8.67371e-14
1.14185e-09
-1.42879e-13
-4.71958e-14
1.14294e-09
-1.29686e-13
-1.05764e-13
1.14404e-09
-1.00318e-13
-9.95518e-14
1.14499e-09
-5.89937e-14
-1.25548e-13
1.14566e-09
-1.23855e-13
1.14607e-09
-2.02218e-11
-1.96578e-12
-1.30542e-11
2.03721e-12
3.32045e-11
-2.51848e-14
-1.9679e-13
8.78237e-10
6.60563e-11
6.46951e-11
-6.59571e-11
-6.4534e-11
3.37148e-13
2.96271e-13
1.13906e-09
-3.70297e-14
-2.54297e-13
1.1367e-09
6.74801e-14
1.50585e-13
1.1347e-09
-9.51732e-14
-1.29735e-13
1.13739e-09
-7.98024e-14
6.23988e-14
1.13915e-09
-1.49131e-13
-5.08535e-14
1.14026e-09
-1.56717e-13
1.35638e-14
1.1414e-09
-1.86816e-13
-4.78954e-14
1.14241e-09
-1.81436e-13
-2.84225e-14
1.14354e-09
-1.65599e-13
-5.93364e-14
1.14463e-09
-1.26281e-13
-5.75787e-14
1.14576e-09
-7.19536e-14
-7.04801e-14
1.14664e-09
-7.02919e-14
1.14718e-09
-3.95755e-11
-1.40994e-12
-1.43618e-11
5.95906e-13
5.47514e-11
-1.32697e-13
8.72354e-10
6.28173e-11
6.20312e-11
-6.28177e-11
-6.20306e-11
1.56858e-13
1.12542e-09
-8.85882e-14
1.1287e-09
3.33739e-14
1.13045e-09
-1.14748e-13
1.13546e-09
-9.19163e-14
1.13855e-09
-1.60792e-13
1.1403e-09
-1.63811e-13
1.14168e-09
-1.90172e-13
1.14276e-09
-1.81411e-13
1.14388e-09
-1.66274e-13
1.14494e-09
-1.24751e-13
1.14609e-09
-7.10989e-14
1.14719e-09
1.14805e-09
-2.02242e-11
-1.96585e-12
2.03715e-12
-1.30574e-11
3.32103e-11
-3.95791e-11
-1.40997e-12
5.95738e-13
-1.4366e-11
5.47594e-11
-1.4276e-11
8.47039e-13
-8.0008e-12
2.14297e-11
-4.52557e-11
2.54905e-12
-1.24052e-11
-1.00518e-11
6.51637e-11
-9.02535e-13
-2.37945e-13
7.61971e-10
4.83686e-11
4.27395e-11
-4.82601e-11
-4.24049e-11
5.78762e-11
4.4548e-11
-5.67378e-11
-4.49478e-11
-1.50554e-14
-2.62264e-13
9.74396e-10
4.01434e-11
5.74965e-11
-4.07891e-11
-5.7437e-11
-2.07479e-13
-3.43274e-14
8.78207e-10
6.60706e-11
6.47109e-11
-6.59732e-11
-6.45475e-11
-1.83111e-13
8.72332e-10
6.28326e-11
6.20465e-11
-6.2832e-11
-6.2044e-11
-1.39629e-11
3.1078e-12
-1.08424e-11
2.16975e-11
-7.08609e-11
2.91731e-12
1.87232e-12
-1.40406e-11
-1.27003e-11
9.28121e-11
-7.68974e-13
-2.29965e-13
7.22255e-10
6.16752e-11
5.79978e-11
-6.09314e-11
-5.75488e-11
6.5089e-11
4.47884e-11
-6.47092e-11
-4.53249e-11
2.04972e-12
-1.36792e-12
9.01859e-10
5.50988e-11
4.66361e-11
-5.52354e-11
-4.79639e-11
8.89316e-13
9.19533e-13
1.16272e-09
6.43698e-13
-6.58462e-15
1.18607e-09
3.03937e-13
2.93072e-13
1.13908e-09
1.2229e-13
1.12543e-09
-3.0684e-11
-2.64296e-12
-6.05301e-12
-1.01725e-11
4.95525e-11
-1.8787e-12
-1.53285e-13
7.47117e-10
6.2888e-11
5.85144e-11
-6.19672e-11
-5.79734e-11
5.84642e-11
4.38871e-11
-5.72904e-11
-4.44841e-11
7.17369e-13
-1.45323e-12
8.82407e-10
5.89735e-11
4.70403e-11
-5.89647e-11
-4.81842e-11
-5.17439e-13
1.0375e-12
1.13184e-09
-1.9785e-12
9.36058e-14
1.15645e-09
-8.54157e-13
-2.09807e-13
1.16916e-09
-6.45939e-13
-2.10274e-13
1.15414e-09
-2.75472e-13
-9.42644e-14
1.13674e-09
-1.58903e-13
1.12873e-09
-1.21417e-12
9.67725e-13
7.20586e-10
5.0642e-11
5.68513e-11
-5.08761e-11
-5.63711e-11
4.33326e-11
3.37508e-11
-4.23552e-11
-3.47043e-11
1.80237e-12
-1.80666e-12
8.81833e-10
5.28729e-11
4.52926e-11
-5.30549e-11
-4.63139e-11
4.20276e-13
1.24884e-12
1.13658e-09
-1.00285e-12
-3.13644e-14
1.14619e-09
1.28226e-13
-1.13218e-13
1.15489e-09
6.35916e-13
-4.46347e-13
1.14683e-09
4.00797e-13
-2.79474e-14
1.14417e-09
2.74283e-13
-1.38693e-13
1.14037e-09
1.46422e-13
-2.66732e-14
1.13479e-09
-6.96606e-14
1.13053e-09
9.68983e-13
-1.21242e-12
7.19736e-10
4.33412e-11
3.38868e-11
-4.23846e-11
-3.48425e-11
5.06058e-11
5.68444e-11
-5.08369e-11
-5.63603e-11
9.79642e-13
9.77783e-13
1.12304e-09
-1.42731e-12
5.87775e-13
1.13189e-09
1.55798e-14
-1.94939e-13
1.14396e-09
1.5242e-13
-1.97825e-13
1.13633e-09
2.20738e-14
-1.20056e-14
1.13451e-09
-4.15851e-13
-5.54259e-14
1.13682e-09
-3.13891e-13
-1.68229e-13
1.13947e-09
-2.99727e-13
-1.98562e-13
1.13966e-09
-1.43327e-13
-2.21751e-13
1.13746e-09
-2.46858e-13
1.13551e-09
-3.06647e-11
-2.65364e-12
-1.01789e-11
-6.03925e-12
4.95366e-11
-1.80737e-12
1.80311e-12
8.81097e-10
5.28751e-11
4.5314e-11
-5.30569e-11
-4.63354e-11
5.86042e-13
-1.42893e-12
1.13174e-09
5.66654e-13
5.68292e-13
1.12684e-09
4.24062e-13
-9.70499e-14
1.12365e-09
9.07033e-14
9.04287e-14
1.12777e-09
1.68605e-13
-1.3472e-13
1.13241e-09
2.11079e-13
-1.60492e-13
1.13665e-09
1.61875e-13
-1.85361e-13
1.13927e-09
1.22957e-13
-2.26001e-13
1.13994e-09
6.56434e-14
-2.29707e-13
1.13924e-09
-2.4901e-13
1.13862e-09
-1.39625e-11
-1.08449e-11
3.10938e-12
2.16981e-11
-1.52428e-13
-1.87874e-12
7.46913e-10
5.84472e-11
4.38676e-11
-5.72738e-11
-4.44654e-11
6.28915e-11
5.85221e-11
-6.19702e-11
-5.79805e-11
1.24994e-12
4.20581e-13
1.13613e-09
-1.9523e-13
1.46929e-14
1.14365e-09
-9.72491e-14
4.24982e-13
1.12383e-09
-1.14738e-13
-1.14566e-13
1.12501e-09
-9.12692e-14
1.07195e-14
1.12999e-09
-1.24671e-13
-1.45557e-13
1.13399e-09
-1.92532e-13
-1.39157e-13
1.13714e-09
-1.59305e-13
-2.51e-13
1.13924e-09
-1.48215e-13
-2.70571e-13
1.14022e-09
-7.68201e-14
-3.22013e-13
1.14029e-09
-3.37992e-13
1.14032e-09
-7.08606e-11
1.87062e-12
2.91812e-12
-1.27024e-11
-1.40393e-11
9.28136e-11
-1.45342e-12
7.174e-13
8.82246e-10
5.89793e-11
4.70476e-11
-5.89701e-11
-4.81916e-11
-3.1503e-14
-1.00253e-12
1.14593e-09
-1.98778e-13
1.51968e-13
1.13613e-09
8.95381e-14
9.09309e-14
1.12773e-09
9.65479e-15
-9.12371e-14
1.13009e-09
-2.03636e-14
-1.97172e-14
1.13323e-09
-2.38779e-14
-1.94069e-13
1.13581e-09
-2.39232e-14
-1.87771e-13
1.13813e-09
-2.54186e-14
-2.82997e-13
1.13992e-09
-2.09166e-14
-3.00413e-13
1.141e-09
-1.39314e-14
-3.44147e-13
1.14143e-09
-3.55033e-13
1.14169e-09
-1.42758e-11
-8.00105e-12
8.47124e-13
2.14298e-11
-2.29971e-13
-7.68353e-13
7.22235e-10
6.50864e-11
4.47827e-11
-6.4707e-11
-4.53194e-11
6.1676e-11
5.79994e-11
-6.09321e-11
-5.75504e-11
1.03734e-12
-5.17208e-13
1.13174e-09
-1.12898e-13
1.28137e-13
1.15474e-09
-1.21394e-14
2.1753e-14
1.13436e-09
-1.34901e-13
1.6828e-13
1.13235e-09
-1.45967e-13
-1.24797e-13
1.13397e-09
-1.94523e-13
-2.32016e-14
1.13583e-09
-2.07348e-13
-2.0675e-13
1.13765e-09
-2.2572e-13
-1.88763e-13
1.13936e-09
-1.94073e-13
-3.04994e-13
1.14076e-09
-1.54064e-13
-3.15398e-13
1.14184e-09
-8.18088e-14
-3.72493e-13
1.14238e-09
-3.81733e-13
1.14271e-09
-4.52554e-11
2.54888e-12
-1.00523e-11
-1.24048e-11
6.51636e-11
-1.36797e-12
2.05021e-12
9.0183e-10
5.51001e-11
4.66379e-11
-5.52366e-11
-4.79656e-11
9.35671e-14
-1.9782e-12
1.15638e-09
-4.46703e-13
6.3638e-13
1.14676e-09
-5.6599e-14
-4.15935e-13
1.13675e-09
-1.60545e-13
2.08958e-13
1.1366e-09
-1.39785e-13
-1.92554e-13
1.13711e-09
-1.88429e-13
-2.31334e-14
1.13811e-09
-1.89432e-13
-2.24835e-13
1.13935e-09
-1.90809e-13
-1.90124e-13
1.14075e-09
-1.63563e-13
-2.98524e-13
1.14188e-09
-1.23464e-13
-3.03187e-13
1.14287e-09
-6.79777e-14
-3.55136e-13
1.14346e-09
-3.61492e-13
1.14379e-09
-2.37948e-13
-9.02338e-13
7.61968e-10
5.78756e-11
4.45465e-11
-5.67373e-11
-4.49463e-11
4.83687e-11
4.27397e-11
-4.82602e-11
-4.24051e-11
9.19535e-13
8.89842e-13
1.1627e-09
-2.09998e-13
-8.53685e-13
1.16913e-09
-2.85878e-14
4.01602e-13
1.14412e-09
-1.71209e-13
-3.12676e-13
1.13942e-09
-1.83105e-13
1.5108e-13
1.13923e-09
-2.5107e-13
-1.57936e-13
1.13921e-09
-2.83381e-13
-2.43538e-14
1.1399e-09
-3.05532e-13
-1.93019e-13
1.14076e-09
-2.99158e-13
-1.62446e-13
1.14195e-09
-2.58297e-13
-2.5769e-13
1.14299e-09
-1.96752e-13
-2.63976e-13
1.14384e-09
-1.0747e-13
-3.09963e-13
1.14445e-09
-3.15036e-13
1.14478e-09
-2.62361e-13
-1.48103e-14
9.74388e-10
4.01436e-11
5.74969e-11
-4.07893e-11
-5.74375e-11
-6.81155e-15
6.44236e-13
1.18605e-09
-2.10743e-13
-6.45278e-13
1.15411e-09
-1.39426e-13
2.75259e-13
1.14031e-09
-1.99639e-13
-2.98292e-13
1.13961e-09
-2.26009e-13
1.09316e-13
1.13991e-09
-2.7078e-13
-1.46583e-13
1.14019e-09
-3.00988e-13
-1.94683e-14
1.14098e-09
-3.1595e-13
-1.52774e-13
1.14182e-09
-3.03705e-13
-1.21956e-13
1.14289e-09
-2.64434e-13
-1.95426e-13
1.14393e-09
-1.97511e-13
-1.96752e-13
1.14486e-09
-1.09063e-13
-2.31022e-13
1.14549e-09
-2.34992e-13
1.14589e-09
-2.02242e-11
-1.96591e-12
-1.30575e-11
2.03725e-12
3.32104e-11
-3.42369e-14
-2.07216e-13
8.78201e-10
6.60709e-11
6.47111e-11
-6.59736e-11
-6.45478e-11
2.93172e-13
3.0443e-13
1.13907e-09
-9.43675e-14
-2.74655e-13
1.13671e-09
-2.65151e-14
1.47211e-13
1.13476e-09
-2.20612e-13
-1.42251e-13
1.13743e-09
-2.31129e-13
5.64376e-14
1.13921e-09
-3.22501e-13
-7.54276e-14
1.14027e-09
-3.4442e-13
-1.2537e-14
1.14141e-09
-3.72659e-13
-8.03607e-14
1.14237e-09
-3.55402e-13
-6.63023e-14
1.14346e-09
-3.10383e-13
-1.05918e-13
1.14449e-09
-2.3164e-13
-1.07609e-13
1.14559e-09
-1.27046e-13
-1.25668e-13
1.14643e-09
-1.31004e-13
1.14695e-09
-3.9579e-11
-1.41e-12
-1.4366e-11
5.95793e-13
5.47593e-11
-1.8327e-13
8.72329e-10
6.28326e-11
6.20463e-11
-6.2832e-11
-6.20439e-11
1.22062e-13
1.12542e-09
-1.58829e-13
1.12871e-09
-6.93998e-14
1.13051e-09
-2.44927e-13
1.13549e-09
-2.51473e-13
1.13861e-09
-3.38638e-13
1.14031e-09
-3.55219e-13
1.14168e-09
-3.81752e-13
1.14271e-09
-3.61632e-13
1.14379e-09
-3.15496e-13
1.1448e-09
-2.35687e-13
1.1459e-09
-1.31717e-13
1.14696e-09
1.14781e-09
-2.02274e-11
-1.96568e-12
2.03698e-12
-1.30616e-11
3.32177e-11
-3.95841e-11
-1.4101e-12
5.95567e-13
-1.4371e-11
5.47697e-11
-1.42787e-11
8.47213e-13
-8.00374e-12
2.14353e-11
-4.52618e-11
2.54918e-12
-1.24063e-11
-1.0058e-11
6.5177e-11
-9.02142e-13
-2.31545e-13
7.61934e-10
4.83815e-11
4.27495e-11
-4.82733e-11
-4.24184e-11
5.78871e-11
4.45633e-11
-5.67603e-11
-4.49592e-11
-2.57803e-14
-2.66613e-13
9.74371e-10
4.01571e-11
5.75105e-11
-4.07978e-11
-5.74545e-11
-2.18017e-13
-5.49854e-14
8.78192e-10
6.60879e-11
6.47296e-11
-6.59921e-11
-6.45637e-11
-2.21238e-13
8.72333e-10
6.28509e-11
6.20645e-11
-6.28483e-11
-6.20598e-11
-1.39657e-11
3.10837e-12
-1.08457e-11
2.1703e-11
-7.0871e-11
2.91812e-12
1.87261e-12
-1.40445e-11
-1.27063e-11
9.28309e-11
-8.35676e-13
-2.1959e-13
7.22264e-10
6.16918e-11
5.80156e-11
-6.09475e-11
-5.75624e-11
6.51051e-11
4.4807e-11
-6.47309e-11
-4.53322e-11
2.00603e-12
-1.40388e-12
9.01869e-10
5.51177e-11
4.66509e-11
-5.52452e-11
-4.79712e-11
8.76387e-13
8.74711e-13
1.16274e-09
6.35156e-13
-4.28036e-14
1.18608e-09
3.089e-13
2.2772e-13
1.13913e-09
6.3525e-14
1.12546e-09
-3.06884e-11
-2.64331e-12
-6.05493e-12
-1.01764e-11
4.9563e-11
-1.91607e-12
-1.18746e-13
7.47108e-10
6.29029e-11
5.85329e-11
-6.19868e-11
-5.79877e-11
5.84777e-11
4.39042e-11
-5.7309e-11
-4.44912e-11
7.01468e-13
-1.50997e-12
8.82422e-10
5.89882e-11
4.70564e-11
-5.89798e-11
-4.81894e-11
-5.51293e-13
1.03113e-12
1.13184e-09
-2.03079e-12
4.15195e-14
1.15648e-09
-8.96529e-13
-2.82841e-13
1.16918e-09
-6.68867e-13
-3.012e-13
1.15417e-09
-2.95914e-13
-1.87924e-13
1.13678e-09
-2.63241e-13
1.12876e-09
-1.20824e-12
9.68946e-13
7.20581e-10
5.06558e-11
5.68657e-11
-5.08894e-11
-5.63864e-11
4.33362e-11
3.37553e-11
-4.23763e-11
-3.47179e-11
1.79358e-12
-1.83089e-12
8.81855e-10
5.28864e-11
4.53085e-11
-5.30681e-11
-4.63206e-11
4.14831e-13
1.24165e-12
1.13659e-09
-1.04901e-12
-8.32007e-14
1.14623e-09
1.21143e-13
-1.85527e-13
1.15494e-09
6.22647e-13
-5.35595e-13
1.14691e-09
3.83977e-13
-1.40417e-13
1.14427e-09
2.60464e-13
-2.75299e-13
1.14046e-09
1.41578e-13
-1.72818e-13
1.13489e-09
-2.26188e-13
1.13064e-09
9.60803e-13
-1.21171e-12
7.19715e-10
4.33643e-11
3.38984e-11
-4.23828e-11
-3.48488e-11
5.0615e-11
5.68566e-11
-5.08551e-11
-5.6378e-11
9.62987e-13
9.59316e-13
1.12304e-09
-1.4944e-12
5.88636e-13
1.13193e-09
-2.27649e-14
-2.61557e-13
1.14399e-09
1.13011e-13
-2.76298e-13
1.13639e-09
-3.38093e-14
-1.13307e-13
1.13459e-09
-4.83076e-13
-1.75781e-13
1.13691e-09
-3.67146e-13
-3.24677e-13
1.13954e-09
-3.46652e-13
-3.69402e-13
1.13973e-09
-1.67582e-13
-4.07363e-13
1.13752e-09
-4.41443e-13
1.13556e-09
-3.06692e-11
-2.65393e-12
-1.01827e-11
-6.0412e-12
4.95471e-11
-1.83205e-12
1.79411e-12
8.81118e-10
5.28883e-11
4.53297e-11
-5.30704e-11
-4.63424e-11
5.86317e-13
-1.49607e-12
1.13178e-09
5.43507e-13
5.49685e-13
1.12692e-09
3.87324e-13
-1.81806e-13
1.12372e-09
2.254e-14
-6.65222e-15
1.12787e-09
9.47062e-14
-2.71616e-13
1.13249e-09
1.43199e-13
-3.20263e-13
1.13674e-09
1.00585e-13
-3.78005e-13
1.13936e-09
8.05316e-14
-4.38123e-13
1.14004e-09
4.23457e-14
-4.59475e-13
1.13933e-09
-4.86315e-13
1.13871e-09
-1.39653e-11
-1.08482e-11
3.10995e-12
2.17036e-11
-1.1752e-13
-1.91608e-12
7.46903e-10
5.84607e-11
4.38847e-11
-5.72923e-11
-4.44725e-11
6.29063e-11
5.85405e-11
-6.19898e-11
-5.79949e-11
1.24317e-12
4.1522e-13
1.13614e-09
-2.61222e-13
-2.37222e-14
1.14368e-09
-1.83412e-13
3.91005e-13
1.12391e-09
-2.17062e-13
-2.1644e-13
1.12508e-09
-2.06891e-13
-1.07272e-13
1.13008e-09
-2.41778e-13
-3.07558e-13
1.13406e-09
-3.03864e-13
-3.21659e-13
1.1372e-09
-2.58329e-13
-4.68359e-13
1.13929e-09
-2.3007e-13
-5.07344e-13
1.14026e-09
-1.20718e-13
-5.78794e-13
1.1403e-09
-6.01011e-13
1.14032e-09
-7.08707e-11
1.87088e-12
2.91893e-12
-1.27083e-11
-1.40432e-11
9.28324e-11
-1.50989e-12
7.01585e-13
8.82261e-10
5.8994e-11
4.70637e-11
-5.89854e-11
-4.81969e-11
-8.28888e-14
-1.04847e-12
1.14597e-09
-2.76986e-13
1.12528e-13
1.13618e-09
-8.26656e-15
2.23902e-14
1.12783e-09
-1.08979e-13
-2.06901e-13
1.13018e-09
-1.55984e-13
-1.55117e-13
1.13332e-09
-1.6041e-13
-3.70612e-13
1.13588e-09
-1.51378e-13
-3.88313e-13
1.13818e-09
-1.32969e-13