/*--------------------------------*- C++ -*----------------------------------*\
| =========                 |                                                 |
| \\      /  F ield         | OpenFOAM: The Open Source CFD Toolbox           |
|  \\    /   O peration     | Version:  2.1.1                                 |
|   \\  /    A nd           | Web:      www.OpenFOAM.org                      |
|    \\/     M anipulation  |                                                 |
\*---------------------------------------------------------------------------*/
FoamFile
{
    version     2.0;
    format      ascii;
    class       surfaceScalarField;
    location    "0.0035";
    object      phi;
}
// * * * * * * * * * * * * * * * * * * * * * * * * * * * * * * * * * * * * * //

dimensions      [0 3 -1 0 0 0 0];

internalField   nonuniform List<scalar> 
29352
(
-1.45046e-13
-1.45255e-13
2.50292e-10
1.19971e-13
-4.39898e-13
-1.45502e-13
2.50467e-10
2.46194e-13
-7.41446e-13
-1.48872e-13
2.50642e-10
3.71857e-13
-1.06462e-12
-1.52785e-13
2.50842e-10
5.20305e-13
-1.40969e-12
-1.59473e-13
2.51044e-10
6.6175e-13
-1.79946e-12
-1.66573e-13
2.51301e-10
8.56459e-13
-2.23694e-12
-1.76342e-13
2.51551e-10
1.03034e-12
-2.78475e-12
-1.88947e-13
2.51939e-10
1.3448e-12
-3.43397e-12
-2.02859e-13
2.52285e-10
1.58924e-12
-4.42755e-12
-2.21735e-13
2.53058e-10
2.36211e-12
-6.03061e-12
-2.34386e-13
2.53916e-10
3.33456e-12
-1.08877e-11
-2.49641e-13
2.58033e-10
8.3162e-12
-2.10344e-11
6.72073e-14
2.64368e-10
1.59448e-11
-3.46611e-11
1.25017e-12
2.73499e-10
3.75044e-11
-6.38403e-11
3.67772e-12
2.64671e-10
1.20031e-13
-1.45413e-13
-4.39863e-13
2.50467e-10
1.19891e-13
1.19499e-13
-4.45101e-13
-4.44889e-13
2.5065e-10
1.20387e-13
2.44883e-13
-7.48503e-13
-4.53845e-13
2.50837e-10
1.21529e-13
3.68266e-13
-1.07347e-12
-4.66777e-13
2.5105e-10
1.2272e-13
5.15361e-13
-1.42154e-12
-4.84641e-13
2.51268e-10
1.27558e-13
6.55335e-13
-1.81508e-12
-5.11036e-13
2.51543e-10
1.34067e-13
8.49132e-13
-2.25818e-12
-5.45217e-13
2.5182e-10
1.47632e-13
1.02518e-12
-2.81359e-12
-5.92311e-13
2.52233e-10
1.68924e-13
1.34135e-12
-3.47433e-12
-6.52289e-13
2.52616e-10
2.18654e-13
1.60237e-12
-4.48089e-12
-7.44408e-13
2.53404e-10
3.12237e-13
2.39943e-12
-6.08608e-12
-8.346e-13
2.54213e-10
6.04432e-13
3.4748e-12
-1.08948e-11
-9.49887e-13
2.5786e-10
2.69714e-13
8.56839e-12
-2.11624e-11
-9.6412e-14
2.63458e-10
-1.71765e-12
1.63031e-11
-3.34364e-11
2.89185e-12
2.70463e-10
-7.05529e-12
3.41982e-11
-5.73477e-11
1.05858e-11
2.59374e-10
2.46085e-13
-1.48661e-13
-7.4137e-13
2.50642e-10
2.44609e-13
1.20039e-13
-4.53192e-13
-7.48682e-13
2.50837e-10
2.45254e-13
2.47089e-13
-7.6426e-13
-7.64531e-13
2.51036e-10
2.48344e-13
3.65811e-13
-1.09458e-12
-7.86137e-13
2.51266e-10
2.53436e-13
5.13067e-13
-1.44968e-12
-8.18039e-13
2.51501e-10
2.61685e-13
6.55876e-13
-1.85434e-12
-8.60461e-13
2.51797e-10
2.79363e-13
8.50397e-13
-2.31047e-12
-9.17468e-13
2.52098e-10
3.07638e-13
1.03055e-12
-2.8816e-12
-9.9744e-13
2.52541e-10
3.49616e-13
1.34893e-12
-3.57304e-12
-1.09987e-12
2.52974e-10
4.44714e-13
1.63121e-12
-4.61424e-12
-1.27652e-12
2.53815e-10
6.07212e-13
2.43566e-12
-6.26297e-12
-1.501e-12
2.54717e-10
9.97957e-13
3.61553e-12
-1.08259e-11
-2.09677e-12
2.5832e-10
9.45242e-13
8.28728e-12
-2.02033e-11
-2.0208e-12
2.63642e-10
-3.33746e-12
1.62807e-11
-3.71841e-11
1.92976e-12
2.75691e-10
-1.34497e-11
5.46404e-11
-8.20908e-11
1.93269e-12
3.04515e-10
3.7169e-13
-1.52703e-13
-1.06447e-12
2.50842e-10
3.6819e-13
1.21098e-13
-4.66783e-13
-1.07353e-12
2.51051e-10
3.66267e-13
2.48733e-13
-7.86729e-13
-1.09446e-12
2.51266e-10
3.70727e-13
3.68275e-13
-1.12681e-12
-1.12644e-12
2.51514e-10
3.74188e-13
5.1248e-13
-1.4926e-12
-1.17614e-12
2.51782e-10
3.79176e-13
6.52098e-13
-1.91011e-12
-1.24157e-12
2.5212e-10
3.90685e-13
8.48902e-13
-2.38365e-12
-1.33082e-12
2.52475e-10
4.06923e-13
1.02834e-12
-2.97614e-12
-1.45915e-12
2.53e-10
4.2349e-13
1.33247e-12
-3.72326e-12
-1.65461e-12
2.53622e-10
4.76406e-13
1.63803e-12
-4.86615e-12
-2.01849e-12
2.5477e-10
5.72692e-13
2.41755e-12
-6.94571e-12
-2.72937e-12
2.56678e-10
1.20964e-12
3.99125e-12
-1.17785e-11
-4.69926e-12
2.61312e-10
2.84322e-12
8.1873e-12
-1.91841e-11
-8.42339e-12
2.67528e-10
6.5454e-12
1.55025e-11
-2.73551e-11
-1.8502e-11
2.76677e-10
3.66792e-13
7.8303e-11
-2.13911e-11
1.77919e-10
5.20026e-13
-1.5958e-13
-1.40946e-12
2.51044e-10
5.15e-13
1.22146e-13
-4.84653e-13
-1.42152e-12
2.51269e-10
5.12481e-13
2.53243e-13
-8.17588e-13
-1.44979e-12
2.51501e-10
5.11204e-13
3.73237e-13
-1.17507e-12
-1.49265e-12
2.51783e-10
5.21726e-13
5.2612e-13
-1.5596e-12
-1.56016e-12
2.52072e-10
5.36283e-13
6.63851e-13
-2.00287e-12
-1.64726e-12
2.5245e-10
5.58715e-13
8.60869e-13
-2.51428e-12
-1.77467e-12
2.52869e-10
5.91213e-13
1.05055e-12
-3.17344e-12
-1.9567e-12
2.53488e-10
6.50901e-13
1.3896e-12
-4.06952e-12
-2.25453e-12
2.54284e-10
7.82023e-13
1.80092e-12
-5.6205e-12
-2.8088e-12
2.55846e-10
1.18916e-12
2.917e-12
-8.99213e-12
-4.10216e-12
2.58992e-10
2.82702e-12
5.75575e-12
-1.57294e-11
-7.17788e-12
2.64573e-10
8.30586e-12
1.19971e-11
-2.55367e-11
-1.34098e-11
2.70668e-10
2.51406e-11
2.72018e-11
-3.90424e-11
-3.76322e-11
2.76295e-10
1.48589e-11
7.86793e-11
6.45887e-11
6.6129e-13
-1.67003e-13
-1.79915e-12
2.51302e-10
6.54752e-13
1.2658e-13
-5.11104e-13
-1.81522e-12
2.51545e-10
6.55391e-13
2.61181e-13
-8.60361e-13
-1.85495e-12
2.51798e-10
6.53164e-13
3.78953e-13
-1.24024e-12
-1.91093e-12
2.52119e-10
6.59551e-13
5.36453e-13
-1.64796e-12
-2.0042e-12
2.52456e-10
6.68207e-13
6.69456e-13
-2.12194e-12
-2.12259e-12
2.52907e-10
6.88294e-13
8.84977e-13
-2.68072e-12
-2.30368e-12
2.53411e-10
7.11961e-13
1.08708e-12
-3.44003e-12
-2.56325e-12
2.54204e-10
7.63883e-13
1.4887e-12
-4.57776e-12
-2.9975e-12
2.55323e-10
9.20344e-13
2.12165e-12
-6.93057e-12
-3.83627e-12
2.57725e-10
1.623e-12
3.99452e-12
-1.23662e-11
-5.92804e-12
2.62746e-10
4.51231e-12
8.54386e-12
-2.08357e-11
-1.02171e-11
2.68808e-10
1.23967e-11
1.60318e-11
-2.88843e-11
-1.89818e-11
2.73012e-10
3.44023e-11
3.28759e-11
-7.49503e-11
-3.07331e-11
2.7767e-10
8.55794e-13
-1.7724e-13
-2.23659e-12
2.51552e-10
8.48286e-13
1.32757e-13
-5.45619e-13
-2.25833e-12
2.51823e-10
8.49677e-13
2.78784e-13
-9.17636e-13
-2.31119e-12
2.521e-10
8.48128e-13
3.8984e-13
-1.33035e-12
-2.38478e-12
2.52477e-10
8.61076e-13
5.58453e-13
-1.77465e-12
-2.51582e-12
2.52871e-10
8.84511e-13
6.88908e-13
-2.30302e-12
-2.68212e-12
2.53411e-10
9.42427e-13
9.42791e-13
-2.94372e-12
-2.94499e-12
2.54003e-10
1.02743e-12
1.18736e-12
-3.86163e-12
-3.28788e-12
2.54935e-10
1.22751e-12
1.76878e-12
-5.41419e-12
-3.83545e-12
2.56255e-10
1.73412e-12
2.86529e-12
-9.14684e-12
-5.01669e-12
2.59597e-10
3.61026e-12
6.3803e-12
-1.71385e-11
-7.76643e-12
2.65262e-10
9.65732e-12
1.31733e-11
-2.95666e-11
-1.28242e-11
2.71507e-10
2.36795e-11
2.82802e-11
-2.71826e-11
-2.03134e-11
2.49439e-10
4.05977e-11
5.73239e-11
-7.93309e-12
1.70876e-10
1.02936e-12
-1.90489e-13
-2.78425e-12
2.51941e-10
1.02385e-12
1.45572e-13
-5.93128e-13
-2.81391e-12
2.52237e-10
1.02933e-12
3.06895e-13
-9.98016e-13
-2.88264e-12
2.52544e-10
1.02723e-12
4.05988e-13
-1.45917e-12
-2.97767e-12
2.53003e-10
1.04968e-12
5.9093e-13
-1.95659e-12
-3.17539e-12
2.53491e-10
1.08613e-12
7.11958e-13
-2.56224e-12
-3.44231e-12
2.54206e-10
1.18632e-12
1.0272e-12
-3.28613e-12
-3.86401e-12
2.54937e-10
1.31752e-12
1.31821e-12
-4.35556e-12
-4.35898e-12
2.56082e-10
1.57438e-12
2.13703e-12
-6.50998e-12
-5.28188e-12
2.58126e-10
2.33416e-12
3.96775e-12
-1.19498e-11
-7.03348e-12
2.63025e-10
5.28674e-12
9.37943e-12
-2.20847e-11
-1.10052e-11
2.6992e-10
1.20858e-11
1.80424e-11
-3.10624e-11
-1.97138e-11
2.74444e-10
2.75237e-11
3.3317e-11
-5.70945e-11
-2.43349e-11
2.63967e-10
1.34335e-12
-2.05204e-13
-3.43347e-12
2.5229e-10
1.33955e-12
1.66534e-13
-6.53731e-13
-3.47461e-12
2.52622e-10
1.34731e-12
3.48718e-13
-1.10115e-12
-3.57435e-12
2.52979e-10
1.33106e-12
4.22475e-13
-1.65522e-12
-3.72528e-12
2.53627e-10
1.3885e-12
6.50578e-13
-2.25494e-12
-4.07227e-12
2.54288e-10
1.48799e-12
7.63721e-13
-2.9963e-12
-4.58065e-12
2.55325e-10
1.76837e-12
1.22666e-12
-3.83289e-12
-5.41724e-12
2.56257e-10
2.13791e-12
1.57463e-12
-5.27598e-12
-6.51426e-12
2.58123e-10
3.04874e-12
3.04563e-12
-8.20866e-12
-8.21801e-12
2.60702e-10
4.91855e-12
6.05194e-12
-1.54141e-11
-1.07369e-11
2.66783e-10
1.05065e-11
1.32856e-11
-2.7155e-11
-1.38853e-11
2.71442e-10
2.86268e-11
2.75497e-11
-3.70668e-11
-4.04282e-11
2.74226e-10
2.32397e-11
7.4776e-11
1.0655e-10
1.58725e-12
-2.25477e-13
-4.42701e-12
2.53065e-10
1.59951e-12
2.142e-13
-7.46829e-13
-4.48167e-12
2.53415e-10
1.62867e-12
4.43889e-13
-1.27889e-12
-4.61613e-12
2.53822e-10
1.63582e-12
4.75261e-13
-2.01983e-12
-4.86933e-12
2.54778e-10
1.7991e-12
7.81896e-13
-2.80939e-12
-5.6243e-12
2.55852e-10
2.11993e-12
9.1983e-13
-3.83419e-12
-6.93453e-12
2.57729e-10
2.86311e-12
1.73173e-12
-5.01121e-12
-9.15082e-12
2.596e-10
3.96529e-12
2.33021e-12
-7.01814e-12
-1.19552e-11
2.63021e-10
6.05301e-12
4.90371e-12
-1.0708e-11
-1.5427e-11
2.6678e-10
9.26654e-12
9.24475e-12
-1.79917e-11
-1.80528e-11
2.71655e-10
1.18745e-11
1.6106e-11
-3.01249e-11
-2.39504e-11
2.80957e-10
3.37749e-11
4.18132e-11
-2.83109e-11
-2.34225e-11
2.40848e-10
2.35928e-12
-2.40157e-13
-6.03075e-12
2.53929e-10
2.39688e-12
3.05981e-13
-8.38498e-13
-6.08797e-12
2.54227e-10
2.43331e-12
6.06594e-13
-1.505e-12
-6.26679e-12
2.54728e-10
2.41609e-12
5.72251e-13
-2.73174e-12
-6.95031e-12
2.56687e-10
2.91652e-12
1.18997e-12
-4.10282e-12
-8.99682e-12
2.58997e-10
3.99412e-12
1.62252e-12
-5.92461e-12
-1.23701e-11
2.62747e-10
6.37867e-12
3.60558e-12
-7.75738e-12
-1.7142e-11
2.65263e-10
9.37841e-12
5.27698e-12
-1.09796e-11
-2.20874e-11
2.69907e-10
1.32949e-11
1.04734e-11
-1.38593e-11
-2.71605e-11
2.71438e-10
1.61682e-11
1.18638e-11
-2.38262e-11
-3.01128e-11
2.80743e-10
4.43881e-11
4.42549e-11
-4.72371e-11
-4.74e-11
2.785e-10
3.33257e-12
-2.58746e-13
-1.08879e-11
2.58048e-10
3.47083e-12
5.95958e-13
-9.56801e-13
-1.08981e-11
2.57883e-10
3.61288e-12
9.99384e-13
-2.10376e-12
-1.0831e-11
2.58334e-10
3.99009e-12
1.20963e-12
-4.70118e-12
-1.17839e-11
2.6132e-10
5.75555e-12
2.82968e-12
-7.17772e-12
-1.57338e-11
2.64574e-10
8.54254e-12
4.51175e-12
-1.02125e-11
-2.08395e-11
2.68809e-10
1.31701e-11
9.65014e-12
-1.28134e-11
-2.95694e-11
2.71511e-10
1.8038e-11
1.20725e-11
-1.96934e-11
-3.10649e-11
2.74444e-10
2.75483e-11
2.86025e-11
-4.04026e-11
-3.70703e-11
2.74217e-10
4.17898e-11
3.3756e-11
-2.33665e-11
-2.83105e-11
2.4075e-10
8.31558e-12
6.22072e-14
-2.10452e-11
2.64379e-10
8.5654e-12
2.73572e-13
-1.08202e-13
-2.11652e-11
2.63471e-10
8.28425e-12
9.51819e-13
-2.02705e-12
-2.02088e-11
2.6365e-10
8.18438e-12
2.84679e-12
-8.425e-12
-1.91856e-11
2.6753e-10
1.19978e-11
8.30954e-12
-1.34094e-11
-2.55393e-11
2.70665e-10
1.60347e-11
1.2395e-11
-1.89775e-11
-2.8887e-11
2.73009e-10
2.82833e-11
2.36741e-11
-2.0305e-11
-2.71889e-11
2.49441e-10
3.3322e-11
2.75142e-11
-2.43249e-11
-5.7106e-11
2.63976e-10
7.4783e-11
2.32383e-11
1.06552e-10
1.59475e-11
1.22755e-12
-3.4647e-11
2.73486e-10
1.62985e-11
-1.70263e-12
2.86296e-12
-3.34093e-11
2.70446e-10
1.62971e-11
-3.30184e-12
1.84169e-12
-3.71668e-11
2.75706e-10
1.54959e-11
6.56784e-12
-1.85064e-11
-2.73626e-11
2.76672e-10
2.72002e-11
2.51468e-11
-3.76318e-11
-3.90413e-11
2.76288e-10
3.28764e-11
3.43992e-11
-3.07259e-11
-7.49498e-11
2.77665e-10
5.73331e-11
4.05839e-11
-7.92461e-12
1.7088e-10
3.7429e-11
3.47468e-12
-6.36642e-11
2.64807e-10
3.4162e-11
-6.90253e-12
1.05153e-11
-5.73266e-11
2.59281e-10
5.46272e-11
-1.34206e-11
1.92214e-12
-8.20715e-11
3.04479e-10
7.83027e-11
3.71854e-13
-2.13941e-11
1.77916e-10
7.8672e-11
1.48624e-11
6.45883e-11
-6.66308e-12
-6.66542e-12
1.01445e-09
-2.50825e-10
-2.50273e-10
-2.50272e-10
-2.49727e-10
-1.35602e-11
-6.73827e-12
1.01477e-09
-2.51402e-10
-2.49717e-10
-2.50833e-10
-2.49174e-10
-2.09258e-11
-6.9222e-12
1.01541e-09
-2.5198e-10
-2.49143e-10
-2.51391e-10
-2.48601e-10
-2.9103e-11
-7.17288e-12
1.0166e-09
-2.52636e-10
-2.48565e-10
-2.5202e-10
-2.48022e-10
-3.85508e-11
-7.60044e-12
1.01826e-09
-2.53283e-10
-2.47918e-10
-2.52635e-10
-2.47371e-10
-4.98759e-11
-8.19049e-12
1.02105e-09
-2.54122e-10
-2.47263e-10
-2.53432e-10
-2.46716e-10
-6.43097e-11
-9.0316e-12
1.02484e-09
-2.5489e-10
-2.46429e-10
-2.54157e-10
-2.45888e-10
-8.30068e-11
-1.04047e-11
1.03136e-09
-2.56162e-10
-2.45604e-10
-2.55376e-10
-2.45095e-10
-1.09681e-10
-1.19806e-11
1.04029e-09
-2.57088e-10
-2.44338e-10
-2.56288e-10
-2.43902e-10
-1.45437e-10
-1.49947e-11
1.05526e-09
-2.59506e-10
-2.43274e-10
-2.58678e-10
-2.43016e-10
-2.06708e-10
-1.60792e-11
1.08033e-09
-2.60044e-10
-2.41648e-10
-2.59442e-10
-2.41789e-10
-3.15585e-10
-1.68678e-11
1.154e-09
-2.7266e-10
-2.40796e-10
-2.72803e-10
-2.41878e-10
-5.25458e-10
-2.49101e-12
1.27936e-09
-2.98211e-10
-2.33034e-10
-2.9987e-10
-2.35692e-10
2.34052e-11
9.31597e-12
1.01528e-09
-3.35257e-10
-2.24482e-10
-3.37165e-10
-2.25481e-10
2.34576e-11
-2.36444e-10
-2.3775e-10
-2.23058e-10
-2.34432e-11
4.65191e-12
2.65394e-10
-6.74098e-12
-1.35627e-11
1.01477e-09
-2.51402e-10
-2.50834e-10
-2.49716e-10
-2.49173e-10
-1.37205e-11
-1.37153e-11
1.01512e-09
-2.52001e-10
-2.50272e-10
-2.50271e-10
-2.48621e-10
-2.1162e-11
-1.41118e-11
1.01579e-09
-2.52607e-10
-2.49697e-10
-2.50812e-10
-2.48043e-10
-2.94367e-11
-1.4624e-11
1.01702e-09
-2.53301e-10
-2.49123e-10
-2.51417e-10
-2.47452e-10
-3.8998e-11
-1.55293e-11
1.01876e-09
-2.53997e-10
-2.48488e-10
-2.51998e-10
-2.46788e-10
-5.05024e-11
-1.67277e-11
1.02167e-09
-2.54898e-10
-2.4785e-10
-2.52753e-10
-2.46123e-10
-6.51702e-11
-1.85267e-11
1.02568e-09
-2.55747e-10
-2.4705e-10
-2.53427e-10
-2.45295e-10
-8.4273e-11
-2.13726e-11
1.03253e-09
-2.57107e-10
-2.46268e-10
-2.54555e-10
-2.44527e-10
-1.11404e-10
-2.48927e-11
1.04216e-09
-2.58169e-10
-2.45097e-10
-2.55422e-10
-2.43422e-10
-1.47375e-10
-3.15776e-11
1.0577e-09
-2.60693e-10
-2.44126e-10
-2.57567e-10
-2.42759e-10
-2.08725e-10
-3.47943e-11
1.08456e-09
-2.61145e-10
-2.42877e-10
-2.58146e-10
-2.42329e-10
-3.15811e-10
-4.30058e-11
1.16381e-09
-2.72192e-10
-2.42867e-10
-2.69764e-10
-2.4576e-10
-5.248e-10
-1.91192e-11
1.30186e-09
-2.95358e-10
-2.35481e-10
-2.99225e-10
-2.46174e-10
3.69799e-11
-1.48233e-11
1.02076e-09
-3.24305e-10
-2.17585e-10
-3.38709e-10
-2.47595e-10
3.12974e-11
-2.29428e-10
-2.32071e-10
-2.15045e-10
-8.78344e-12
-1.81493e-11
2.67319e-11
2.52227e-10
-6.92326e-12
-2.09301e-11
1.01541e-09
-2.5198e-10
-2.51391e-10
-2.49143e-10
-2.486e-10
-1.41154e-11
-2.11573e-11
1.01579e-09
-2.52607e-10
-2.50811e-10
-2.49696e-10
-2.48042e-10
-2.1797e-11
-2.17952e-11
1.01652e-09
-2.53246e-10
-2.50229e-10
-2.50228e-10
-2.4745e-10
-3.04309e-11
-2.25604e-11
1.01785e-09
-2.53983e-10
-2.49646e-10
-2.50814e-10
-2.46841e-10
-4.0476e-11
-2.3996e-11
1.01974e-09
-2.54726e-10
-2.48998e-10
-2.51362e-10
-2.46141e-10
-5.27866e-11
-2.57421e-11
1.02288e-09
-2.55684e-10
-2.48358e-10
-2.52066e-10
-2.45443e-10
-6.86602e-11
-2.85719e-11
1.02732e-09
-2.56596e-10
-2.47553e-10
-2.52674e-10
-2.44571e-10
-8.98245e-11
-3.28568e-11
1.03486e-09
-2.58012e-10
-2.46765e-10
-2.53676e-10
-2.43753e-10
-1.19545e-10
-3.89078e-11
1.04551e-09
-2.59148e-10
-2.45614e-10
-2.5443e-10
-2.42588e-10
-1.58745e-10
-5.00582e-11
1.06211e-09
-2.61663e-10
-2.4467e-10
-2.56131e-10
-2.41964e-10
-2.22545e-10
-6.07212e-11
1.0949e-09
-2.61919e-10
-2.44162e-10
-2.56738e-10
-2.42357e-10
-3.37062e-10
-9.25858e-11
1.19904e-09
-2.71922e-10
-2.48617e-10
-2.65131e-10
-2.49274e-10
-5.34451e-10
-1.12616e-10
1.38925e-09
-2.94278e-10
-2.51007e-10
-2.93978e-10
-2.591e-10
4.37357e-11
-1.91872e-10
1.19006e-09
-3.35779e-10
-2.64218e-10
-3.44169e-10
-2.96371e-10
-1.8037e-11
-1.80609e-10
-1.52017e-10
-2.32447e-10
-3.95291e-11
-6.2654e-12
6.33335e-11
2.58642e-10
-7.17669e-12
-2.91088e-11
1.0166e-09
-2.52636e-10
-2.5202e-10
-2.48566e-10
-2.4802e-10
-1.46308e-11
-2.94285e-11
1.01702e-09
-2.53301e-10
-2.51419e-10
-2.49122e-10
-2.47451e-10
-2.25662e-11
-3.04252e-11
1.01785e-09
-2.53985e-10
-2.5082e-10
-2.49644e-10
-2.46841e-10
-3.14932e-11
-3.14811e-11
1.01933e-09
-2.54789e-10
-2.50238e-10
-2.50234e-10
-2.46213e-10
-4.18386e-11
-3.36804e-11
1.02146e-09
-2.55608e-10
-2.49595e-10
-2.50758e-10
-2.4548e-10
-5.46223e-11
-3.60354e-11
1.02491e-09
-2.56667e-10
-2.48977e-10
-2.51431e-10
-2.44753e-10
-7.10201e-11
-4.02941e-11
1.02998e-09
-2.57756e-10
-2.48241e-10
-2.52017e-10
-2.43851e-10
-9.31086e-11
-4.60862e-11
1.0382e-09
-2.59373e-10
-2.47572e-10
-2.52947e-10
-2.42985e-10
-1.22743e-10
-5.56929e-11
1.04968e-09
-2.61044e-10
-2.46692e-10
-2.53719e-10
-2.41809e-10
-1.62996e-10
-7.13145e-11
1.06812e-09
-2.6393e-10
-2.46273e-10
-2.5505e-10
-2.4136e-10
-2.30276e-10
-9.58192e-11
1.11745e-09
-2.66833e-10
-2.48171e-10
-2.57422e-10
-2.42652e-10
-3.69314e-10
-1.49468e-10
1.25446e-09
-2.82948e-10
-2.59951e-10
-2.68098e-10
-2.47545e-10
-4.96425e-10
-2.14793e-10
1.37725e-09
-3.15587e-10
-2.78994e-10
-2.9582e-10
-2.57563e-10
1.03757e-11
-1.55259e-11
9.59898e-10
-3.46009e-10
-3.01768e-10
-2.96517e-10
-2.32265e-10
5.19762e-11
-1.24705e-10
-1.20473e-10
7.66376e-11
-1.88971e-10
-1.60947e-10
-1.34477e-10
-2.83311e-12
-2.24319e-11
1.70117e-10
-7.60461e-12
-3.85588e-11
1.01825e-09
-2.53284e-10
-2.52633e-10
-2.47919e-10
-2.47368e-10
-1.55353e-11
-3.89866e-11
1.01876e-09
-2.53999e-10
-2.52e-10
-2.48488e-10
-2.46786e-10
-2.40001e-11
-4.04708e-11
1.01974e-09
-2.54728e-10
-2.51364e-10
-2.48996e-10
-2.46138e-10
-3.36914e-11
-4.18286e-11
1.02146e-09
-2.55608e-10
-2.50757e-10
-2.49588e-10
-2.45477e-10
-4.50152e-11
-4.50044e-11
1.02399e-09
-2.56508e-10
-2.50079e-10
-2.50078e-10
-2.44673e-10
-5.94865e-11
-4.78312e-11
1.028e-09
-2.57683e-10
-2.49448e-10
-2.50716e-10
-2.43884e-10
-7.86628e-11
-5.36629e-11
1.03414e-09
-2.5888e-10
-2.48643e-10
-2.51218e-10
-2.42852e-10
-1.05626e-10
-6.03055e-11
1.04361e-09
-2.60704e-10
-2.47876e-10
-2.52066e-10
-2.41786e-10
-1.43286e-10
-7.27029e-11
1.05718e-09
-2.62784e-10
-2.46794e-10
-2.52614e-10
-2.40314e-10
-2.02724e-10
-9.13093e-11
1.08602e-09
-2.65948e-10
-2.46689e-10
-2.54091e-10
-2.39866e-10
-3.20946e-10
-1.29162e-10
1.17448e-09
-2.7365e-10
-2.5003e-10
-2.58954e-10
-2.40281e-10
-5.02836e-10
-2.06759e-10
1.31908e-09
-3.00536e-10
-2.60876e-10
-2.79317e-10
-2.39172e-10
-5.20075e-11
-2.92143e-10
1.11255e-09
-3.30483e-10
-2.62799e-10
-2.99696e-10
-2.18411e-10
1.81989e-11
-2.06845e-10
-1.85999e-10
-2.61088e-10
-5.64446e-11
-7.97339e-11
3.29734e-10
-3.53251e-11
1.13953e-11
-1.24244e-11
3.63541e-11
-8.19564e-12
-4.98877e-11
1.02105e-09
-2.54124e-10
-2.53429e-10
-2.47265e-10
-2.4671e-10
-1.67346e-11
-5.04859e-11
1.02167e-09
-2.54902e-10
-2.52754e-10
-2.47851e-10
-2.46119e-10
-2.57471e-11
-5.27805e-11
1.02287e-09
-2.55688e-10
-2.52069e-10
-2.48355e-10
-2.45438e-10
-3.604e-11
-5.46075e-11
1.02491e-09
-2.56672e-10
-2.51436e-10
-2.48973e-10
-2.44749e-10
-4.78361e-11
-5.94784e-11
1.028e-09
-2.5768e-10
-2.50723e-10
-2.49439e-10
-2.43881e-10
-6.29772e-11
-6.29766e-11
1.03262e-09
-2.59054e-10
-2.50113e-10
-2.50103e-10
-2.4307e-10
-8.27024e-11
-7.13013e-11
1.03977e-09
-2.60532e-10
-2.4932e-10
-2.50588e-10
-2.41962e-10
-1.10249e-10
-7.82976e-11
1.04942e-09
-2.62936e-10
-2.48582e-10
-2.51475e-10
-2.40883e-10
-1.49191e-10
-9.37788e-11
1.06526e-09
-2.65618e-10
-2.47642e-10
-2.52238e-10
-2.39748e-10
-2.2132e-10
-1.14881e-10
1.11064e-09
-2.70543e-10
-2.48529e-10
-2.55847e-10
-2.40025e-10
-3.79567e-10
-1.60456e-10
1.24274e-09
-2.88589e-10
-2.54588e-10
-2.70288e-10
-2.39734e-10
-5.50675e-10
-2.37874e-10
1.33781e-09
-3.25741e-10
-2.64933e-10
-3.04101e-10
-2.40817e-10
6.58647e-12
-1.71273e-11
9.13808e-10
-3.46445e-10
-2.6996e-10
-2.95307e-10
-2.11559e-10
7.76572e-11
-2.1666e-10
-1.84034e-10
8.88161e-11
-1.95962e-10
-1.9263e-10
-2.36059e-10
3.59133e-11
-3.36925e-11
-1.80459e-11
2.5847e-10
-9.04151e-12
-6.43256e-11
1.02484e-09
-2.54895e-10
-2.54153e-10
-2.46431e-10
-2.45879e-10
-1.85389e-11
-6.5145e-11
1.02567e-09
-2.55754e-10
-2.53428e-10
-2.47051e-10
-2.45289e-10
-2.85813e-11
-6.86513e-11
1.02731e-09
-2.56602e-10
-2.52676e-10
-2.47549e-10
-2.44563e-10
-4.03021e-11
-7.09994e-11
1.02997e-09
-2.57762e-10
-2.52023e-10
-2.48235e-10
-2.43845e-10
-5.36665e-11
-7.86516e-11
1.03413e-09
-2.58884e-10
-2.51226e-10
-2.48633e-10
-2.42847e-10
-7.13004e-11
-8.27029e-11
1.03976e-09
-2.60532e-10
-2.50598e-10
-2.49307e-10
-2.41959e-10
-9.45415e-11
-9.45426e-11
1.04866e-09
-2.62299e-10
-2.49624e-10
-2.49611e-10
-2.40642e-10
-1.29184e-10
-9.97484e-11
1.05998e-09
-2.65075e-10
-2.48721e-10
-2.50421e-10
-2.39668e-10
-1.85031e-10
-1.19511e-10
1.0874e-09
-2.67385e-10
-2.47841e-10
-2.51544e-10
-2.39054e-10
-3.07047e-10
-1.39566e-10
1.17055e-09
-2.75982e-10
-2.49632e-10
-2.58276e-10
-2.39956e-10
-4.95394e-10
-2.05698e-10
1.31275e-09
-3.02915e-10
-2.53126e-10
-2.85914e-10
-2.3721e-10
-4.57168e-11
-2.67977e-10
1.09777e-09
-3.35874e-10
-2.40979e-10
-3.12732e-10
-2.16289e-10
2.17129e-11
-2.23598e-10
-2.09585e-10
-2.31169e-10
-9.04433e-11
-6.54539e-11
3.24221e-10
-1.20025e-10
-1.37373e-11
1.15898e-11
2.264e-12
1.19908e-10
-1.04199e-11
-8.30296e-11
1.03135e-09
-2.5617e-10
-2.55368e-10
-2.45607e-10
-2.45082e-10
-2.13889e-11
-8.42343e-11
1.03252e-09
-2.57118e-10
-2.54556e-10
-2.4627e-10
-2.44519e-10
-3.2864e-11
-8.98129e-11
1.03484e-09
-2.58021e-10
-2.53678e-10
-2.4676e-10
-2.43741e-10
-4.60836e-11
-9.30807e-11
1.03818e-09
-2.59383e-10
-2.52955e-10
-2.47564e-10
-2.42977e-10
-6.02831e-11
-1.05615e-10
1.0436e-09
-2.60713e-10
-2.52076e-10
-2.47865e-10
-2.41777e-10
-7.82522e-11
-1.10254e-10
1.0494e-09
-2.62944e-10
-2.51489e-10
-2.48566e-10
-2.40877e-10
-9.96749e-11
-1.29189e-10
1.05996e-09
-2.65083e-10
-2.5044e-10
-2.48706e-10
-2.39666e-10
-1.32665e-10
-1.32746e-10
1.07301e-09
-2.67642e-10
-2.49952e-10
-2.49932e-10
-2.39499e-10
-1.93908e-10
-1.6164e-10
1.11839e-09
-2.7171e-10
-2.50391e-10
-2.52982e-10
-2.39934e-10
-3.50745e-10
-1.64757e-10
1.23398e-09
-2.88477e-10
-2.55025e-10
-2.67024e-10
-2.41432e-10
-5.41216e-10
-2.14481e-10
1.33976e-09
-3.26084e-10
-2.60063e-10
-3.07972e-10
-2.46392e-10
7.73148e-12
-1.49162e-11
9.60956e-10
-3.51581e-10
-2.5028e-10
-3.24363e-10
-2.33858e-10
7.58737e-11
-2.30513e-10
-1.95393e-10
9.01868e-11
-1.80441e-10
-1.62596e-10
-2.26857e-10
2.48546e-11
-4.28429e-11
-1.20554e-11
2.64631e-10
-1.20151e-11
-1.09709e-10
1.04028e-09
-2.57101e-10
-2.56276e-10
-2.44343e-10
-2.43884e-10
-2.49273e-11
-1.11343e-10
1.04214e-09
-2.58185e-10
-2.55422e-10
-2.45099e-10
-2.4341e-10
-3.89313e-11
-1.19523e-10
1.04548e-09
-2.59162e-10
-2.5443e-10
-2.45607e-10
-2.42571e-10
-5.57035e-11
-1.22699e-10
1.04965e-09
-2.61058e-10
-2.53727e-10
-2.4668e-10
-2.41795e-10
-7.26869e-11
-1.43268e-10
1.05714e-09
-2.62801e-10
-2.52623e-10
-2.46779e-10
-2.40299e-10
-9.37346e-11
-1.49191e-10
1.06521e-09
-2.65627e-10
-2.5225e-10
-2.47619e-10
-2.39734e-10
-1.19415e-10
-1.85037e-10
1.08734e-09
-2.67393e-10
-2.5156e-10
-2.4782e-10
-2.39042e-10
-1.61515e-10
-1.93957e-10
1.11827e-09
-2.71699e-10
-2.5299e-10
-2.50358e-10
-2.39915e-10
-2.4771e-10
-2.47497e-10
1.20177e-09
-2.79738e-10
-2.5461e-10
-2.54609e-10
-2.40767e-10
-4.1709e-10
-2.10324e-10
1.29122e-09
-3.03968e-10
-2.57312e-10
-2.75773e-10
-2.39222e-10
-3.39768e-11
-2.08532e-10
1.06946e-09
-3.27918e-10
-2.40822e-10
-3.07302e-10
-2.23576e-10
3.19899e-11
-2.06567e-10
-1.84322e-10
-2.59875e-10
-5.76652e-11
-7.50423e-11
3.4369e-10
-6.37326e-11
-5.10023e-12
-8.83698e-13
6.97165e-11
-1.50551e-11
-1.45474e-10
1.05524e-09
-2.59525e-10
-2.58657e-10
-2.43279e-10
-2.42991e-10
-3.16346e-11
-1.47271e-10
1.05766e-09
-2.60721e-10
-2.57569e-10
-2.44126e-10
-2.42743e-10
-5.00863e-11
-1.58712e-10
1.06205e-09
-2.61685e-10
-2.56129e-10
-2.44655e-10
-2.41939e-10
-7.13099e-11
-1.6293e-10
1.06806e-09
-2.63954e-10
-2.5506e-10
-2.46258e-10
-2.41342e-10
-9.12536e-11
-2.027e-10
1.08596e-09
-2.65969e-10
-2.54102e-10
-2.4667e-10
-2.39847e-10
-1.14759e-10
-2.21319e-10
1.11057e-09
-2.70559e-10
-2.55863e-10
-2.48505e-10
-2.40007e-10
-1.39276e-10
-3.07097e-10
1.17042e-09
-2.75998e-10
-2.58299e-10
-2.4961e-10
-2.39939e-10
-1.64115e-10
-3.50928e-10
1.23371e-09
-2.88467e-10
-2.67057e-10
-2.5498e-10
-2.414e-10
-2.09059e-10
-4.16928e-10
1.29045e-09
-3.03926e-10
-2.75775e-10
-2.5728e-10
-2.39099e-10
-3.06333e-10
-3.06558e-10
1.33105e-09
-3.2828e-10
-2.72723e-10
-2.72516e-10
-2.6402e-10
6.7471e-11
1.21932e-11
9.29415e-10
-3.40391e-10
-2.4836e-10
-3.22345e-10
-2.29422e-10
5.88168e-11
-1.73513e-10
-1.29419e-10
7.62604e-11
-1.12561e-10
-1.03013e-10
-1.91636e-10
2.63206e-11
2.92511e-12
-1.81314e-11
2.47992e-10
-1.62003e-11
-2.06737e-10
1.0803e-09
-2.60081e-10
-2.59411e-10
-2.41654e-10
-2.41753e-10
-3.48965e-11
-2.08543e-10
1.08448e-09
-2.61191e-10
-2.58146e-10
-2.42872e-10
-2.42301e-10
-6.07909e-11
-2.22471e-10
1.0948e-09
-2.61954e-10
-2.5674e-10
-2.44136e-10
-2.42316e-10
-9.5848e-11
-2.30169e-10
1.11736e-09
-2.66866e-10
-2.57432e-10
-2.48145e-10
-2.42626e-10
-1.2914e-10
-3.20898e-10
1.17439e-09
-2.73672e-10
-2.58963e-10
-2.50005e-10
-2.40259e-10
-1.60402e-10
-3.7952e-10
1.24263e-09
-2.88595e-10
-2.70306e-10
-2.54561e-10
-2.39711e-10
-2.05524e-10
-4.95419e-10
1.31257e-09
-3.0292e-10
-2.85918e-10
-2.53104e-10
-2.37186e-10
-2.144e-10
-5.41278e-10
1.33949e-09
-3.26037e-10
-3.07911e-10
-2.59987e-10
-2.46326e-10
-2.08001e-10
-3.40391e-11
1.0692e-09
-3.27892e-10
-3.07113e-10
-2.40752e-10
-2.2346e-10
3.18607e-11
-2.06632e-10
-1.84499e-10
1.25749e-11
6.74022e-11
9.29478e-10
-3.40243e-10
-3.228e-10
-2.48613e-10
-2.29428e-10
7.65954e-11
-1.12711e-10
-1.02905e-10
5.87242e-11
-1.73363e-10
-1.29274e-10
-2.31585e-10
-4.32455e-11
-4.35801e-11
3.43178e-10
-1.70715e-11
-3.15607e-10
1.15389e-09
-2.72716e-10
-2.72743e-10
-2.40794e-10
-2.41823e-10
-4.31946e-11
-3.15408e-10
1.16361e-09
-2.72264e-10
-2.69785e-10
-2.42855e-10
-2.45716e-10
-9.26835e-11
-3.36915e-10
1.19884e-09
-2.71978e-10
-2.65146e-10
-2.48569e-10
-2.49217e-10
-1.49462e-10
-3.69174e-10
1.25433e-09
-2.8298e-10
-2.68129e-10
-2.59914e-10
-2.47525e-10
-2.06664e-10
-5.02768e-10
1.31897e-09
-3.00545e-10
-2.79346e-10
-2.60849e-10
-2.39156e-10
-2.37661e-10
-5.50639e-10
1.33769e-09
-3.25745e-10
-3.04108e-10
-2.64916e-10
-2.40809e-10
-2.67602e-10
-4.57233e-11
1.0976e-09
-3.35873e-10
-3.12723e-10
-2.40974e-10
-2.16285e-10
2.17026e-11
-2.23609e-10
-2.09593e-10
-1.48469e-11
7.73859e-12
9.60704e-10
-3.51556e-10
-3.24324e-10
-2.50269e-10
-2.33826e-10
9.02594e-11
-1.80277e-10
-1.62472e-10
7.58786e-11
-2.30508e-10
-1.95381e-10
-2.59815e-10
-7.49249e-11
-5.77227e-11
3.43576e-10
-1.91426e-10
2.62581e-11
-1.80487e-11
2.94105e-12
2.47677e-10
-2.811e-12
-5.25438e-10
1.2792e-09
-2.98273e-10
-2.99816e-10
-2.33035e-10
-2.35635e-10
-1.94251e-11
-5.24057e-10
1.30144e-09
-2.95398e-10
-2.99208e-10
-2.35457e-10
-2.4611e-10
-1.12817e-10
-5.34105e-10
1.38889e-09
-2.94308e-10
-2.93999e-10
-2.50955e-10
-2.59045e-10
-2.14857e-10
-4.96264e-10
1.37705e-09
-3.15587e-10
-2.95853e-10
-2.78936e-10
-2.57547e-10
-2.92126e-10
-5.19936e-11
1.11246e-09
-3.30471e-10
-2.99696e-10
-2.62767e-10
-2.18402e-10
1.82065e-11
-2.06839e-10
-1.85998e-10
-1.71203e-11
6.59661e-12
9.13751e-10
-3.46434e-10
-2.95311e-10
-2.69929e-10
-2.11553e-10
8.88277e-11
-1.95949e-10
-1.9261e-10
7.76634e-11
-2.1666e-10
-1.84035e-10
-2.31166e-10
-6.54414e-11
-9.04541e-11
3.24217e-10
-2.26852e-10
2.48427e-11
-1.20325e-11
-4.28476e-11
2.64628e-10
-6.37264e-11
-8.67637e-13
-5.12265e-12
6.97166e-11
8.56217e-12
2.34201e-11
1.01508e-09
-3.35272e-10
-3.37065e-10
-2.24511e-10
-2.25346e-10
2.34989e-11
-2.36541e-10
-2.37565e-10
-1.50735e-11
3.70489e-11
1.02019e-09
-3.24299e-10
-3.38669e-10
-2.17537e-10
-2.47502e-10
3.13867e-11
-2.2922e-10
-2.31822e-10
-1.92084e-10
4.38109e-11
1.18968e-09
-3.35713e-10
-3.44114e-10
-2.64124e-10
-2.96284e-10
-1.79743e-11
-1.8045e-10
-1.51931e-10
-1.55195e-11
1.03914e-11
9.59755e-10
-3.45991e-10
-2.9657e-10
-3.01688e-10
-2.32264e-10
7.66553e-11
-1.88975e-10
-1.6094e-10
5.19761e-11
-1.24699e-10
-1.20478e-10
-2.61071e-10
-7.9728e-11
-5.64432e-11
3.29729e-10
-2.3605e-10
3.5906e-11
-1.80383e-11
-3.369e-11
2.58469e-10
-1.20024e-10
1.15923e-11
-1.37446e-11
2.26728e-12
1.19909e-10
-2.23163e-10
4.45591e-12
-2.35021e-11
2.65484e-10
-2.149e-10
-8.60643e-12
2.65136e-11
-1.80462e-11
2.5209e-10
-2.32357e-10
-3.94058e-11
6.3261e-11
-6.22143e-12
2.58533e-10
-1.3447e-10
-2.82507e-12
-2.24309e-11
1.70117e-10
-3.53248e-11
-1.24283e-11
1.13975e-11
3.63556e-11
-8.7463e-12
-8.74911e-12
1.03195e-09
-1.76868e-11
-8.80727e-12
1.03254e-09
-2.7021e-11
-8.97989e-12
1.03374e-09
-3.69518e-11
-9.20156e-12
1.03574e-09
-4.78231e-11
-9.57221e-12
1.0387e-09
-5.9712e-11
-1.00694e-11
1.04302e-09
-7.34139e-11
-1.07084e-11
1.04926e-09
-8.82641e-11
-1.18326e-11
1.05805e-09
-1.06701e-10
-1.28169e-11
1.07155e-09
-1.23538e-10
-1.56336e-11
1.08773e-09
-1.42469e-10
-1.66185e-11
1.1159e-09
-1.35181e-10
-2.23152e-11
1.16908e-09
-1.39558e-10
-9.34999e-12
1.29319e-09
6.1224e-11
-9.65261e-12
9.50235e-10
6.13592e-11
-9.34071e-11
-9.38531e-11
-7.49304e-11
1.63758e-11
2.68636e-13
1.19619e-10
-8.8105e-12
-1.76903e-11
1.03254e-09
-1.78207e-11
-1.78155e-11
1.03314e-09
-2.72188e-11
-1.81805e-11
1.03439e-09
-3.72221e-11
-1.86201e-11
1.03644e-09
-4.81514e-11
-1.93851e-11
1.0395e-09
-6.01383e-11
-2.03574e-11
1.04394e-09
-7.39109e-11
-2.16741e-11
1.05042e-09
-8.89958e-11
-2.38706e-11
1.05964e-09
-1.07659e-10
-2.59385e-11
1.07394e-09
-1.25171e-10
-3.1532e-11
1.0911e-09
-1.43684e-10
-3.34832e-11
1.11994e-09
-1.3486e-10
-4.50854e-11
1.17775e-09
-1.33484e-10
-1.26802e-11
1.30381e-09
6.46749e-11
-1.76607e-11
9.49771e-10
6.49437e-11
-9.20599e-11
-9.20486e-11
-6.84784e-11
2.42229e-13
1.7551e-11
2.49441e-12
1.12866e-10
-8.98065e-12
-2.70255e-11
1.03374e-09
-1.81832e-11
-2.72114e-11
1.03439e-09
-2.77909e-11
-2.77863e-11
1.03573e-09
-3.80857e-11
-2.8397e-11
1.03792e-09
-4.93894e-11
-2.95581e-11
1.04121e-09
-6.20048e-11
-3.087e-11
1.04601e-09
-7.66848e-11
-3.27885e-11
1.05311e-09
-9.35384e-11
-3.56797e-11
1.06352e-09
-1.14769e-10
-3.86406e-11
1.07944e-09
-1.37159e-10
-4.57482e-11
1.09871e-09
-1.59991e-10
-4.82811e-11
1.13253e-09
-1.63757e-10
-5.98988e-11
1.21762e-09
-1.56493e-10
-1.09897e-11
1.38029e-09
5.72785e-11
-4.42326e-11
1.09597e-09
3.90394e-11
-8.0008e-11
-5.21373e-11
-8.23789e-11
-6.15545e-12
1.21242e-11
1.10175e-12
1.32586e-10
-9.20372e-12
-3.69574e-11
1.03574e-09
-1.86258e-11
-3.72104e-11
1.03644e-09
-2.84061e-11