/*--------------------------------*- C++ -*----------------------------------*\
| =========                 |                                                 |
| \\      /  F ield         | OpenFOAM: The Open Source CFD Toolbox           |
|  \\    /   O peration     | Version:  2.1.1                                 |
|   \\  /    A nd           | Web:      www.OpenFOAM.org                      |
|    \\/     M anipulation  |                                                 |
\*---------------------------------------------------------------------------*/
FoamFile
{
    version     2.0;
    format      ascii;
    class       volScalarField;
    location    "0.035";
    object      p;
}
// * * * * * * * * * * * * * * * * * * * * * * * * * * * * * * * * * * * * * //

dimensions      [0 2 -2 0 0 0 0];

internalField   nonuniform List<scalar> 
163952
(
0.0417008
0.0411245
0.0363883
0.0311936
0.0299969
0.0273855
0.0267955
0.0264718
0.0367084
0.0323663
0.0273248
0.0248352
0.0235917
0.0228127
0.0224985
0.0223573
0.0337395
0.0280027
0.024499
0.0228595
0.021947
0.0214092
0.0210706
0.0208904
0.0208049
0.0336093
0.0261105
0.0232762
0.0219297
0.0211745
0.0206959
0.0203764
0.0201648
0.0200387
0.0199752
0.0336105
0.0255685
0.022752
0.0214739
0.0207591
0.0202955
0.0199716
0.0197409
0.0195815
0.019481
0.0194287
0.0337397
0.0261105
0.0227519
0.0213303
0.0205679
0.0200793
0.019734
0.0194802
0.0192937
0.0191617
0.0190762
0.0190308
0.0367081
0.0280026
0.0232762
0.0214738
0.0205679
0.0200097
0.0196216
0.0193351
0.0191195
0.0189591
0.0188443
0.0187689
0.0187284
0.0323664
0.024499
0.0219297
0.0207591
0.0200793
0.0196216
0.0192882
0.0190366
0.0188455
0.0187023
0.0185993
0.0185311
0.0184944
0.0363884
0.0273249
0.0228595
0.0211745
0.0202955
0.019734
0.0193351
0.0190366
0.0188087
0.0186346
0.0185037
0.0184091
0.0183463
0.0183123
0.0311937
0.0248352
0.021947
0.0206959
0.0199716
0.0194802
0.0191195
0.0188455
0.0186346
0.0184727
0.0183507
0.0182622
0.0182033
0.0181714
0.0299969
0.0235917
0.0214092
0.0203764
0.0197409
0.0192937
0.0189591
0.0187023
0.0185037
0.0183507
0.018235
0.0181509
0.0180949
0.0180644
0.0273856
0.0228128
0.0210706
0.0201648
0.0195815
0.0191617
0.0188443
0.0185993
0.0184091
0.0182622
0.0181509
0.01807
0.0180159
0.0179865
0.0417008
0.0267955
0.0224985
0.0208904
0.0200387
0.019481
0.0190762
0.0187689
0.0185311
0.0183463
0.0182033
0.0180949
0.0180159
0.0179631
0.0179344
0.0411245
0.0264719
0.0223573
0.0208049
0.0199753
0.0194287
0.0190309
0.0187284
0.0184944
0.0183123
0.0181714
0.0180645
0.0179865
0.0179344
0.0179061
0.0235268
0.0235837
0.0225214
0.0237307
0.0224617
0.0221477
0.0221029
0.0220821
0.0226261
0.02444
0.0221273
0.0218151
0.0215547
0.021364
0.0212893
0.0212375
0.0234043
0.0221791
0.0217613
0.0213495
0.0210088
0.0207303
0.0205456
0.0204495
0.0204001
0.0221486
0.0218584
0.0214213
0.0209801
0.0205875
0.0202764
0.0200403
0.0198807
0.0197886
0.0197443
0.0221493
0.0217291
0.0212371
0.0207334
0.0203066
0.0199642
0.0197048
0.0195136
0.019382
0.0193018
0.0192632
0.0234044
0.0218586
0.0212371
0.0206534
0.0201646
0.0197868
0.0194978
0.0192801
0.0191194
0.0190072
0.0189369
0.018903
0.0226262
0.0221792
0.0214213
0.0207334
0.0201646
0.0197282
0.019399
0.0191488
0.0189596
0.0188193
0.0187204
0.0186576
0.0186271
0.02444
0.0217613
0.0209801
0.0203066
0.0197868
0.019399
0.0191063
0.0188833
0.0187139
0.0185878
0.0184983
0.018441
0.018413
0.0225214
0.0221273
0.0213495
0.0205875
0.0199642
0.0194978
0.0191488
0.0188833
0.0186798
0.0185244
0.0184083
0.0183255
0.0182723
0.0182462
0.0237307
0.0218152
0.0210088
0.0202764
0.0197048
0.0192801
0.0189596
0.0187139
0.0185244
0.0183791
0.0182701
0.0181921
0.0181419
0.0181173
0.0224618
0.0215547
0.0207303
0.0200403
0.0195136
0.0191194
0.0188193
0.0185878
0.0184083
0.0182701
0.0181661
0.0180917
0.0180436
0.01802
0.0221477
0.021364
0.0205456
0.0198807
0.019382
0.0190072
0.0187204
0.0184983
0.0183255
0.0181921
0.0180917
0.0180196
0.017973
0.0179501
0.0235268
0.0221029
0.0212893
0.0204496
0.0197886
0.0193018
0.0189369
0.0186576
0.018441
0.0182723
0.0181419
0.0180436
0.017973
0.0179274
0.0179049
0.0235837
0.0220821
0.0212376
0.0204001
0.0197443
0.0192633
0.018903
0.0186271
0.018413
0.0182462
0.0181173
0.01802
0.0179501
0.0179049
0.0178827
0.0198831
0.0198974
0.0199621
0.0203441
0.0205675
0.0204519
0.0203445
0.0203039
0.0199689
0.0208128
0.0203626
0.0202846
0.0201899
0.0201512
0.0201219
0.0200965
0.0201792
0.0203763
0.0202761
0.0201556
0.0200191
0.0198747
0.0197835
0.0197285
0.0196981
0.0205263
0.0203094
0.0201844
0.0200047
0.0198129
0.0196472
0.0195075
0.0194075
0.0193453
0.0193141
0.020527
0.0202642
0.0201114
0.01989
0.0196652
0.0194628
0.0192968
0.0191657
0.0190711
0.0190112
0.0189817
0.0201793
0.0203096
0.0201114
0.0198521
0.0195864
0.0193531
0.0191568
0.0189987
0.0188761
0.0187878
0.0187312
0.0187035
0.0199689
0.0203764
0.0201845
0.01989
0.0195864
0.0193156
0.0190875
0.0189004
0.0187515
0.0186372
0.0185548
0.0185017
0.0184756
0.0208128
0.0202761
0.0200047
0.0196652
0.0193531
0.0190875
0.018868
0.0186905
0.0185503
0.0184432
0.0183659
0.0183159
0.0182913
0.0199621
0.0203626
0.0201557
0.0198129
0.0194628
0.0191568
0.0189004
0.0186905
0.0185218
0.018389
0.0182877
0.0182145
0.0181671
0.0181438
0.0203441
0.0202847
0.0200191
0.0196472
0.0192968
0.0189987
0.0187515
0.0185503
0.018389
0.0182622
0.0181654
0.0180954
0.01805
0.0180277
0.0205676
0.0201899
0.0198747
0.0195075
0.0191657
0.0188761
0.0186372
0.0184432
0.0182877
0.0181654
0.018072
0.0180045
0.0179607
0.0179391
0.0204519
0.0201512
0.0197835
0.0194075
0.0190711
0.0187878
0.0185548
0.0183659
0.0182145
0.0180954
0.0180045
0.0179387
0.017896
0.0178749
0.0198831
0.0203445
0.0201219
0.0197285
0.0193453
0.0190112
0.0187312
0.0185017
0.0183159
0.0181671
0.01805
0.0179607
0.017896
0.0178539
0.0178332
0.0198975
0.0203039
0.0200966
0.0196981
0.0193141
0.0189817
0.0187035
0.0184757
0.0182913
0.0181438
0.0180277
0.0179391
0.0178749
0.0178332
0.0178127
0.0185358
0.0185462
0.0186529
0.0188799
0.0192107
0.0192104
0.019158
0.019136
0.0186677
0.0190936
0.0191336
0.0191212
0.019092
0.0190935
0.0190924
0.0190889
0.0188086
0.0191374
0.019125
0.0191181
0.0190895
0.0190379
0.0190023
0.018977
0.0189627
0.0192408
0.0191408
0.0191349
0.0190848
0.0190188
0.0189547
0.0188921
0.0188424
0.0188078
0.0187896
0.0192414
0.0191212
0.0191163
0.0190534
0.0189642
0.018871
0.0187854
0.018711
0.0186541
0.018616
0.0185967
0.0188086
0.0191409
0.0191162
0.0190421
0.0189336
0.0188177
0.0187076
0.0186108
0.0185306
0.0184702
0.0184303
0.0184104
0.0186678
0.0191375
0.0191349
0.0190534
0.0189336
0.0187991
0.0186674
0.0185481
0.0184465
0.0183646
0.0183036
0.0182634
0.0182434
0.0190936
0.0191251
0.0190848
0.0189642
0.0188177
0.0186674
0.0185269
0.0184038
0.0183012
0.0182197
0.0181593
0.0181196
0.0180999
0.0186529
0.0191336
0.0191181
0.0190188
0.018871
0.0187076
0.0185481
0.0184038
0.01828
0.0181779
0.0180976
0.0180384
0.0179994
0.0179801
0.0188799
0.0191212
0.0190895
0.0189547
0.0187854
0.0186108
0.0184465
0.0183012
0.018178
0.0180772
0.0179983
0.0179403
0.0179021
0.0178832
0.0192108
0.019092
0.0190379
0.0188921
0.018711
0.0185306
0.0183646
0.0182197
0.0180976
0.0179983
0.0179207
0.0178637
0.0178263
0.0178077
0.0192104
0.0190935
0.0190023
0.0188424
0.0186541
0.0184702
0.0183037
0.0181593
0.0180384
0.0179403
0.0178637
0.0178075
0.0177706
0.0177524
0.0185358
0.019158
0.0190924
0.018977
0.0188078
0.018616
0.0184303
0.0182634
0.0181196
0.0179995
0.0179021
0.0178263
0.0177706
0.0177341
0.017716
0.0185462
0.019136
0.0190889
0.0189628
0.0187896
0.0185967
0.0184104
0.0182434
0.0180999
0.0179802
0.0178832
0.0178077
0.0177524
0.017716
0.0176981
0.0178177
0.0178259
0.0178786
0.0180273
0.0182436
0.0182871
0.0182776
0.018276
0.0179035
0.0181359
0.0182437
0.0182628
0.0182684
0.0182808
0.0182891
0.0182937
0.0179934
0.0182451
0.0182714
0.0183046
0.0183231
0.0183228
0.0183199
0.0183139
0.0183097
0.0182776
0.0182671
0.0183111
0.0183246
0.018325
0.0183176
0.0183025
0.0182866
0.0182729
0.018265
0.0182779
0.0182618
0.018318
0.0183336
0.0183214
0.0182965
0.0182653
0.0182326
0.018205
0.0181851
0.0181746
0.0179934
0.0182672
0.0183179
0.0183363
0.0183185
0.0182797
0.0182323
0.0181838
0.0181394
0.0181039
0.0180793
0.0180668
0.0179036
0.0182451
0.0183111
0.0183336
0.0183186
0.0182737
0.0182137
0.0181502
0.0180904
0.0180389
0.0179989
0.0179716
0.0179579
0.0181359
0.0182714
0.0183246
0.0183214
0.0182798
0.0182138
0.0181385
0.0180644
0.0179978
0.0179422
0.0178996
0.0178709
0.0178565
0.0178786
0.0182437
0.0183046
0.018325
0.0182965
0.0182323
0.0181502
0.0180644
0.0179837
0.0179132
0.0178553
0.0178114
0.017782
0.0177672
0.0180273
0.0182629
0.0183231
0.0183176
0.0182653
0.0181838
0.0180904
0.0179978
0.0179132
0.0178404
0.0177813
0.0177368
0.0177071
0.0176923
0.0182436
0.0182684
0.0183228
0.0183025
0.0182326
0.0181394
0.0180389
0.0179422
0.0178553
0.0177813
0.0177217
0.017677
0.0176472
0.0176323
0.0182871
0.0182809
0.0183199
0.0182866
0.018205
0.0181039
0.0179989
0.0178996
0.0178114
0.0177368
0.017677
0.0176321
0.0176023
0.0175875
0.0178177
0.0182776
0.0182892
0.0183139
0.0182729
0.0181851
0.0180794
0.0179716
0.0178709
0.017782
0.0177071
0.0176472
0.0176023
0.0175726
0.0175577
0.0178259
0.018276
0.0182937
0.0183097
0.018265
0.0181746
0.0180668
0.0179579
0.0178565
0.0177672
0.0176923
0.0176323
0.0175875
0.0175578
0.0175429
0.0173075
0.0173142
0.0173266
0.0174194
0.0175445
0.0175948
0.0176
0.0176061
0.0173486
0.0174925
0.0175744
0.0176055
0.0176269
0.0176463
0.017657
0.0176631
0.0174035
0.0175748
0.0176164
0.0176605
0.0176946
0.0177155
0.0177295
0.0177353
0.0177372
0.0175754
0.0176021
0.0176604
0.0176991
0.0177285
0.0177485
0.0177589
0.0177634
0.0177638
0.0177631
0.0175756
0.0176064
0.0176772
0.0177234
0.0177492
0.0177623
0.0177649
0.0177605
0.0177539
0.0177478
0.0177442
0.0174035
0.0176022
0.0176771
0.0177319
0.0177599
0.0177675
0.017762
0.0177486
0.0177319
0.0177164
0.0177047
0.0176985
0.0173487
0.0175748
0.0176604
0.0177234
0.0177599
0.017769
0.0177586
0.0177371
0.0177109
0.017685
0.0176631
0.0176475
0.0176394
0.0174926
0.0176164
0.0176991
0.0177492
0.0177675
0.0177586
0.0177326
0.0176985
0.017663
0.0176306
0.0176044
0.0175861
0.0175768
0.0173266
0.0175744
0.0176605
0.0177285
0.0177623
0.017762
0.0177371
0.0176985
0.0176552
0.0176131
0.0175763
0.0175472
0.0175272
0.017517
0.0174194
0.0176055
0.0176947
0.0177485
0.0177649
0.0177486
0.0177109
0.017663
0.0176131
0.0175666
0.0175269
0.0174959
0.0174747
0.017464
0.0175445
0.0176269
0.0177155
0.0177589
0.0177605
0.0177319
0.017685
0.0176306
0.0175763
0.0175269
0.0174852
0.017453
0.0174312
0.0174201
0.0175948
0.0176463
0.0177295
0.0177634
0.0177539
0.0177164
0.0176632
0.0176044
0.0175472
0.0174959
0.017453
0.01742
0.0173977
0.0173865
0.0173075
0.0176
0.017657
0.0177353
0.0177638
0.0177478
0.0177048
0.0176476
0.0175861
0.0175272
0.0174747
0.0174312
0.0173977
0.0173752
0.0173638
0.0173142
0.0176061
0.0176631
0.0177372
0.0177632
0.0177442
0.0176985
0.0176395
0.0175768
0.017517
0.017464
0.0174201
0.0173865
0.0173638
0.0173524
0.0168739
0.0168815
0.016874
0.0169338
0.0170005
0.0170466
0.0170558
0.0170636
0.0168919
0.016993
0.0170402
0.0170716
0.0170968
0.0171198
0.017132
0.0171388
0.0169263
0.0170402
0.0170838
0.0171279
0.0171646
0.0171915
0.0172124
0.0172243
0.0172297
0.0170273
0.0170658
0.0171244
0.0171704
0.0172098
0.0172415
0.0172642
0.0172798
0.0172885
0.0172923
0.0170275
0.0170734
0.0171429
0.0171983
0.0172406
0.0172731
0.0172951
0.0173084
0.0173158
0.0173193
0.0173206
0.0169263
0.0170658
0.0171429
0.0172083
0.017257
0.0172904
0.0173111
0.0173213
0.0173245
0.0173241
0.0173224
0.0173212
0.016892
0.0170402
0.0171245
0.0171983
0.0172571
0.0172962
0.0173176
0.0173255
0.0173245
0.0173187
0.0173116
0.0173057
0.0173024
0.016993
0.0170838
0.0171704
0.0172406
0.0172904
0.0173176
0.0173264
0.0173227
0.0173121
0.0172991
0.017287
0.0172778
0.0172729
0.016874
0.0170402
0.0171279
0.0172098
0.0172731
0.0173111
0.0173255
0.0173227
0.0173094
0.0172914
0.017273
0.0172571
0.0172456
0.0172396
0.0169338
0.0170716
0.0171646
0.0172415
0.0172951
0.0173213
0.0173245
0.0173121
0.0172914
0.0172679
0.0172456
0.017227
0.0172139
0.0172071
0.0170005
0.0170968
0.0171915
0.0172643
0.0173084
0.0173245
0.0173187
0.0172991
0.017273
0.0172456
0.0172205
0.0172001
0.0171858
0.0171785
0.0170466
0.0171198
0.0172124
0.0172798
0.0173159
0.0173241
0.0173116
0.017287
0.0172571
0.017227
0.0172001
0.0171785
0.0171635
0.0171558
0.0168739
0.0170558
0.017132
0.0172243
0.0172885
0.0173193
0.0173224
0.0173057
0.0172778
0.0172456
0.0172139
0.0171858
0.0171635
0.017148
0.0171401
0.0168815
0.0170636
0.0171388
0.0172297
0.0172923
0.0173206
0.0173212
0.0173024
0.017273
0.0172396
0.0172071
0.0171785
0.0171558
0.0171401
0.0171321
0.0164837
0.0164917
0.0164804
0.0165196
0.0165514
0.0165898
0.0165997
0.0166074
0.0164937
0.0165708
0.016592
0.0166196
0.0166433
0.0166661
0.0166787
0.0166858
0.0165167
0.0165919
0.016632
0.0166723
0.0167067
0.0167337
0.016756
0.01677
0.0167769
0.0165739
0.0166135
0.0166674
0.0167129
0.0167539
0.016789
0.0168165
0.0168372
0.0168501
0.0168563
0.016574
0.0166213
0.0166845
0.0167399
0.0167875
0.0168281
0.01686
0.0168831
0.016899
0.0169086
0.016913
0.0165167
0.0166135
0.0166844
0.0167496
0.0168055
0.0168513
0.0168866
0.0169115
0.0169277
0.0169376
0.0169431
0.0169455
0.0164937
0.0165919
0.0166674
0.0167399
0.0168055
0.0168592
0.0168991
0.0169259
0.0169423
0.0169511
0.0169552
0.0169568
0.0169573
0.0165708
0.0166321
0.0167129
0.0167875
0.0168513
0.0168991
0.0169303
0.0169481
0.0169562
0.0169583
0.0169575
0.0169558
0.0169547
0.0164804
0.016592
0.0166723
0.0167539
0.0168281
0.0168866
0.0169259
0.0169481
0.0169574
0.0169585
0.0169551
0.0169503
0.0169461
0.0169437
0.0165196
0.0166196
0.0167067
0.016789
0.01686
0.0169115
0.0169423
0.0169562
0.0169585
0.0169539
0.0169463
0.0169386
0.0169325
0.0169292
0.0165514
0.0166433
0.0167337
0.0168165
0.0168831
0.0169277
0.0169511
0.0169583
0.0169551
0.0169463
0.0169357
0.0169257
0.0169183
0.0169143
0.0165898
0.0166661
0.016756
0.0168372
0.016899
0.0169377
0.0169552
0.0169575
0.0169503
0.0169386
0.0169257
0.0169143
0.0169059
0.0169015
0.0164836
0.0165997
0.0166787
0.01677
0.0168501
0.0169086
0.0169431
0.0169568
0.0169558
0.0169461
0.0169325
0.0169183
0.0169059
0.0168969
0.0168922
0.0164917
0.0166074
0.0166858
0.0167769
0.0168563
0.016913
0.0169455
0.0169573
0.0169547
0.0169438
0.0169292
0.0169143
0.0169015
0.0168922
0.0168874
0.0161281
0.0161357
0.0161268
0.0161531
0.0161643
0.0161951
0.0162042
0.0162109
0.0161366
0.016198
0.016202
0.0162252
0.0162458
0.0162664
0.0162782
0.016285
0.0161532
0.016202
0.0162372
0.0162725
0.0163031
0.0163278
0.0163489
0.0163628
0.01637
0.0161834
0.0162199
0.0162674
0.0163092
0.0163479
0.0163822
0.0164103
0.0164324
0.0164469
0.0164541
0.0161835
0.0162269
0.0162824
0.0163337
0.0163806
0.0164229
0.0164585
0.0164862
0.0165065
0.0165194
0.0165257
0.0161532
0.0162199
0.0162823
0.0163425
0.0163983
0.0164482
0.0164901
0.0165229
0.0165469
0.0165634
0.0165735
0.0165783
0.0161366
0.016202
0.0162674
0.0163336
0.0163983
0.0164568
0.0165057
0.0165435
0.0165708
0.0165895
0.0166015
0.0166085
0.0166117
0.016198
0.0162372
0.0163092
0.0163806
0.0164482
0.0165057
0.01655
0.0165817
0.0166028
0.016616
0.0166237
0.0166278
0.0166296
0.0161268
0.016202
0.0162725
0.0163479
0.0164229
0.0164901
0.0165435
0.0165817
0.0166068
0.016622
0.0166303
0.0166343
0.016636
0.0166366
0.0161531
0.0162252
0.0163031
0.0163822
0.0164585
0.0165229
0.0165708
0.0166028
0.016622
0.0166321
0.0166363
0.0166374
0.0166372
0.0166368
0.0161643
0.0162458
0.0163278
0.0164103
0.0164862
0.0165469
0.0165895
0.016616
0.0166303
0.0166363
0.0166375
0.0166364
0.0166348
0.0166337
0.0161951
0.0162664
0.0163489
0.0164324
0.0165065
0.0165634
0.0166015
0.0166237
0.0166343
0.0166374
0.0166364
0.0166337
0.016631
0.0166295
0.016128
0.0162042
0.0162782
0.0163628
0.0164469
0.0165194
0.0165735
0.0166085
0.0166278
0.016636
0.0166372
0.0166348
0.016631
0.0166277
0.0166259
0.0161356
0.0162109
0.016285
0.01637
0.0164541
0.0165257
0.0165783
0.0166117
0.0166296
0.0166366
0.0166368
0.0166337
0.0166295
0.0166259
0.0166238
0.0158018
0.0158084
0.0158028
0.0158209
0.0158194
0.015844
0.0158518
0.0158573
0.0158103
0.0158605
0.015853
0.0158723
0.0158897
0.0159074
0.0159178
0.0159238
0.0158233
0.0158533
0.0158834
0.0159138
0.0159403
0.015962
0.0159809
0.0159937
0.0160004
0.0158362
0.0158683
0.0159092
0.0159462
0.015981
0.0160125
0.0160391
0.0160604
0.0160749
0.0160822
0.0158363
0.0158744
0.0159222
0.0159678
0.0160112
0.0160517
0.0160872
0.016116
0.0161378
0.0161522
0.0161593
0.0158233
0.0158683
0.0159222
0.0159756
0.0160276
0.0160767
0.0161202
0.0161562
0.016184
0.0162041
0.016217
0.0162232
0.0158104
0.0158533
0.0159092
0.0159678
0.0160276
0.0160853
0.0161369
0.0161798
0.0162133
0.016238
0.016255
0.0162656
0.0162707
0.0158605
0.0158834
0.0159462
0.0160112
0.0160767
0.0161369
0.0161875
0.0162272
0.0162566
0.0162773
0.016291
0.0162993
0.0163031
0.0158028
0.015853
0.0159138
0.015981
0.0160517
0.0161202
0.0161798
0.0162273
0.0162625
0.0162874
0.0163041
0.0163147
0.0163209
0.0163237
0.0158209
0.0158723
0.0159403
0.0160125
0.0160872
0.0161562
0.0162133
0.0162566
0.0162874
0.0163081
0.0163213
0.0163293
0.0163337
0.0163357
0.0158194
0.0158897
0.015962
0.0160391
0.016116
0.016184
0.016238
0.0162773
0.0163041
0.0163213
0.0163318
0.0163377
0.0163407
0.016342
0.015844
0.0159074
0.0159809
0.0160604
0.0161378
0.0162041
0.016255
0.016291
0.0163147
0.0163293
0.0163377
0.0163421
0.0163442
0.0163449
0.0158016
0.0158518
0.0159178
0.0159937
0.0160749
0.0161522
0.016217
0.0162656
0.0162993
0.0163209
0.0163337
0.0163407
0.0163442
0.0163456
0.0163461
0.0158082
0.0158573
0.0159238
0.0160004
0.0160822
0.0161593
0.0162232
0.0162707
0.0163031
0.0163237
0.0163357
0.016342
0.0163449
0.0163461
0.0163464
0.015499
0.0155046
0.0155017
0.0155149
0.0155045
0.0155242
0.0155306
0.0155351
0.0155078
0.0155494
0.015534
0.0155499
0.0155645
0.0155794
0.0155881
0.0155933
0.0155186
0.0155347
0.0155602
0.015586
0.0156087
0.0156272
0.0156436
0.0156548
0.0156607
0.0155199
0.0155475
0.0155824
0.0156144
0.0156447
0.0156726
0.0156965
0.0157161
0.0157296
0.0157365
0.01552
0.015553
0.0155937
0.0156333
0.0156719
0.0157088
0.015742
0.0157698
0.0157913
0.0158058
0.0158131
0.0155186
0.0155475
0.0155936
0.0156401
0.0156866
0.0157322
0.0157742
0.0158102
0.0158391
0.0158606
0.0158747
0.0158816
0.0155079
0.0155347
0.0155824
0.0156333
0.0156866
0.0157403
0.0157907
0.0158347
0.0158707
0.0158984
0.0159183
0.0159311
0.0159373
0.0155494
0.0155602
0.0156144
0.0156718
0.0157322
0.0157907
0.0158429
0.0158862
0.0159202
0.0159453
0.0159629
0.015974
0.0159793
0.0155017
0.0155339
0.015586
0.0156447
0.0157088
0.0157742
0.0158347
0.0158862
0.0159272
0.0159581
0.0159804
0.0159956
0.016005
0.0160094
0.0155149
0.0155499
0.0156087
0.0156726
0.015742
0.0158102
0.0158707
0.0159202
0.0159581
0.015986
0.0160055
0.0160185
0.0160264
0.0160301
0.0155045
0.0155645
0.0156272
0.0156965
0.0157698
0.0158391
0.0158984
0.0159453
0.0159804
0.0160055
0.0160227
0.016034
0.0160407
0.0160438
0.0155242
0.0155794
0.0156436
0.0157161
0.0157913
0.0158606
0.0159183
0.0159629
0.0159956
0.0160185
0.016034
0.0160439
0.0160497
0.0160523
0.0154988
0.0155306
0.0155881
0.0156548
0.0157296
0.0158058
0.0158747
0.0159311
0.015974
0.016005
0.0160264
0.0160407
0.0160497
0.0160549
0.0160573
0.0155044
0.0155351
0.0155933
0.0156607
0.0157365
0.0158131
0.0158817
0.0159373
0.0159793
0.0160094
0.0160301
0.0160438
0.0160523
0.0160573
0.0160595
0.0152147
0.0152193
0.0152185
0.0152289
0.0152118
0.0152277
0.0152328
0.0152365
0.0152238
0.0152589
0.0152375
0.0152508
0.0152628
0.0152752
0.0152823
0.0152867
0.0152331
0.0152389
0.0152604
0.0152821
0.0153012
0.0153168
0.0153305
0.01534
0.0153451
0.0152265
0.0152502
0.0152797
0.0153068
0.0153327
0.0153568
0.0153776
0.0153948
0.0154068
0.015413
0.0152266
0.0152551
0.0152896
0.0153233
0.0153567
0.0153891
0.015419
0.0154444
0.0154646
0.0154783
0.0154852
0.0152331
0.0152502
0.0152895
0.0153293
0.0153698
0.0154104
0.015449
0.0154831
0.0155112
0.0155325
0.0155467
0.0155538
0.0152238
0.0152389
0.0152797
0.0153233
0.0153698
0.0154179
0.0154647
0.0155071
0.015543
0.0155715
0.0155925
0.0156062
0.0156129
0.0152589
0.0152604
0.0153068
0.0153567
0.0154104
0.0154647
0.0155152
0.0155589
0.0155945
0.0156219
0.0156416
0.0156543
0.0156605
0.0152185
0.0152375
0.0152821
0.0153327
0.0153891
0.015449
0.0155071
0.0155589
0.0156021
0.0156362
0.0156618
0.0156798
0.0156913
0.0156968
0.0152289
0.0152508
0.0153012
0.0153568
0.015419
0.0154831
0.015543
0.0155945
0.0156362
0.0156683
0.0156919
0.0157083
0.0157186
0.0157236
0.0152118
0.0152628
0.0153168
0.0153776
0.0154444
0.0155112
0.0155715
0.0156219
0.0156618
0.0156919
0.0157138
0.0157287
0.0157381
0.0157425
0.0152277
0.0152752
0.0153305
0.0153948
0.0154646
0.0155325
0.0155925
0.0156416
0.0156798
0.0157083
0.0157287
0.0157426
0.0157512
0.0157553
0.0152145
0.0152328
0.0152823
0.01534
0.0154068
0.0154783
0.0155467
0.0156062
0.0156543
0.0156913
0.0157186
0.0157381
0.0157512
0.0157593
0.0157631
0.0152192
0.0152365
0.0152867
0.0153451
0.015413
0.0154852
0.0155538
0.0156129
0.0156605
0.0156968
0.0157236
0.0157425
0.0157553
0.0157631
0.0157668
0.0149447
0.0149485
0.0149493
0.0149583
0.0149359
0.014949
0.0149528
0.0149559
0.0149543
0.0149843
0.0149587
0.0149697
0.0149796
0.0149897
0.0149953
0.0149989
0.0149627
0.0149609
0.0149788
0.014997
0.0150127
0.0150255
0.0150368
0.0150445
0.0150488
0.014951
0.0149711
0.0149959
0.0150185
0.0150401
0.0150602
0.0150778
0.0150924
0.0151026
0.015108
0.0149511
0.0149756
0.0150047
0.015033
0.015061
0.0150887
0.0151145
0.0151369
0.0151549
0.0151673
0.0151737
0.0149627
0.0149711
0.0150047
0.0150382
0.0150725
0.0151076
0.0151417
0.0151725
0.0151985
0.0152186
0.0152322
0.0152391
0.0149543
0.0149609
0.0149959
0.0150329
0.0150725
0.0151142
0.015156
0.0151951
0.0152291
0.0152567
0.0152776
0.0152914
0.0152982
0.0149843
0.0149788
0.0150185
0.015061
0.0151076
0.015156
0.0152027
0.0152446
0.0152798
0.0153076
0.0153281
0.0153415
0.0153481
0.0149493
0.0149587
0.014997
0.0150401
0.0150886
0.0151417
0.0151951
0.0152446
0.0152875
0.0153225
0.0153496
0.0153691
0.0153817
0.0153879
0.0149583
0.0149697
0.0150127
0.0150602
0.0151145
0.0151725
0.0152291
0.0152798
0.0153225
0.0153566
0.0153825
0.0154009
0.0154127
0.0154185
0.0149359
0.0149796
0.0150255
0.0150778
0.0151369
0.0151985
0.0152567
0.0153076
0.0153496
0.0153825
0.0154071
0.0154245
0.0154356
0.015441
0.014949
0.0149897
0.0150368
0.0150924
0.0151549
0.0152186
0.0152776
0.0153281
0.0153691
0.0154009
0.0154245
0.0154411
0.0154516
0.0154567
0.0149446
0.0149528
0.0149953
0.0150445
0.0151026
0.0151673
0.0152322
0.0152914
0.0153415
0.0153817
0.0154127
0.0154356
0.0154516
0.0154617
0.0154666
0.0149484
0.0149559
0.0149989
0.0150488
0.015108
0.0151737
0.0152391
0.0152982
0.0153481
0.0153879
0.0154185
0.015441
0.0154567
0.0154666
0.0154713
0.0146857
0.014689
0.0146913
0.0146992
0.0146735
0.0146843
0.0146867
0.0146893
0.0146964
0.0147225
0.0146939
0.0147029
0.0147109
0.014719
0.014723
0.0147259
0.0147045
0.014697
0.0147119
0.0147268
0.0147395
0.0147496
0.0147584
0.0147644
0.0147678
0.0146901
0.0147069
0.0147273
0.0147456
0.014763
0.0147793
0.0147935
0.0148054
0.0148137
0.0148182
0.0146902
0.0147113
0.0147354
0.0147583
0.0147811
0.0148038
0.0148253
0.0148443
0.0148598
0.0148705
0.0148761
0.0147045
0.0147069
0.0147354
0.014763
0.0147911
0.0148202
0.0148492
0.0148761
0.0148993
0.0149174
0.0149299
0.0149362
0.0146964
0.014697
0.0147273
0.0147583
0.0147911
0.0148261
0.0148621
0.0148966
0.0149276
0.0149533
0.0149731
0.0149863
0.014993
0.0147225
0.0147119
0.0147456
0.0147811
0.0148202
0.0148621
0.0149037
0.0149422
0.0149755
0.0150025
0.0150227
0.0150361
0.0150427
0.0146913
0.0146939
0.0147268
0.014763
0.0148038
0.0148492
0.0148966
0.0149422
0.0149829
0.0150172
0.0150443
0.0150643
0.0150774
0.0150839
0.0146992
0.0147029
0.0147395
0.0147793
0.0148253
0.0148761
0.0149276
0.0149755
0.0150172
0.0150515
0.0150782
0.0150977
0.0151103
0.0151165
0.0146735
0.0147109
0.0147496
0.0147935
0.0148443
0.0148993
0.0149533
0.0150025
0.0150443
0.0150782
0.0151043
0.0151231
0.0151352
0.0151411
0.0146843
0.0147189
0.0147584
0.0148054
0.0148598
0.0149174
0.0149731
0.0150227
0.0150643
0.0150977
0.0151231
0.0151413
0.015153
0.0151587
0.0146857
0.0146867
0.014723
0.0147644
0.0148137
0.0148705
0.0149299
0.0149863
0.0150361
0.0150774
0.0151103
0.0151352
0.015153
0.0151644
0.01517
0.014689
0.0146893
0.0147259
0.0147678
0.0148182
0.0148761
0.0149362
0.014993
0.0150427
0.0150839
0.0151165
0.0151411
0.0151587
0.01517
0.0151755
0.0144354
0.0144384
0.0144421
0.0144493
0.0144222
0.0144311
0.0144317
0.0144339
0.0144477
0.0144711
0.0144407
0.014448
0.0144539
0.01446
0.0144625
0.0144647
0.0144559
0.014445
0.0144569
0.0144687
0.0144785
0.0144859
0.0144923
0.0144964
0.0144989
0.0144423
0.0144551
0.0144711
0.0144851
0.0144983
0.0145107
0.0145215
0.0145306
0.014537
0.0145405
0.0144423
0.0144597
0.0144788
0.0144964
0.0145137
0.0145313
0.0145484
0.0145637
0.0145763
0.0145853
0.01459
0.0144559
0.0144551
0.0144788
0.0145005
0.0145223
0.0145453
0.0145689
0.0145913
0.0146111
0.014627
0.014638
0.0146436
0.0144477
0.014445
0.0144711
0.0144964
0.0145223
0.0145503
0.01458
0.0146095
0.0146366
0.0146598
0.0146779
0.0146902
0.0146964
0.0144711
0.0144569
0.0144851
0.0145137
0.0145453
0.01458
0.0146157
0.01465
0.0146804
0.0147057
0.014725
0.0147379
0.0147444
0.0144421
0.0144407
0.0144687
0.0144983
0.0145313
0.0145689
0.0146095
0.01465
0.0146874
0.0147199
0.0147461
0.0147658
0.0147788
0.0147853
0.0144493
0.014448
0.0144785
0.0145107
0.0145483
0.0145913
0.0146366
0.0146804
0.0147199
0.0147532
0.0147797
0.0147993
0.0148122
0.0148186
0.0144221
0.0144539
0.0144859
0.0145215
0.0145637
0.0146111
0.0146598
0.0147057
0.0147461
0.0147797
0.0148061
0.0148254
0.0148381
0.0148443
0.0144311
0.01446
0.0144923
0.0145306
0.0145763
0.014627
0.0146779
0.014725
0.0147658
0.0147993
0.0148254
0.0148445
0.0148569
0.014863
0.0144353
0.0144317
0.0144625
0.0144964
0.014537
0.0145853
0.014638
0.0146902
0.0147379
0.0147788
0.0148122
0.0148381
0.0148569
0.0148691
0.0148751
0.0144384
0.0144339
0.0144647
0.0144989
0.0145405
0.01459
0.0146436
0.0146964
0.0147444
0.0147853
0.0148186
0.0148443
0.014863
0.0148751
0.014881
0.0141915
0.0141943
0.0142
0.0142073
0.014181
0.0141877
0.014186
0.0141876
0.0142062
0.0142281
0.0141975
0.0142029
0.0142066
0.0142105
0.0142111
0.0142126
0.0142152
0.0142027
0.0142117
0.0142204
0.0142271
0.0142316
0.0142354
0.0142375
0.0142391
0.0142086
0.0142137
0.0142251
0.0142345
0.0142432
0.0142515
0.0142588
0.014265
0.0142694
0.0142718
0.0142086
0.0142191
0.0142325
0.0142442
0.0142558
0.0142681
0.0142805
0.0142921
0.0143019
0.014309
0.0143127
0.0142152
0.0142137
0.0142325
0.0142478
0.0142629
0.0142796
0.0142975
0.0143154
0.0143317
0.0143451
0.0143545
0.0143594
0.0142062
0.0142027
0.0142251
0.0142442
0.0142629
0.0142837
0.0143069
0.014331
0.0143541
0.0143744
0.0143905
0.0144017
0.0144074
0.0142281
0.0142117
0.0142345
0.0142558
0.0142796
0.0143069
0.0143365
0.014366
0.0143932
0.0144163
0.0144343
0.0144464
0.0144526
0.0142
0.0141975
0.0142204
0.0142432
0.0142681
0.0142975
0.014331
0.014366
0.0143997
0.0144296
0.0144544
0.0144733
0.014486
0.0144923
0.0142073
0.0142029
0.0142271
0.0142515
0.0142805
0.0143154
0.0143541
0.0143932
0.0144296
0.0144612
0.0144869
0.0145062
0.014519
0.0145254
0.014181
0.0142066
0.0142316
0.0142588
0.0142921
0.0143317
0.0143744
0.0144163
0.0144544
0.0144869
0.0145129
0.0145323
0.0145451
0.0145514
0.0141877
0.0142105
0.0142354
0.014265
0.0143019
0.0143451
0.0143905
0.0144343
0.0144733
0.0145062
0.0145323
0.0145516
0.0145643
0.0145705
0.0141915
0.014186
0.0142111
0.0142375
0.0142694
0.014309
0.0143545
0.0144017
0.0144464
0.014486
0.014519
0.0145451
0.0145643
0.0145769
0.0145831
0.0141943
0.0141876
0.0142126
0.0142391
0.0142718
0.0143127
0.0143594
0.0144074
0.0144526
0.0144923
0.0145254
0.0145514
0.0145706
0.0145831
0.0145893
0.0139515
0.0139541
0.0139628
0.0139712
0.0139502
0.0139536
0.0139482
0.0139489
0.0139694
0.0139921
0.0139634
0.0139664
0.0139671
0.0139682
0.0139666
0.0139671
0.0139801
0.0139689
0.0139749
0.0139796
0.0139827
0.0139838
0.0139847
0.0139847
0.0139852
0.0140007
0.0139806
0.0139867
0.0139907
0.0139943
0.0139982
0.0140018
0.0140052
0.0140075
0.014009
0.0140007
0.0139876
0.0139932
0.0139984
0.0140037
0.0140105
0.0140184
0.0140263
0.0140334
0.0140387
0.0140416
0.0139801
0.0139807
0.0139931
0.0140014
0.0140092
0.0140194
0.0140319
0.0140454
0.0140584
0.0140694
0.0140773
0.0140815
0.0139694
0.0139689
0.0139867
0.0139984
0.0140092
0.0140226
0.0140395
0.0140585
0.0140777
0.0140952
0.0141094
0.0141194
0.0141245
0.0139921
0.0139749
0.0139907
0.0140037
0.0140194
0.0140395
0.0140632
0.0140882
0.0141121
0.014133
0.0141495
0.0141609
0.0141667
0.0139628
0.0139634
0.0139796
0.0139943
0.0140105
0.0140319
0.0140585
0.0140882
0.014118
0.0141453
0.0141685
0.0141864
0.0141986
0.0142047
0.0139712
0.0139664
0.0139827
0.0139982
0.0140184
0.0140454
0.0140777
0.0141121
0.0141453
0.014175
0.0141995
0.0142182
0.0142308
0.0142371
0.0139502
0.0139671
0.0139838
0.0140018
0.0140263
0.0140584
0.0140952
0.014133
0.0141685
0.0141995
0.0142248
0.0142439
0.0142566
0.0142629
0.0139536
0.0139682
0.0139847
0.0140052
0.0140334
0.0140694
0.0141094
0.0141495
0.0141864
0.0142182
0.0142439
0.0142631
0.0142758
0.0142821
0.0139515
0.0139482
0.0139665
0.0139847
0.0140075
0.0140387
0.0140773
0.0141194
0.0141609
0.0141986
0.0142308
0.0142566
0.0142758
0.0142885
0.0142948
0.0139541
0.0139489
0.0139671
0.0139852
0.014009
0.0140416
0.0140815
0.0141245
0.0141667
0.0142047
0.0142371
0.0142629
0.0142822
0.0142948
0.0143011
0.0137097
0.0137121
0.0137255
0.0137385
0.0137333
0.0137287
0.0137167
0.0137157
0.0137327
0.0137628
0.0137384
0.0137372
0.0137333
0.0137302
0.0137256
0.0137249
0.0137483
0.013742
0.0137444
0.013743
0.013741
0.013738
0.0137361
0.0137338
0.0137333
0.0138448
0.0137582
0.0137516
0.0137493
0.0137472
0.0137462
0.0137461
0.0137471
0.0137477
0.0137484
0.0138448
0.0137734
0.0137579
0.0137539
0.0137528
0.0137543
0.0137579
0.0137626
0.0137676
0.0137714
0.0137736
0.0137483
0.0137582
0.0137579
0.013756
0.0137562
0.0137604
0.0137681
0.013778
0.0137882