/*--------------------------------*- C++ -*----------------------------------*\
| =========                 |                                                 |
| \\      /  F ield         | OpenFOAM: The Open Source CFD Toolbox           |
|  \\    /   O peration     | Version:  2.1.1                                 |
|   \\  /    A nd           | Web:      www.OpenFOAM.org                      |
|    \\/     M anipulation  |                                                 |
\*---------------------------------------------------------------------------*/
FoamFile
{
    version     2.0;
    format      ascii;
    class       volScalarField;
    location    "0.005";
    object      p;
}
// * * * * * * * * * * * * * * * * * * * * * * * * * * * * * * * * * * * * * //

dimensions      [0 2 -2 0 0 0 0];

internalField   nonuniform List<scalar> 
10233
(
0.145849
0.152459
0.146882
0.14267
0.140354
0.138822
0.137901
0.137154
0.136591
0.136116
0.13574
0.135431
0.135195
0.135018
0.134897
0.144515
0.152055
0.147687
0.142963
0.140413
0.138838
0.137904
0.137153
0.136583
0.136106
0.13573
0.135418
0.135184
0.135007
0.134883
0.118978
0.151355
0.14927
0.143711
0.140715
0.139019
0.138024
0.137241
0.136658
0.136169
0.135782
0.135472
0.135239
0.135056
0.134922
0.152181
0.149961
0.144608
0.141189
0.139318
0.138217
0.137395
0.136788
0.13629
0.135896
0.135586
0.135345
0.135144
0.135008
0.148698
0.151034
0.146609
0.142384
0.139986
0.138619
0.137684
0.137028
0.136504
0.136097
0.135765
0.135503
0.135296
0.135158
0.135993
0.151174
0.148576
0.143928
0.140845
0.139131
0.138056
0.137337
0.136774
0.136354
0.136002
0.135722
0.135507
0.135357
0.154613
0.151931
0.146578
0.142288
0.139958
0.138614
0.137793
0.137166
0.136711
0.136324
0.136032
0.135793
0.135631
0.139686
0.153081
0.149228
0.143841
0.140905
0.139286
0.138361
0.137659
0.137164
0.136727
0.136406
0.136131
0.135949
0.152239
0.152546
0.146103
0.142373
0.140329
0.139243
0.138386
0.137828
0.137307
0.13693
0.136598
0.136384
0.136548
0.154198
0.150088
0.14459
0.141987
0.140634
0.139466
0.138764
0.138081
0.137569
0.137108
0.136837
0.144514
0.153879
0.149587
0.145358
0.143216
0.141374
0.140353
0.139326
0.138591
0.137924
0.137568
0.144819
0.157783
0.152051
0.147447
0.144524
0.142803
0.14123
0.139953
0.138906
0.138365
0.153637
0.152581
0.149008
0.146598
0.144362
0.142583
0.141385
0.140665
0.128686
0.1487
0.151236
0.147893
0.144823
0.145621
0.145152
0.133261
0.127538
0.158177
0.160508
0.108198
0.0953122
0.0974663
0.0935841
0.092932
0.091317
0.0906642
0.0898414
0.0893792
0.0889124
0.0886109
0.0883444
0.0881747
0.0880528
0.0879984
0.107052
0.0947382
0.0972827
0.0935783
0.0929521
0.091389
0.0907247
0.0899092
0.0894404
0.0889736
0.0886685
0.0884011
0.0882328
0.0881103
0.0880536
0.100903
0.0955351
0.0979569
0.0943354
0.0934754
0.0918155
0.0910207
0.0901459
0.089631
0.0891367
0.0888147
0.0885395
0.0883687
0.0882368
0.0881767
0.0967435
0.0961016
0.0945438
0.0933662
0.092027
0.0911883
0.0903502
0.0898243
0.0893286
0.0890032
0.0887254
0.0885448
0.0884051
0.0883463
0.121001
0.0988745
0.0967085
0.0947454
0.0929367
0.0918448
0.090839
0.0902305
0.0896756
0.0893254
0.0890117
0.0888204
0.0886728
0.0886124
0.105252
0.098568
0.0962203
0.0948519
0.0931942
0.0921913
0.0912111
0.0906085
0.0900271
0.0896801
0.0893345
0.0891411
0.0889775
0.0889137
0.128542
0.0991407
0.097157
0.0946434
0.0932804
0.0920162
0.0913207
0.0906118
0.0902352
0.0898305
0.0896353
0.0894445
0.0893801
0.110225
0.0990562
0.0965852
0.0950065
0.0937906
0.0926305
0.0920173
0.0912158
0.0908435
0.0903565
0.0901498
0.0899134
0.0898416
0.127579
0.0997997
0.0967722
0.0956819
0.0937994
0.0932875
0.0922004
0.091852
0.0911967
0.0910255
0.0907301
0.0906646
0.106848
0.0971847
0.0970865
0.0967757
0.0950161
0.0946523
0.0932048
0.0929458
0.0920372
0.0918214
0.0913967
0.0913161
0.134021
0.0972627
0.0998344
0.0966152
0.0971761
0.0948693
0.0947593
0.0933808
0.0934847
0.0929622
0.0929318
0.131981
0.131734
0.0990673
0.0991569
0.0962364
0.0967241
0.0945629
0.0943456
0.0935938
0.0935797
0.130484
0.130137
0.0985878
0.0988944
0.0961261
0.0979767
0.0972968
0.0974671
0.106093
0.124291
0.128025
0.096776
0.0955493
0.0947714
0.0952964
0.125533
0.123741
0.128369
0.13142
0.107401
0.104796
0.108123
0.107552
0.108074
0.107419
0.107208
0.106714
0.106417
0.106073
0.105837
0.105621
0.105478
0.105374
0.105326
0.107543
0.104676
0.10795
0.107606
0.10807
0.107468
0.107243
0.106761
0.106461
0.10612
0.105885
0.105668
0.105526
0.105421
0.105373
0.109531
0.105824
0.108475
0.108089
0.108336
0.107706
0.107416
0.106913
0.106593
0.106242
0.105999
0.105779
0.105635
0.105528
0.105478
0.104718
0.107541
0.108048
0.108185
0.107799
0.107495
0.107044
0.106725
0.106384
0.106145
0.105925
0.105781
0.105671
0.105621
0.116205
0.10663
0.108037
0.10842
0.108065
0.107774
0.107304
0.106974
0.10662
0.106377
0.106148
0.106002
0.105887
0.105838
0.106865
0.104426
0.107665
0.108245
0.108139
0.107912
0.107508
0.107197
0.106855
0.106622
0.106388
0.106245
0.106124
0.106074
0.121471
0.106422
0.108337
0.10837
0.108241
0.107849
0.107555
0.1072
0.106977
0.10673
0.106596
0.106465
0.106418
0.109818
0.10524
0.108194
0.108485
0.108402
0.108125
0.107851
0.107513
0.107309
0.10705
0.106917
0.106766
0.106714
0.118931
0.106796
0.108523
0.108523
0.10841
0.108248
0.107921
0.107781
0.107504
0.107422
0.107249
0.107209
0.112351
0.106368
0.108483
0.108535
0.108498
0.108381
0.10815
0.108074
0.10781
0.107713
0.107476
0.107418
0.132795
0.106391
0.106821
0.108215
0.108354
0.108261
0.108434
0.108199
0.108346
0.10808
0.108076
0.130316
0.123547
0.105255
0.106437
0.107681
0.108051
0.108065
0.1081
0.10762
0.10755
0.119781
0.120768
0.104445
0.106648
0.107561
0.108492
0.107965
0.108127
0.108275
0.11663
0.1196
0.104741
0.105838
0.1047
0.104788
0.12517
0.120237
0.119522
0.118858
0.107267
0.105937
0.106985
0.106734
0.106894
0.106365
0.106141
0.105703
0.105436
0.105125
0.104914
0.104715
0.104584
0.104488
0.104444
0.107588
0.105733
0.106899
0.106725
0.10689
0.106401
0.10617
0.105744
0.105476
0.105167
0.104957
0.104759
0.104629
0.104532
0.104488
0.109232
0.106035
0.107174
0.106961
0.107093
0.106584
0.106321
0.105878
0.105594
0.105277
0.105061
0.10486
0.104729
0.10463
0.104585
0.105963
0.106668
0.106983
0.107022
0.106677
0.1064
0.105997
0.105713
0.105405
0.105191
0.10499
0.10486
0.10476
0.104715
0.114754
0.106835
0.106942
0.107286
0.106919
0.106658
0.106234
0.10594
0.105619
0.105402
0.105193
0.105063
0.104959
0.104914
0.107666
0.106143
0.106927
0.107219
0.107027
0.106794
0.10642
0.106141
0.10583
0.10562
0.105408
0.105279
0.10517
0.105126
0.117974
0.106878
0.10722
0.107272
0.107083
0.106732
0.106463
0.106144
0.105943
0.105717
0.105597
0.105479
0.105437
0.108948
0.106673
0.107262
0.107321
0.10724
0.106957
0.106734
0.106424
0.106238
0.106002
0.105882
0.105748
0.105703
0.115754
0.107076
0.107344
0.107457
0.10725
0.10709
0.106803
0.106665
0.106408
0.106326
0.106175
0.106141
0.111541
0.107174
0.107012
0.10735
0.107334
0.10728
0.107037
0.106928
0.106686
0.10659
0.106407
0.106365
0.128855
0.107183
0.107099
0.107284
0.107236
0.107234
0.107298
0.107034
0.107101
0.106898
0.106895
0.12663
0.120488
0.106695
0.106894
0.106942
0.106953
0.106997
0.10697
0.106737
0.106731
0.116989
0.118027
0.106162
0.106847
0.106683
0.107186
0.106911
0.106987
0.10845
0.114452
0.117019
0.10598
0.106045
0.105759
0.105926
0.122631
0.118079
0.117661
0.116917
0.106234
0.104125
0.104836
0.104956
0.105272
0.10512
0.10507
0.104815
0.104645
0.104416
0.104255
0.104096
0.10399
0.103909
0.103873
0.106613
0.104051
0.104761
0.104934
0.105245
0.10513
0.105081
0.10484
0.104672
0.104448
0.104288
0.10413
0.104026
0.103945
0.103909
0.108223
0.104113
0.104878
0.105012
0.105335
0.105218
0.105169
0.104926
0.104756
0.104531
0.104371
0.104211
0.104107
0.104026
0.10399
0.104195
0.104481
0.104969
0.105225
0.105235
0.105192
0.104994
0.104833
0.104622
0.104469
0.104313
0.104211
0.104131
0.104095
0.112883
0.104578
0.104833
0.105301
0.105301
0.105313
0.105125
0.104978
0.104772
0.104625
0.10447
0.104371
0.10429
0.104255
0.106782
0.104394
0.104694
0.10518
0.10528
0.105333
0.105203
0.105087
0.104904
0.104773
0.104624
0.104532
0.10445
0.104416
0.115423
0.104643
0.105039
0.105324
0.105401
0.105334
0.105248
0.105089
0.10498
0.104836
0.104758
0.104675
0.104646
0.107438
0.104711
0.104938
0.105236
0.105381
0.105366
0.105336
0.105207
0.105128
0.104998
0.104929
0.104843
0.104815
0.113309
0.104826
0.105154
0.105363
0.105388
0.105406
0.10534
0.105318
0.105199
0.105173
0.105086
0.10507
0.109886
0.104916
0.104731
0.105162
0.105246
0.105332
0.105289
0.105308
0.105243
0.105222
0.105136
0.10512
0.125944
0.105062
0.104843
0.104956
0.105052
0.105192
0.105311
0.105235
0.105341
0.105251
0.105272
0.123838
0.117807
0.104744
0.104658
0.104707
0.104843
0.10498
0.105018
0.104942
0.104955
0.114834
0.115767
0.104408
0.104588
0.104493
0.104886
0.10477
0.104838
0.107217
0.112633
0.114985
0.104209
0.10412
0.104063
0.104123
0.120503
0.116379
0.115938
0.115249
0.105309
0.103059
0.103448
0.103697
0.103967
0.104008
0.104064
0.103958
0.103874
0.103732
0.103624
0.10351
0.103433
0.103372
0.103344
0.105714
0.10303
0.10339
0.103678
0.10394
0.104003
0.104064
0.10397
0.10389
0.103752
0.103647
0.103535
0.10346
0.103399
0.103372
0.107277
0.103026
0.103476
0.103689
0.10398
0.104029
0.104104
0.104015
0.10394
0.103806
0.103704
0.103594
0.103519
0.10346
0.103433
0.103121
0.103217
0.103664
0.103893
0.104018
0.104094
0.104042
0.10398
0.103862
0.103768
0.103664
0.103593
0.103536
0.10351
0.111714
0.103274
0.103513
0.103897
0.104009
0.104124
0.104095
0.104054
0.10395
0.103867
0.103769
0.103704
0.103648
0.103624
0.105859
0.103238
0.103411
0.103824
0.103964
0.104097
0.104104
0.104094
0.104014
0.10395
0.103863
0.103807
0.103753
0.103731
0.113973
0.103345
0.103643
0.103937
0.104066
0.104125
0.10414
0.104096
0.104056
0.103983
0.103942
0.103892
0.103874
0.10626
0.103444
0.103576
0.103845
0.104007
0.104079
0.104126
0.104107
0.104097
0.104046
0.104017
0.103972
0.103958
0.111859
0.103441
0.103753
0.1039
0.104011
0.10407
0.104103
0.104129
0.104099
0.104108
0.104067
0.104064
0.10858
0.103783
0.103375
0.103749
0.10385
0.103943
0.103971
0.104015
0.104024
0.104032
0.104007
0.104007
0.125347
0.103541
0.103433
0.103588
0.103653
0.103833
0.103905
0.1039
0.103985
0.103944
0.103967
0.122316
0.116277
0.103455
0.103355
0.103421
0.103521
0.103673
0.103694
0.103684
0.103696
0.113427
0.11441
0.103249
0.103283
0.103226
0.103481
0.103396
0.103448
0.106075
0.111369
0.113709
0.103131
0.103032
0.103036
0.103058
0.119326
0.115107
0.114777
0.114062
0.104384
0.102086
0.102181
0.102444
0.102624
0.102753
0.102853
0.102865
0.102854
0.102793
0.102738
0.10267
0.102622
0.102581
0.102562
0.104793
0.102076
0.102145
0.102433
0.102602
0.102745
0.102844
0.102866
0.102859
0.102803
0.102751
0.102685
0.102638
0.102599
0.102581
0.106285
0.102024
0.102219
0.10241
0.102618
0.10274
0.102852
0.102878
0.10288
0.102829
0.102782
0.102721
0.102677
0.102638
0.102621
0.102169
0.102064
0.102412
0.102556
0.10272
0.102827
0.102874
0.102888
0.102852
0.102814
0.10276
0.10272
0.102685
0.10267
0.110675
0.102161
0.102275
0.102544
0.10268
0.102816
0.102871
0.102906
0.102885
0.10286
0.102814
0.102782
0.102751
0.102737
0.104903
0.102209
0.102231
0.102514
0.102632
0.102777
0.102841
0.102895
0.102893
0.102885
0.102852
0.102829
0.102803
0.102792
0.112808
0.102229
0.102349
0.102597
0.102708
0.102813
0.102869
0.102896
0.102907
0.10289
0.102881
0.10286
0.102854
0.105195
0.102347
0.102349
0.10252
0.102653
0.102741
0.102814
0.102844
0.102873
0.102876
0.102879
0.102867
0.102864
0.110673
0.102247
0.10246
0.102546
0.102656
0.102711
0.102781
0.102819
0.102831
0.102855
0.102846
0.102853
0.107425
0.102414
0.102153
0.102467
0.102525
0.1026
0.102637
0.102684
0.102724
0.102743
0.102747
0.102752
0.122805
0.10264
0.102261
0.102352
0.102354
0.102521
0.102549
0.102562
0.102621
0.102605
0.102624
0.12109
0.115048
0.102352
0.102234
0.102238
0.10228
0.102418
0.102414
0.102437
0.102444
0.112264
0.113289
0.102217
0.102167
0.10207
0.102224
0.102149
0.102181
0.105054
0.110284
0.112624
0.102175
0.102028
0.10208
0.102085
0.118246
0.114007
0.113725
0.113019
0.103439
0.10108
0.10104
0.101306
0.101416
0.101579
0.101681
0.101756
0.101796
0.101795
0.101781
0.101752
0.101728
0.101706
0.101696
0.103847
0.101087
0.101017
0.101302
0.101399
0.10157
0.10167
0.101749
0.101792
0.101796
0.101785
0.101759
0.101737
0.101716
0.101706
0.105297
0.101001
0.101079
0.101262
0.101406
0.101551
0.101664
0.101741
0.101793
0.101802
0.101797
0.101775
0.101756
0.101737
0.101728
0.101181
0.100967
0.101276
0.101362
0.10153
0.101636
0.101722
0.101779
0.1018
0.101804
0.101789
0.101775
0.101759
0.101752
0.109648
0.101074
0.101146
0.101342
0.101478
0.101605
0.101694
0.10176
0.101794
0.10181
0.101804
0.101797
0.101786
0.101781
0.103924
0.101174
0.101112
0.101333
0.101433
0.101566
0.101651
0.101724
0.101766
0.101794
0.101801
0.101802
0.101797
0.101794
0.111713
0.101142
0.101177
0.101398
0.101485
0.101601
0.101667
0.101726
0.101761
0.10178
0.101793
0.101793
0.101795
0.104158
0.101265
0.10119
0.101329
0.101438
0.101526
0.101602
0.101653
0.101695
0.101724
0.101741
0.10175
0.101755
0.109566
0.101142
0.101294
0.10134
0.10144
0.101487
0.101569
0.101607
0.101639
0.101666
0.101671
0.10168
0.10635
0.101519
0.101011
0.101287
0.10133
0.101401
0.101437
0.101481
0.101533
0.101552
0.101572
0.101578
0.122876
0.101304
0.101122
0.101192
0.101181
0.101337
0.101346
0.101366
0.101408
0.101401
0.101415
0.119917
0.113902
0.101268
0.101146
0.101117
0.10115
0.10128
0.101264
0.101304
0.101305
0.111166
0.11222
0.10118
0.101078
0.100971
0.101082
0.101019
0.10104
0.104051
0.109238
0.111582
0.101185
0.101003
0.10109
0.101079
0.117178
0.112955
0.112693
0.112001
0.102479
0.100085
0.0999794
0.100231
0.100282
0.100444
0.100528
0.100626
0.100687
0.100731
0.100748
0.10075
0.100747
0.10074
0.100737
0.102889
0.100103
0.0999631
0.100232
0.100271
0.100438
0.100518
0.100618
0.100679
0.100726
0.100746
0.10075
0.100749
0.100743
0.10074
0.104313
0.100003
0.10002
0.100186
0.100275
0.100413
0.100507
0.100601
0.100667
0.100717
0.100742
0.100751
0.100752
0.100749
0.100747
0.100187
0.0999283
0.10021
0.100245
0.100398
0.100482
0.100578
0.100644
0.100697
0.10073
0.100745
0.100751
0.100751
0.10075
0.108636
0.100032
0.100088
0.100226
0.100346
0.100446
0.100541
0.10061
0.100668
0.100707
0.10073
0.100742
0.100746
0.100748
0.10294
0.100156
0.100056
0.100232
0.100309
0.100416
0.100497
0.10057
0.100625
0.100668
0.100698
0.100717
0.100726
0.10073
0.110661
0.100098
0.100087
0.10028
0.100337
0.100446
0.100503
0.100571
0.100611
0.100645
0.100667
0.100679
0.100686
0.10314
0.100217
0.100106
0.100221
0.100304
0.100381
0.100446
0.100499
0.100542
0.100579
0.100602
0.100618
0.100625
0.108506
0.100053
0.100196
0.10022
0.100306
0.100339
0.100418
0.100448
0.100484
0.100508
0.100519
0.100527
0.105296
0.100234
0.0999365
0.100203
0.100224
0.100282
0.100311
0.100347
0.1004
0.100414
0.100439
0.100444
0.120507
0.100432
0.100073
0.100109
0.100089
0.100235
0.100228
0.100247
0.100276
0.100272
0.100281
0.118815
0.112826
0.100219
0.1001
0.100059
0.10009
0.100212
0.100187
0.100233
0.10023
0.11011
0.111183
0.100159
0.100035
0.0999308
0.100021
0.0999641
0.0999785
0.103054
0.108215
0.110562
0.10019
0.100004
0.100104
0.100084
0.11614
0.111929
0.11168
0.110996
0.101517
0.0990991
0.0989514
0.0991805
0.099186
0.0993329
0.0993901
0.0994881
0.0995476
0.0996097
0.0996482
0.0996734
0.0996855
0.0996913
0.0996934
0.101925
0.0991231
0.0989402
0.0991863
0.0991796
0.099329
0.0993831
0.0994807
0.0995393
0.0996013
0.0996416
0.0996684
0.0996819
0.0996888
0.0996914
0.103334
0.099017
0.0989942
0.0991374
0.0991831
0.0993042
0.0993711
0.099462
0.0995234
0.0995849
0.0996275
0.0996575
0.0996735
0.099682
0.0996855
0.0992037
0.0989176
0.0991705
0.0991643
0.0992953
0.0993526
0.0994411
0.0995003
0.0995606
0.0996039
0.0996379
0.0996575
0.0996686
0.0996732
0.107637
0.0990186
0.0990526
0.0991481
0.0992464
0.0993185
0.0994038
0.0994635
0.0995248
0.0995674
0.0996038
0.0996273
0.0996416
0.0996479
0.101957
0.099152
0.0990284
0.0991662
0.0992189
0.0992985
0.0993676
0.0994277
0.0994826
0.0995248
0.0995607
0.0995848
0.0996013
0.099609
0.109635
0.0990718
0.0990317
0.0991985
0.0992284
0.0993214
0.0993648
0.0994284
0.0994638
0.0995007
0.0995234
0.0995393
0.0995469
0.102136
0.0991971
0.099061
0.099153
0.0992109
0.0992715
0.0993216
0.0993685
0.0994044
0.0994418
0.099462
0.0994807
0.0994876
0.107473
0.0990334
0.0991475
0.0991408
0.0992116
0.0992293
0.0993001
0.0993195
0.0993535
0.0993713
0.0993832
0.0993896
0.104275
0.0993866
0.0989066
0.099143
0.0991534
0.0991998
0.0992208
0.0992474
0.0992963
0.0993042
0.0993291
0.099332
0.120547
0.0992277
0.09902
0.0990619
0.0990339
0.0991686
0.0991497
0.0991651
0.0991832
0.0991795
0.099185
0.117748
0.11177
0.0991983
0.0990742
0.099031
0.0990547
0.0991709
0.0991369
0.0991859
0.0991794
0.109079
0.110161
0.0991548
0.0990203
0.0989183
0.0989942
0.0989399
0.0989503
0.102062
0.107207
0.109554
0.0992047
0.099017
0.0991228
0.0990979
0.115121
0.11092
0.110676
0.109998
0.100554
0.0981231
0.0979454
0.0981501
0.0981181
0.0982405
0.0982699
0.0983537
0.0983999
0.0984611
0.0985038
0.0985432
0.0985655
0.0985798
0.0985857
0.100962
0.0981486
0.0979386
0.0981584
0.0981157
0.0982392
0.0982658
0.0983482
0.0983931
0.098453
0.098495
0.0985352
0.0985584
0.0985736
0.09858
0.102361
0.098043
0.0979911
0.0981098
0.0981207
0.0982173
0.0982562
0.0983314
0.098378
0.0984357
0.0984772
0.0985174
0.0985424
0.0985584
0.0985656
0.0982277
0.0979265
0.098148
0.0981111
0.0982154
0.098245
0.0983162
0.0983596
0.0984135
0.0984528
0.0984913
0.0985171
0.0985351
0.0985429
0.106648
0.0980239
0.0980382
0.0981005
0.0981717
0.0982168
0.0982842
0.0983271
0.0983801
0.0984164
0.0984527
0.0984769
0.0984949
0.0985033
0.100981
0.0981623
0.0980224
0.0981269
0.0981558
0.0982077
0.0982587
0.0983011
0.0983463
0.09838
0.0984134
0.0984354
0.0984528
0.0984605
0.108628
0.0980694
0.0980045
0.0981423
0.0981497
0.0982226
0.0982493
0.0983015
0.0983271
0.0983595
0.0983777
0.0983927
0.0983992
0.101142
0.0981837
0.098037
0.0981113
0.098146
0.0981904
0.0982227
0.0982592
0.0982843
0.0983163
0.098331
0.0983478
0.0983531
0.106454
0.0980065
0.09811
0.0980929
0.0981468
0.0981503
0.0982086
0.0982172
0.0982453
0.0982559
0.0982654
0.0982694
0.103263
0.0982265
0.097897
0.0981138
0.098113
0.0981432
0.0981569
0.0981723
0.0982154
0.0982168
0.098239
0.0982398
0.118587
0.0983449
0.0980179
0.0980385
0.0980057
0.0981287
0.098102
0.0981102
0.0981198
0.0981148
0.0981169
0.116701
0.110742
0.0981853
0.0980707
0.0980252
0.0980436
0.0981426
0.0981074
0.098157
0.0981486
0.108064
0.109152
0.0981651
0.0980245
0.0979252
0.0979896
0.0979374
0.0979437
0.101078
0.106209
0.108556
0.0982276
0.0980422
0.0981475
0.0981214
0.114115
0.109923
0.109681
0.109006
0.099594
0.0971595
0.096956
0.0971335
0.0970678
0.0971582
0.0971586
0.0972196
0.0972469
0.0972962
0.0973317
0.0973716
0.0974003
0.0974199
0.0974281
0.1
0.0971847
0.0969555
0.0971436
0.0970699
0.0971602
0.0971579
0.0972167
0.0972425
0.09729
0.0973241
0.0973627
0.0973912
0.097411
0.0974198
0.101395
0.0970871
0.0970091
0.0971024
0.0970793
0.0971436
0.0971528
0.0972045
0.0972312
0.0972756
0.097308
0.0973442
0.0973712
0.097391
0.0974
0.0972645
0.0969587
0.0971473
0.0970794
0.0971487
0.0971501
0.0971966
0.0972199
0.0972596
0.0972883
0.0973207
0.097344
0.0973625
0.097371
0.105672
0.0970465
0.0970318
0.0970722
0.0971126
0.0971306
0.0971735
0.0971964
0.0972343
0.0972589
0.097288
0.0973077
0.0973238
0.097331
0.100014
0.0971854
0.0970276
0.0971057
0.0971095
0.0971333
0.0971615
0.0971829
0.0972131
0.097234
0.0972593
0.0972753
0.0972895
0.0972955
0.107635
0.0970694
0.0969965
0.0971031
0.097091
0.0971389
0.0971474
0.0971831
0.0971962
0.0972196
0.0972307
0.0972417
0.097246
0.100159
0.0971929
0.0970351
0.0970927
0.0971013
0.0971273
0.097139
0.0971616
0.0971731
0.0971962
0.0972037
0.0972158
0.0972187
0.105446
0.0970233
0.097099
0.0970687
0.0971015
0.0970912
0.0971335
0.0971305
0.0971496
0.097152
0.0971569
0.0971578
0.102265
0.0973355
0.0969189
0.0970973
0.0970928
0.0971033
0.0971098
0.0971125
0.097148
0.0971427
0.097159
0.0971573
0.11819
0.0972603
0.0970171
0.0970347
0.0969969
0.0971064
0.0970723
0.0970786
0.0970779
0.0970686
0.0970666
0.11568
0.109724
0.0971932
0.0970697
0.0970283
0.0970321
0.0971456
0.0971006
0.0971416
0.0971319
0.107065
0.10815
0.0971859
0.0970462
0.0969574
0.0970071
0.0969536
0.096954
0.100101
0.105221
0.107567
0.0972636
0.0970856
0.0971824
0.0971573
0.113123
0.108937
0.108692
0.108018
0.098641
0.096214
0.0959798
0.096127
0.0960272
0.0960786
0.0960487
0.0960813
0.0960871
0.0961186
0.096142
0.0961736
0.0961996
0.0962217
0.0962318
0.0990472
0.0962368
0.0959885
0.0961379
0.0960343
0.096083
0.0960515
0.0960812
0.0960855
0.0961149
0.0961366
0.0961663
0.0961905
0.0962117
0.0962218
0.100444
0.0961587
0.0960473
0.0961112
0.0960503
0.0960755
0.0960529
0.0960755
0.09608
0.0961059
0.096125
0.0961515
0.0961722
0.0961904
0.0961993
0.0963241
0.0960167
0.0961541
0.0960623
0.0960875
0.0960596
0.0960762
0.0960773
0.096098
0.0961129
0.0961349
0.0961514
0.0961661
0.0961731
0.104715
0.0960893
0.0960435
0.0960591
0.0960618
0.0960512
0.0960645
0.0960655
0.0960839
0.0960942
0.0961126
0.0961247
0.0961362
0.0961412
0.0990626
0.0962289
0.0960466
0.0960995
0.0960731
0.096067
0.0960682
0.0960664
0.0960775
0.0960836
0.0960977
0.0961055
0.0961144
0.0961179
0.106662
0.096079
0.0960053
0.0960749
0.0960439
0.0960622
0.0960508
0.0960663
0.0960651
0.0960767
0.0960794
0.0960847
0.0960863
0.0991884
0.0962169
0.0960511
0.0960895
0.0960701
0.0960739
0.0960622
0.096068
0.096064
0.0960755
0.0960745
0.09608
0.0960803
0.104448
0.0960494
0.0961024
0.096062
0.0960701
0.0960437
0.0960667
0.0960506
0.0960586
0.0960518
0.0960501
0.0960476
0.101278
0.0963049
0.0959681
0.0961028
0.0960896
0.0960746
0.0960726
0.0960611
0.0960865
0.0960742
0.0960814
0.0960772
0.116736
0.0963438
0.0960513
0.0960507
0.0960051
0.0960991
0.0960585
0.0960609
0.0960486
0.0960323
0.0960257
0.114657
0.10872
0.0962168
0.0960786
0.0960461
0.0960428
0.0961524
0.0961094
0.0961354
0.0961252
0.106083
0.107158
0.0962285
0.0960883
0.0960149
0.0960453
0.0959859
0.0959777
0.0991333
0.104241
0.106589
0.0963224
0.0961567
0.096234
0.0962115
0.112144
0.107964
0.107711
0.107034
0.0976994
0.0952947
0.0950155
0.0951271
0.094988
0.0949946
0.0949332
0.0949344
0.0949175
0.0949287
0.0949386
0.0949583
0.0949763
0.0949948
0.0950056
0.0981063
0.0953173
0.0950331
0.0951397
0.0950002
0.0950015
0.0949397
0.0949373
0.0949192
0.0949279
0.094936
0.0949535
0.0949695
0.0949856
0.0949946
0.0995148
0.0952754
0.0951115
0.0951379
0.0950283
0.095007
0.0949499
0.0949397
0.0949208
0.0949254
0.0949303
0.0949445
0.0949569
0.0949693
0.094976
0.0954261
0.0951102
0.0951732
0.0950559
0.0950262
0.0949665
0.0949495
0.0949272
0.0949262
0.0949266
0.0949361
0.0949443
0.0949532
0.0949577
0.103784
0.0951614
0.0950706
0.0950576
0.0950132
0.0949712
0.0949515
0.0949289
0.0949251
0.0949202
0.0949264
0.0949299
0.0949354
0.0949378
0.098138
0.0953025
0.0950781
0.0951052
0.0950406
0.095002
0.0949717
0.0949451
0.0949348
0.0949248
0.0949258
0.0949249
0.0949273
0.0949281
0.105715
0.0951008
0.0950299
0.095054
0.0950014
0.0949855
0.0949523
0.0949449
0.0949284
0.0949265
0.0949201
0.0949183
0.0949169
0.0982348
0.095257
0.0950884
0.0950995
0.0950476
0.0950231
0.0949854
0.0949713
0.0949507
0.0949486
0.0949387
0.0949361
0.0949335
0.103458
0.0951106
0.0951273
0.0950701
0.0950475
0.095001
0.0950013
0.0949704
0.0949654
0.0949488
0.0949382
0.0949323
0.100299
0.0953986
0.0950596
0.0951274
0.0950993
0.0950535
0.0950399
0.0950122
0.0950249
0.0950055
0.0949997
0.094993
0.115849
0.095392
0.0951103
0.0950878
0.0950293
0.0951044
0.0950565
0.0950541
0.0950266
0.0949977
0.0949863
0.113656
0.10773
0.0952565
0.0950997
0.095077
0.0950692
0.0951713
0.0951359
0.0951369
0.0951253
0.105125
0.106178
0.0953013
0.0951597
0.0951082
0.0951091
0.0950303
0.0950136
0.0981824
0.103275
0.105629
0.0954235
0.0952729
0.0953141
0.0952928
0.111184
0.107007
0.10674
0.106055
0.0967746
0.0944175
0.0940561
0.0941344
0.093939
0.0938969
0.0938028
0.0937742
0.0937348
0.0937256
0.0937227
0.0937295
0.0937386
0.0937503
0.0937586
0.0971817
0.0944465
0.0940865
0.0941519
0.0939558
0.0939071
0.0938134
0.0937799
0.0937399
0.0937277
0.093723
0.0937277
0.0937349
0.0937439
0.0937501
0.0986196
0.0944711
0.0942087
0.0941835
0.0940064
0.0939297
0.0938348
0.0937915
0.0937495
0.0937319
0.0937237
0.093725
0.0937287
0.0937345
0.0937384
0.0946101
0.094254
0.0942103
0.0940555
0.0939571
0.0938615
0.0938102
0.0937651
0.0937414
0.0937285
0.0937251
0.0937248
0.0937273
0.0937289
0.102904
0.0942784
0.094112
0.0940637
0.0939589
0.0938809
0.0938266
0.093781
0.093754
0.0937339
0.0937281
0.0937232
0.0937223
0.0937221
0.0972619
0.094425
0.0941219
0.0941224
0.0940046
0.0939309
0.0938646
0.093813
0.0937799
0.0937536
0.0937409
0.0937313
0.0937268
0.0937249
0.104814
0.0941403
0.0940702
0.0940367
0.0939561
0.0939012
0.0938442
0.0938126
0.0937802
0.0937641
0.0937485
0.0937387
0.0937341
0.0973092
0.0943155
0.0941519
0.0941208
0.0940285
0.0939681
0.093901
0.093864
0.0938256
0.093809
0.0937903
0.0937785
0.0937733
0.102474
0.0942116
0.0941748
0.0940891
0.0940281
0.0939554
0.0939298
0.0938798
0.09386
0.0938333
0.0938114
0.093802
0.0993324
0.0945499
0.0942091
0.0941749
0.0941203
0.0940357
0.0940037
0.0939573
0.0939554
0.093928
0.0939047
0.0938954
0.114667
0.0945418
0.0942106
0.094151
0.0940693
0.0941213
0.094062
0.0940534
0.0940043
0.093953
0.0939373
0.112643
0.106752
0.0943145
0.0941388
0.0941203
0.0941099
0.0942078
0.0941808
0.0941484
0.0941327
0.104207
0.105221
0.0944231
0.0942757
0.0942513
0.0942056
0.0940832
0.0940546
0.0972606
0.102327
0.104698
0.0946066
0.0944677
0.0944421
0.094416
0.110249
0.106077
0.105786
0.105083
0.0958709
0.0936077
0.0930638
0.0931575
0.0928496
0.0928023
0.0926513
0.0925998
0.0925353
0.0925066
0.0924944
0.09249
0.0924907
0.0924961
0.0925009
0.0962755
0.0936474
0.0931131
0.093169
0.0928785
0.0928112
0.0926662
0.0926075
0.0925435
0.0925109
0.0924972
0.0924908
0.0924899
0.0924926
0.092496
0.0977776
0.0938091
0.0933221
0.0932472
0.0929705
0.092849
0.0927065
0.0926285
0.0925621
0.0925219
0.0925039
0.0924938
0.0924898
0.0924898
0.0924908
0.0939521
0.0934553
0.0932595
0.0930528
0.0928754
0.092749
0.092654
0.0925865
0.092539
0.0925158
0.0925014
0.0924937
0.0924905
0.0924898
0.102103
0.0934434
0.0931433
0.093061
0.0928838
0.0927828
0.0926835
0.0926165
0.092565
0.09253
0.0925153
0.0925034
0.0924965
0.0924939
0.0964736
0.0936309
0.0931567
0.0931664
0.092953
0.0928511
0.0927398
0.0926636
0.0926072
0.0925644
0.0925387
0.0925213
0.0925099
0.0925057
0.10399
0.0931945
0.0931139
0.0930155
0.0928969
0.0928004
0.0927182
0.0926631
0.0926157
0.0925855
0.092561
0.0925423
0.0925346
0.096442
0.0934095
0.0932441
0.0931543
0.0930026
0.0929006
0.0928
0.092739
0.0926824
0.0926526
0.0926271
0.0926058
0.0925987
0.101483
0.0933634
0.0932447
0.0931146
0.0930015
0.0928959
0.0928498
0.0927814
0.0927471
0.0927047
0.0926641
0.0926502
0.0983513
0.0938611
0.0934478
0.0932455
0.0931536
0.0930141
0.0929516
0.092882
0.0928731
0.0928467
0.0928082
0.0928003
0.113256
0.093871
0.0933647
0.0932431
0.0931125
0.0931649
0.0930592
0.0930501
0.0929677
0.0928754
0.0928481
0.111617
0.105873
0.0934077
0.0931924
0.0931546
0.0931409
0.0932561
0.0932442
0.0931645
0.0931555
0.103361
0.104304
0.0936284
0.0934401
0.0934515
0.0933185
0.0931088
0.0930627
0.0963999
0.101412
0.103818
0.0939471
0.0938048
0.0936417
0.0936062
0.10934
0.105187
0.104854
0.10411
0.0950056
0.0928902
0.0920221
0.0921598
0.0917246
0.0916684
0.0914712
0.0914073
0.0913237
0.0912873
0.0912567
0.091243
0.0912352
0.0912362
0.0912378
0.095391
0.0929303
0.0920996
0.0921583
0.0917603
0.0916729
0.0914887
0.0914151
0.0913335
0.0912932
0.0912619
0.091246
0.0912372
0.0912344
0.0912358
0.0970343
0.0933858
0.0924823
0.0923138
0.0919144
0.0917331
0.0915507
0.0914449
0.0913613
0.09131
0.0912754
0.0912542
0.0912428
0.0912374
0.0912357
0.0935701
0.0927672
0.0922947
0.0920343
0.0917547
0.0916036
0.0914736
0.0913921
0.0913325
0.0912945
0.0912686
0.0912543
0.0912457
0.0912428
0.101402
0.0926462
0.0921573
0.0920442
0.0917745
0.091653
0.091515
0.0914351
0.0913683
0.0913253
0.0912943
0.0912748
0.0912612
0.0912562
0.0958578
0.0929668
0.0921747
0.0921978
0.0918693
0.0917413
0.091589
0.0914946
0.0914197
0.0913679
0.0913319
0.0913091
0.0912921
0.0912862
0.103305
0.0922534
0.0921637
0.0919627
0.0918092
0.0916717
0.0915698
0.0914941
0.0914343
0.0913911
0.0913602
0.0913322
0.0913226
0.0957234
0.092584
0.0923222
0.0921777
0.0919414
0.0918092
0.0916712
0.0915881
0.0915138
0.0914721
0.0914432
0.0914131
0.0914058
0.100526
0.0925922
0.0922444
0.0920911
0.0919398
0.0918082
0.0917398
0.0916514
0.0916015
0.0915484
0.0914863
0.0914699
0.0972571
0.0936312
0.0928073
0.0922442
0.0921768
0.0919612
0.0918677
0.0917726
0.0917516
0.0917302
0.0916694
0.0916663
0.111407
0.0936312
0.092592
0.0923204
0.0921624
0.0921962
0.0920422
0.0920309
0.0919108
0.0917568
0.0917235
0.110522
0.104902
0.0925831
0.0922511
0.0921726
0.0921546
0.0922902
0.0923101
0.0921526
0.0921576
0.102639
0.103504
0.0929637
0.0926423
0.0927626
0.092478
0.0920946
0.0920216
0.0957044
0.100588
0.103022
0.0935622
0.0933814
0.0929218
0.0928893
0.108426
0.104389
0.103968
0.103143
0.0942565
0.092265
0.0908999
0.0911153
0.0905465
0.0904885
0.0902578
0.0901874
0.0900919
0.0900504
0.0900129
0.0899948
0.0899825
0.0899775
0.0899753
0.0945836
0.0922359
0.0909973
0.0910811
0.0905768
0.0904842
0.0902743
0.0901938
0.0901023
0.0900571
0.0900193
0.0899991
0.0899862
0.0899799
0.0899775
0.096546
0.0934213
0.0916662
0.0913433
0.0908226
0.090569
0.0903617
0.0902316
0.0901387
0.090078
0.0900373
0.0900107
0.0899954
0.0899863
0.0899826
0.0937724
0.0921984
0.0912252
0.0909542
0.0905737
0.0904158
0.0902597
0.0901718
0.0901027
0.0900592
0.0900285
0.0900107
0.0899988
0.0899945
0.100817
0.0918146
0.0910992
0.0909971
0.0906111
0.0904833
0.0903114
0.090226
0.0901454
0.0900982
0.0900591
0.0900367
0.0900186
0.0900125
0.0956647
0.0924494
0.0911471
0.0911908
0.0907386
0.0905865
0.0904007
0.0902926
0.090204
0.090145
0.0901018
0.0900769
0.0900559
0.0900494
0.102837
0.0913244
0.091236
0.0908843
0.0906936
0.0905056
0.0903886
0.090292
0.090225
0.0901705