/*--------------------------------*- C++ -*----------------------------------*\
| =========                 |                                                 |
| \\      /  F ield         | OpenFOAM: The Open Source CFD Toolbox           |
|  \\    /   O peration     | Version:  2.1.1                                 |
|   \\  /    A nd           | Web:      www.OpenFOAM.org                      |
|    \\/     M anipulation  |                                                 |
\*---------------------------------------------------------------------------*/
FoamFile
{
    version     2.0;
    format      ascii;
    class       volVectorField;
    location    "0.005";
    object      U;
}
// * * * * * * * * * * * * * * * * * * * * * * * * * * * * * * * * * * * * * //

dimensions      [0 1 -1 0 0 0 0];

internalField   nonuniform List<vector> 
10233
(
(0.000300157 0.000303089 0.0730271)
(0.0162775 0.000434771 0.0804178)
(0.00694487 0.000101358 0.0838329)
(0.00313833 -2.22931e-05 0.0847462)
(0.00130226 -6.10373e-05 0.0847841)
(0.00112876 -7.44474e-05 0.0848546)
(0.000833308 -7.71304e-05 0.0849556)
(0.000728572 -7.67491e-05 0.0850495)
(0.000568216 -7.41553e-05 0.0851298)
(0.000471411 -7.13112e-05 0.0852034)
(0.000360151 -6.86293e-05 0.0852702)
(0.000273117 -6.63594e-05 0.0853338)
(0.000181106 -6.54103e-05 0.0853953)
(9.97355e-05 -6.49733e-05 0.085456)
(1.48258e-05 -6.37063e-05 0.0855166)
(0.00159503 0.002261 0.0703601)
(0.0146682 0.00233292 0.0801404)
(0.00608914 -0.000107168 0.08362)
(0.00301481 -0.000235541 0.0847999)
(0.00134962 -0.000217539 0.0849044)
(0.00115465 -0.000218111 0.0849536)
(0.000845726 -0.000204376 0.0850421)
(0.000730786 -0.000193222 0.0851277)
(0.000568714 -0.000181744 0.0852027)
(0.000470108 -0.00017267 0.085272)
(0.000358292 -0.000164602 0.085336)
(0.000271218 -0.000158128 0.0853982)
(0.000180011 -0.000153373 0.0854582)
(9.86809e-05 -0.000149982 0.0855184)
(1.56648e-05 -0.000147879 0.0855794)
(-0.00631609 0.0116769 0.0447024)
(0.00802175 0.00285781 0.0816196)
(0.00387541 -0.000344891 0.0838467)
(0.0025747 -0.000825128 0.0850376)
(0.00137359 -0.000610692 0.0851109)
(0.0011725 -0.000472908 0.0850772)
(0.000863592 -0.000388882 0.0851339)
(0.000738522 -0.000340402 0.0852077)
(0.000575109 -0.000307187 0.0852748)
(0.000473869 -0.000284436 0.08534)
(0.000360215 -0.000267363 0.085402)
(0.000272118 -0.000255084 0.0854621)
(0.000179524 -0.000246064 0.0855215)
(9.82755e-05 -0.000239634 0.0855826)
(1.41974e-05 -0.000235635 0.0856454)
(-0.00892898 -0.00271102 0.081465)
(0.00198581 -0.00155407 0.0838181)
(0.00237092 -0.00188413 0.0856437)
(0.00149105 -0.00111119 0.0854528)
(0.00112709 -0.000732487 0.0852428)
(0.000852217 -0.000557187 0.0852445)
(0.000727581 -0.000475617 0.0852974)
(0.000574927 -0.000425592 0.085355)
(0.000475601 -0.000393327 0.0854137)
(0.000361192 -0.000370092 0.0854721)
(0.000272761 -0.000352324 0.0855304)
(0.000179797 -0.000339267 0.0855907)
(9.86294e-05 -0.00032994 0.0856535)
(1.23499e-05 -0.000324935 0.0857175)
(-0.0131222 0.00632464 0.0745259)
(0.00576384 -0.00130103 0.0822717)
(0.00358734 -0.00291689 0.085184)
(0.00217769 -0.00183213 0.0857291)
(0.00128251 -0.0011184 0.0854208)
(0.000898111 -0.000808589 0.085342)
(0.00074673 -0.000663424 0.08538)
(0.000586293 -0.000582061 0.0854313)
(0.000485123 -0.000529227 0.0854869)
(0.000365975 -0.000493932 0.0855435)
(0.000278057 -0.000466512 0.0856027)
(0.000181225 -0.000447789 0.0856647)
(9.97641e-05 -0.00043532 0.0857286)
(1.06425e-05 -0.000428692 0.0857952)
(-0.000878078 -0.00336791 0.0630815)
(0.00844615 -0.00311466 0.0809015)
(0.00550566 -0.00307957 0.0838391)
(0.00336386 -0.002423 0.085886)
(0.001647 -0.00140473 0.0856144)
(0.000990349 -0.000965941 0.0854615)
(0.000780829 -0.000801201 0.085473)
(0.000599305 -0.000717967 0.085524)
(0.00049576 -0.000659213 0.0855752)
(0.000370317 -0.000617159 0.0856282)
(0.000284195 -0.00058203 0.0856864)
(0.000181987 -0.000558279 0.0857491)
(0.000101824 -0.000541671 0.0858163)
(9.38261e-06 -0.000533116 0.0858878)
(-0.00253404 -0.00339616 0.084923)
(0.00979769 -0.00366634 0.0814344)
(0.00491679 -0.00325209 0.0850403)
(0.0024795 -0.00190377 0.0858544)
(0.00125178 -0.0012755 0.0856274)
(0.000903962 -0.0010385 0.0855871)
(0.000652919 -0.000930864 0.0856283)
(0.000529419 -0.000849122 0.0856763)
(0.000380976 -0.000788189 0.085725)
(0.00029425 -0.000735874 0.085781)
(0.000183603 -0.000702886 0.0858451)
(0.000106025 -0.000680123 0.0859165)
(8.61737e-06 -0.000670131 0.0859926)
(0.00217232 0.00789755 0.0626842)
(0.009095 -0.00124149 0.0805958)
(0.00626186 -0.00280071 0.0838482)
(0.00340429 -0.0021919 0.0861884)
(0.00157909 -0.00155917 0.085957)
(0.0010376 -0.00129116 0.0857958)
(0.000727488 -0.00117116 0.0857886)
(0.000585464 -0.00106824 0.0858165)
(0.000393675 -0.00098385 0.0858541)
(0.000306757 -0.000904542 0.0859048)
(0.000183474 -0.000852408 0.085972)
(0.000113328 -0.000819182 0.0860504)
(9.53258e-06 -0.000806535 0.0861344)
(-0.006141 0.00152286 0.0821697)
(0.00913004 -0.0023948 0.0825593)
(0.00485576 -0.00301846 0.0861785)
(0.0021828 -0.00231921 0.086661)
(0.00138999 -0.00199326 0.0863353)
(0.000856429 -0.00171642 0.0861142)
(0.000710801 -0.00148505 0.0860395)
(0.000426141 -0.00131572 0.0860219)
(0.000328218 -0.00117394 0.0860541)
(0.000173047 -0.00108914 0.0861229)
(0.000122365 -0.00104122 0.0862104)
(1.28054e-05 -0.00102824 0.0863044)
(-0.00486874 -0.00406094 0.0593952)
(0.0122258 -0.00424337 0.0852956)
(0.00573478 -0.00409164 0.0861258)
(0.00327006 -0.00419863 0.0882552)
(0.00199152 -0.00354535 0.0876569)
(0.00117692 -0.00289888 0.0869787)
(0.000975475 -0.00228753 0.0865945)
(0.00051475 -0.00184279 0.0863519)
(0.000377845 -0.00153863 0.0862926)
(0.000161451 -0.00135465 0.0863563)
(0.000141968 -0.00126902 0.0864698)
(2.65944e-05 -0.0012507 0.0865854)
(-0.00292648 0.00297617 0.0617913)
(0.00957144 -0.0059538 0.0910914)
(0.00422291 -0.00549601 0.0874771)
(0.00345027 -0.00602536 0.0889184)
(0.0020587 -0.00542661 0.0887785)
(0.00180021 -0.00409511 0.0878936)
(0.00086932 -0.00305285 0.0870877)
(0.000539664 -0.00235231 0.086762)
(0.00011651 -0.00196717 0.0867256)
(0.000163988 -0.00183055 0.0868619)
(5.43438e-05 -0.00182507 0.0870064)
(-0.0036883 -0.000267785 0.0622598)
(0.00683867 0.00272469 0.0863381)
(0.00588351 -0.0048337 0.086827)
(0.00347738 -0.00604269 0.0874563)
(0.00338701 -0.00550763 0.0886098)
(0.00202256 -0.00484747 0.0883962)
(0.00122263 -0.00379664 0.0878438)
(0.000232841 -0.00298044 0.0877916)
(0.000194732 -0.00275311 0.0881082)
(0.00010698 -0.00272234 0.0883931)
(-0.00638378 0.00667172 0.0746706)
(0.0034033 -0.00185687 0.0866985)
(0.00744312 -0.00337924 0.085207)
(0.0040329 -0.0030828 0.0863949)
(0.00251216 -0.00432502 0.0880699)
(3.16215e-05 -0.00472745 0.0897909)
(-0.000235048 -0.00525768 0.0904851)
(-7.64861e-06 -0.00538619 0.0906719)
(0.000225646 0.00581639 0.0542488)
(0.000929511 0.0115923 0.0768345)
(0.00721212 0.0119941 0.0843485)
(0.00578226 -0.00245421 0.0852513)
(-0.00198638 -0.00141808 0.0878117)
(-0.00253747 -0.00492756 0.0899544)
(-0.000843935 -0.00756158 0.0900562)
(0.00137791 0.00280515 0.0612026)
(-0.0184898 0.00852982 0.0628415)
(-0.00952833 -0.00148856 0.084821)
(-0.00247908 -0.000101067 0.0858225)
(-0.00642377 0.00089957 0.0582789)
(0.0517884 0.0007648 0.121767)
(0.0229493 0.000540312 0.144325)
(0.01585 3.27917e-05 0.139723)
(0.0095015 -0.000167397 0.134733)
(0.00795977 -0.000299196 0.134335)
(0.0057007 -0.000279461 0.133761)
(0.00466733 -0.000280798 0.133729)
(0.00355255 -0.000260565 0.133514)
(0.00286075 -0.000248867 0.1335)
(0.00217479 -0.000237488 0.133423)
(0.00164754 -0.000228331 0.133419)
(0.00112968 -0.000222617 0.133391)
(0.000675685 -0.000217999 0.133392)
(0.000216817 -0.000215462 0.133386)
(-0.0057712 0.00220167 0.0526506)
(0.0467888 0.000914005 0.123294)
(0.0204399 0.000419459 0.14636)
(0.0148901 -0.00135815 0.140756)
(0.0092292 -0.00146416 0.135134)
(0.00788639 -0.00147018 0.134491)
(0.0057325 -0.0011863 0.133874)
(0.00469062 -0.00104207 0.133783)
(0.00358609 -0.00090684 0.133548)
(0.00288445 -0.000824241 0.133519)
(0.00219562 -0.000766817 0.133437)
(0.00166245 -0.000723736 0.13343)
(0.00113987 -0.000700038 0.1334)
(0.000681939 -0.000681468 0.133399)
(0.000218758 -0.000674708 0.133392)
(-0.00274271 -0.000265367 0.0240961)
(0.0384392 -0.00448505 0.136283)
(0.0189449 0.000598685 0.152487)
(0.0142959 -0.00224819 0.142959)
(0.00964958 -0.00198416 0.135497)
(0.00831533 -0.00220988 0.134431)
(0.00615657 -0.0018288 0.133871)
(0.00495642 -0.0016542 0.133774)
(0.00377532 -0.00147401 0.133545)
(0.00300287 -0.0013563 0.133515)
(0.00227661 -0.00127632 0.133434)
(0.00171486 -0.00120794 0.13343)
(0.00117219 -0.00117186 0.1334)
(0.000700923 -0.00113958 0.1334)
(0.000224185 -0.00112894 0.133391)
(0.0246072 -0.0214181 0.116522)
(0.0216994 -0.0111655 0.152378)
(0.013204 -0.00754665 0.147314)
(0.00953701 -0.00469023 0.137573)
(0.00807326 -0.00381551 0.134794)
(0.00630153 -0.00300045 0.134082)
(0.00504832 -0.00253751 0.133899)
(0.00388658 -0.00222706 0.133638)
(0.00308348 -0.00200739 0.133573)
(0.00234513 -0.00188356 0.133478)
(0.00176734 -0.00176764 0.133468)
(0.00120827 -0.00171437 0.133431)
(0.000724487 -0.00166231 0.133429)
(0.000229858 -0.00164644 0.133419)
(-0.00878589 -0.0153521 0.0953996)
(0.0341718 -0.0133021 0.122258)
(0.022677 -0.00897255 0.148663)
(0.0133435 -0.00605543 0.140707)
(0.00984453 -0.00464356 0.135308)
(0.00739813 -0.00384732 0.134032)
(0.00571638 -0.00328127 0.133887)
(0.00430116 -0.00295545 0.133645)
(0.00334507 -0.00266044 0.133583)
(0.00251631 -0.00251695 0.133484)
(0.00188405 -0.00234602 0.133478)
(0.00127711 -0.00227666 0.133435)
(0.00076824 -0.00219628 0.133436)
(0.000239492 -0.00217393 0.133423)
(-0.00373731 0.00337696 0.0457759)
(0.0366519 -0.0258151 0.10591)
(0.0293222 -0.0160469 0.149774)
(0.0151224 -0.00909946 0.146307)
(0.00998676 -0.00627493 0.13729)
(0.00754387 -0.00517939 0.134442)
(0.00590663 -0.00435399 0.134068)
(0.00449738 -0.00397204 0.133812)
(0.00351926 -0.0035214 0.133717)
(0.00265948 -0.00334641 0.133585)
(0.00200764 -0.00308527 0.133573)
(0.00135686 -0.00300362 0.133516)
(0.000825827 -0.00288562 0.133519)
(0.000250848 -0.00285991 0.1335)
(-0.0028368 -0.0194977 0.116598)
(0.03879 -0.0121528 0.122951)
(0.0243868 -0.00860812 0.148663)
(0.013506 -0.00681196 0.140805)
(0.00917131 -0.00613078 0.135231)
(0.0068826 -0.00535488 0.134179)
(0.005125 -0.00512683 0.133886)
(0.00397059 -0.00450035 0.133812)
(0.00295519 -0.00430292 0.133647)
(0.00222818 -0.00388917 0.133638)
(0.00147538 -0.00377608 0.133547)
(0.000909728 -0.00358802 0.133547)
(0.000263091 -0.00355111 0.133514)
(-0.00300046 0.00547131 0.0506029)
(0.0406894 -0.0233495 0.113358)
(0.0298575 -0.015215 0.151154)
(0.0141069 -0.00890864 0.146048)
(0.00896836 -0.0083374 0.137548)
(0.00684857 -0.00685877 0.134818)
(0.00535156 -0.00688854 0.134184)
(0.00435162 -0.00591217 0.134071)
(0.00328069 -0.0057199 0.133891)
(0.00253878 -0.00505209 0.133901)
(0.00165549 -0.00495783 0.133778)
(0.00104582 -0.00469363 0.133783)
(0.000283658 -0.00466564 0.133731)
(-0.000280685 -0.0150754 0.103525)
(0.0362034 -0.00835397 0.124001)
(0.0208281 -0.0090134 0.149292)
(0.0110622 -0.0110769 0.142825)
(0.00832858 -0.00897718 0.137548)
(0.00613197 -0.00917724 0.135237)
(0.00518036 -0.00754868 0.134446)
(0.00384899 -0.00740188 0.134037)
(0.0030039 -0.0063058 0.134085)
(0.00183105 -0.00615849 0.133876)
(0.00119223 -0.00573688 0.133874)
(0.000283798 -0.00569808 0.133763)
(-0.008425 0.00372924 0.0336214)
(0.0248116 -0.0199891 0.118794)
(0.0165846 -0.0167073 0.154821)
(0.00900642 -0.0208798 0.149308)
(0.00890228 -0.0141331 0.146063)
(0.00681181 -0.0135209 0.140818)
(0.00627534 -0.00999527 0.137298)
(0.004644 -0.00985037 0.135317)
(0.0038191 -0.00807924 0.1348)
(0.0022113 -0.00831862 0.13444)
(0.00147841 -0.00789253 0.134493)
(0.000304108 -0.00795723 0.13434)
(0.00217443 -0.0292819 0.0619278)
(0.0199403 -0.0247807 0.118899)
(0.00845513 -0.0362039 0.124039)
(0.0152577 -0.0298574 0.151173)
(0.0086315 -0.0243934 0.148675)
(0.00911094 -0.0151253 0.146313)
(0.00606031 -0.0133472 0.140716)
(0.00469661 -0.00954389 0.137581)
(0.00198675 -0.00965197 0.135511)
(0.00147593 -0.00924056 0.13514)
(0.00017509 -0.00949633 0.13474)
(0.0023361 -0.0317397 0.0619651)
(0.00433715 -0.0275162 0.116046)
(0.023357 -0.0406741 0.113371)
(0.0121484 -0.0387863 0.122962)
(0.0160481 -0.0293199 0.149781)
(0.00896907 -0.0226782 0.148674)
(0.00755194 -0.0132098 0.147325)
(0.00224474 -0.0143021 0.142983)
(0.00137411 -0.0149045 0.140768)
(-2.17141e-05 -0.0158479 0.13974)
(-0.00322789 -0.00619257 0.0952293)
(0.00250858 -0.030067 0.110392)
(0.0258173 -0.0366536 0.10591)
(0.0133001 -0.034177 0.122263)
(0.0111677 -0.0217109 0.15239)
(-0.000604013 -0.0189524 0.152516)
(-0.000402186 -0.0204866 0.146381)
(-0.000516903 -0.0229381 0.144341)
(-0.00349002 -0.00092001 0.0319263)
(0.00368453 -0.00265186 0.0948594)
(0.00842506 -0.0226975 0.107402)
(0.0214298 -0.0246157 0.116528)
(0.00446091 -0.0384753 0.136316)
(-0.000895919 -0.0468448 0.1233)
(-0.000740477 -0.0517961 0.121797)
(-0.00349275 -0.0251215 0.0654623)
(-0.0045906 -0.0358175 0.0837625)
(-0.0103893 -0.0199393 0.116018)
(-0.00419751 -0.0256916 0.114238)
(-0.00595831 0.000430376 0.0303679)
(0.0113766 0.000104587 0.0929403)
(0.00361145 0.000396937 0.12465)
(0.00910241 -0.00027416 0.108312)
(0.00718865 -0.000237385 0.100218)
(0.00759699 -0.000360846 0.0967754)
(0.0060869 -0.000330967 0.094902)
(0.00551344 -0.000351764 0.0935375)
(0.00448377 -0.000338685 0.0926364)
(0.00378117 -0.000335038 0.0920368)
(0.00297093 -0.00032716 0.0916287)
(0.0022964 -0.000320469 0.0913596)
(0.00159852 -0.000315949 0.0911808)
(0.000962528 -0.000311899 0.0910754)
(0.00031159 -0.000309875 0.0910256)
(-0.00618783 0.000609184 0.0268757)
(0.0101126 -0.00210521 0.0925701)
(0.0027461 -0.00111784 0.12479)
(0.00847257 -0.00242595 0.108476)
(0.0071138 -0.00172578 0.100337)
(0.00749901 -0.00164198 0.0969646)
(0.00609078 -0.00134225 0.0950952)
(0.00550257 -0.00125613 0.0936836)
(0.00449834 -0.00114662 0.0927483)
(0.00379136 -0.00108706 0.0921249)
(0.00298474 -0.00104021 0.0917033)
(0.00230721 -0.00100405 0.0914235)
(0.00160678 -0.000983721 0.0912383)
(0.000967733 -0.000966609 0.0911278)
(0.00031239 -0.000960353 0.0910755)
(-0.00283127 -0.00128916 0.0125918)
(0.0106876 -0.00188917 0.102586)
(0.00453617 0.000988295 0.130356)
(0.00892546 -0.00274801 0.111491)
(0.00799558 -0.0020967 0.101282)
(0.00795158 -0.00234017 0.0975301)
(0.00646452 -0.0020119 0.095577)
(0.00570528 -0.00196679 0.0940504)
(0.00465136 -0.00184465 0.0930141)
(0.00388661 -0.00177465 0.0923253)
(0.00305354 -0.0017171 0.0918662)
(0.00235268 -0.00166311 0.0915595)
(0.00163593 -0.00163494 0.091359)
(0.000985868 -0.00160622 0.0912381)
(0.000317273 -0.00159659 0.0911815)
(0.00571473 -0.00400692 0.0810089)
(0.00398869 -0.000207412 0.126309)
(0.00611057 -0.00373141 0.116417)
(0.00741567 -0.00337919 0.10318)
(0.00752319 -0.00338965 0.0980489)
(0.00646361 -0.0029957 0.0960334)
(0.00566999 -0.00284457 0.0944906)
(0.00468964 -0.0026782 0.0933877)
(0.00391775 -0.00255378 0.0926232)
(0.00309579 -0.00247567 0.0921236)
(0.00238911 -0.00238876 0.0917811)
(0.00166368 -0.00235187 0.0915601)
(0.00100609 -0.00230671 0.0914233)
(0.000321705 -0.00229465 0.0913605)
(-0.00762845 0.00113528 0.0341776)
(0.00646167 0.00136521 0.0993795)
(0.00654367 -0.00316685 0.124846)
(0.00774418 -0.00420464 0.110073)
(0.00813735 -0.0041238 0.100436)
(0.00701623 -0.00379476 0.0971823)
(0.00603645 -0.00360516 0.0953501)
(0.00494549 -0.00345573 0.0940559)
(0.00408888 -0.0032968 0.0931235)
(0.00321843 -0.00321903 0.0925352)
(0.0024765 -0.00309699 0.0921241)
(0.00171825 -0.00305403 0.0918665)
(0.00104329 -0.00298546 0.0917032)
(0.000329063 -0.00296981 0.0916293)
(-0.00588962 0.00119227 0.0237962)
(0.00970707 -0.00714298 0.0790686)
(0.00596622 -0.00394774 0.126248)
(0.0063363 -0.004922 0.117136)
(0.00750248 -0.00505386 0.10294)
(0.00692739 -0.00476045 0.0980806)
(0.00602472 -0.00451092 0.096114)
(0.00500512 -0.00437813 0.0948506)
(0.00415475 -0.00415817 0.0937863)
(0.0032956 -0.00409114 0.0931239)
(0.00255426 -0.00392054 0.0926234)
(0.00177571 -0.00388778 0.0923256)
(0.00109072 -0.00379321 0.092125)
(0.00033707 -0.00378026 0.0920374)
(-0.00890901 0.000683015 0.037118)
(0.00762626 0.000329567 0.0999516)
(0.00646203 -0.0039623 0.125463)
(0.00766956 -0.00566654 0.110011)
(0.00739437 -0.00558735 0.100971)
(0.00641617 -0.00539744 0.0976331)
(0.00530713 -0.00531081 0.0961855)
(0.00437586 -0.00500978 0.0948505)
(0.00345575 -0.004949 0.0940563)
(0.0026801 -0.00469372 0.0933876)
(0.00184674 -0.00465317 0.0930144)
(0.00115179 -0.00450127 0.092748)
(0.00034191 -0.0044823 0.0926365)
(-0.00540448 0.000817209 0.0272793)
(0.0107 -0.00788639 0.0827389)
(0.0067705 -0.00419207 0.126512)
(0.0063287 -0.00577358 0.116509)
(0.00694959 -0.00633564 0.104314)
(0.00622904 -0.00624233 0.0990922)
(0.00539268 -0.00642419 0.0976342)
(0.00450768 -0.00603245 0.0961149)
(0.00360453 -0.00604202 0.0953509)
(0.00284673 -0.00567565 0.0944911)
(0.00196901 -0.00570832 0.0940509)
(0.00126307 -0.00550646 0.0936837)
(0.000355966 -0.00551168 0.0935382)
(-0.00641509 0.000274097 0.0406561)
(0.00785943 0.000207203 0.0997867)
(0.00594188 -0.00495968 0.124339)
(0.00684028 -0.0068709 0.114259)
(0.00632635 -0.0069647 0.104311)
(0.00558847 -0.00740254 0.100973)
(0.00476085 -0.00693402 0.0980816)
(0.00379693 -0.00702107 0.0971841)
(0.00300015 -0.00646974 0.0960349)
(0.00201575 -0.00646727 0.0955779)
(0.00135226 -0.00609608 0.0950962)
(0.000337495 -0.00608379 0.0949026)
(-0.00645945 -0.00129438 0.0194684)
(0.00474699 -0.00765079 0.0779511)
(0.00442391 -0.00451293 0.127482)
(0.00494343 -0.00599465 0.124345)
(0.00577654 -0.00635036 0.116515)
(0.00566918 -0.00768261 0.110017)
(0.00505485 -0.00751024 0.102943)
(0.00412402 -0.00814288 0.10044)
(0.00339397 -0.00753012 0.0980524)
(0.00234324 -0.0079557 0.0975335)
(0.00165487 -0.00750607 0.0969674)
(0.000368923 -0.00759503 0.0967771)
(0.000187791 -0.0136953 0.0129404)
(0.00763591 -0.00471725 0.0781447)
(-0.000159496 -0.00784892 0.0998515)
(0.00422248 -0.00676554 0.126554)
(0.00397904 -0.00646363 0.125485)
(0.00493071 -0.00633692 0.117147)
(0.00420789 -0.00774609 0.110082)
(0.00338503 -0.00742198 0.103187)
(0.00210057 -0.00799772 0.101289)
(0.00174213 -0.00712583 0.100345)
(0.00024995 -0.00718241 0.10022)
(0.00533501 -0.00998568 0.0140295)
(-0.00209653 2.00218e-05 0.0263017)
(0.00787881 -0.0106858 0.0827389)
(-0.000334912 -0.00762239 0.0999615)
(0.00394637 -0.00596359 0.126254)
(0.00316076 -0.00654402 0.124855)
(0.00373483 -0.0061153 0.116428)
(0.00274497 -0.00893063 0.111506)
(0.00244802 -0.00848448 0.108494)
(0.000290781 -0.00910071 0.108319)
(-0.00234313 0.00159651 0.0373795)
(-0.00523573 0.00125428 0.0280627)
(0.00714326 -0.00970823 0.0790703)
(-0.00136876 -0.00646576 0.0993845)
(0.000205962 -0.00399823 0.126323)
(-0.000992697 -0.00453735 0.13038)
(0.00114248 -0.00277313 0.124821)
(-0.0003674 -0.00359859 0.12466)
(-0.00315037 0.00108742 0.0237804)
(-0.00184981 0.00231448 0.0408468)
(-0.00437426 0.00193524 0.0280196)
(0.00401315 -0.00572099 0.0810207)
(0.00187204 -0.0107111 0.102599)
(0.00213475 -0.010143 0.0925943)
(-8.27226e-05 -0.0113926 0.0929466)
(-0.00369796 -0.0078664 0.0213342)
(0.00375558 -0.00600311 0.026428)
(-0.000976198 0.00265213 0.0333287)
(-0.00034774 0.00299984 0.0317235)
(-0.00520298 5.54872e-05 0.0231532)
(-0.00232039 0.000331319 0.0891807)
(0.00234893 0.000194233 0.119156)
(0.00765473 -0.000196341 0.110331)
(0.00659367 -0.000164304 0.108687)
(0.00653789 -0.000280857 0.107248)
(0.00528892 -0.000271987 0.106425)
(0.00479179 -0.000299915 0.105448)
(0.00390663 -0.00029118 0.104843)
(0.00331209 -0.000290975 0.104359)
(0.00261143 -0.000285827 0.104025)
(0.00203383 -0.000281939 0.103778)
(0.00141878 -0.000279187 0.103611)
(0.00085939 -0.000276799 0.103506)
(0.000276198 -0.000274546 0.103457)
(-0.00489386 -0.000423328 0.0207626)
(-0.00221821 -0.00124398 0.0891795)
(0.00179605 -0.00143071 0.118758)
(0.00730034 -0.00191257 0.11034)
(0.0065022 -0.00133727 0.108733)
(0.00642976 -0.0013018 0.107428)
(0.0052682 -0.00111797 0.10657)
(0.00477052 -0.00107703 0.105555)
(0.00391362 -0.000994598 0.104924)
(0.00331593 -0.000951062 0.104428)
(0.0026194 -0.000915239 0.104088)
(0.00203976 -0.000888794 0.103835)
(0.00142371 -0.000874636 0.103664)
(0.000862676 -0.0008617 0.103556)
(0.000277538 -0.000857919 0.103505)
(-0.00131572 -0.00149944 0.0103167)
(-0.00149152 -0.00101074 0.0965019)
(0.00274814 -0.000624822 0.123114)
(0.00776557 -0.00275172 0.112587)
(0.00714027 -0.00190801 0.109327)
(0.00675211 -0.00197193 0.107939)
(0.0055182 -0.00171505 0.106978)
(0.00491379 -0.0017012 0.105859)
(0.00403114 -0.00160186 0.105135)
(0.00339054 -0.00154951 0.104595)
(0.00267334 -0.00150352 0.10423)
(0.00207424 -0.00146409 0.10396)
(0.00144581 -0.00144478 0.10378)
(0.000876103 -0.00142325 0.103665)
(0.00028064 -0.00141726 0.10361)
(-0.00165995 0.00232944 0.0757057)
(0.00145891 0.000142918 0.118852)
(0.00596773 -0.00307688 0.115139)
(0.00708139 -0.0029286 0.109625)
(0.00662745 -0.00282913 0.107969)
(0.00556049 -0.00253218 0.107217)
(0.00488383 -0.00244931 0.106166)
(0.00406193 -0.00232108 0.105398)
(0.00341233 -0.00222749 0.10482)
(0.00270424 -0.00216462 0.104438)
(0.00209828 -0.00209799 0.10415)
(0.00146456 -0.0020733 0.10396)
(0.000890248 -0.00203935 0.103835)
(0.000283365 -0.00203207 0.103777)
(-0.00587283 0.00128061 0.0292093)
(-0.00215618 0.00107055 0.0930594)
(0.00411283 -0.00315356 0.119044)
(0.00679606 -0.00384818 0.112491)
(0.00711321 -0.00360374 0.10874)
(0.00595175 -0.00324628 0.107797)
(0.00513607 -0.00311437 0.106762)
(0.0042493 -0.00299049 0.105885)
(0.00354414 -0.00286935 0.1052)
(0.00280226 -0.00280237 0.104767)
(0.00216556 -0.00270495 0.104438)
(0.00150467 -0.00267324 0.10423)
(0.000917536 -0.00261989 0.104088)
(0.000287782 -0.00261023 0.104025)
(-0.00347944 0.00091342 0.0185094)
(-0.00104022 0.00134373 0.0731943)
(0.00114647 -0.00206493 0.118537)
(0.00574796 -0.00380908 0.115636)
(0.00698831 -0.00424692 0.109244)
(0.00609455 -0.0039491 0.107966)
(0.00516658 -0.00383783 0.107226)
(0.00430734 -0.00374194 0.106431)
(0.0035978 -0.00360018 0.105673)
(0.00286864 -0.00354531 0.105201)
(0.002228 -0.00341413 0.104821)
(0.0015502 -0.0033911 0.104596)
(0.000953634 -0.00331726 0.104429)
(0.000292833 -0.00331092 0.104358)
(-0.00845191 0.00209308 0.0312574)
(-0.00201564 0.000126619 0.0920434)
(0.003571 -0.00375977 0.119196)
(0.00642713 -0.00492004 0.112175)
(0.00631362 -0.00470481 0.108956)
(0.00537469 -0.0045882 0.107994)
(0.00449538 -0.00449683 0.107312)
(0.0037407 -0.00431022 0.106432)
(0.00299091 -0.00425104 0.105887)
(0.00232264 -0.00406477 0.1054)
(0.00160349 -0.00403199 0.105137)
(0.000998612 -0.00391574 0.104925)
(0.000293851 -0.00390468 0.104843)
(-0.00432479 -1.11048e-05 0.020903)
(-0.00115653 0.00125944 0.0756821)
(0.00166946 -0.00190911 0.119104)
(0.00538791 -0.00453477 0.115508)
(0.00613386 -0.00517635 0.109829)
(0.00533867 -0.0053529 0.108326)
(0.00458499 -0.00538025 0.107994)
(0.00383493 -0.00517208 0.107228)
(0.00311369 -0.00513925 0.106765)
(0.00245072 -0.00488791 0.106169)
(0.00170261 -0.00491504 0.105861)
(0.00108238 -0.00477316 0.105557)
(0.000303136 -0.00478942 0.105448)
(-0.00564078 0.000804319 0.0320321)
(-0.00163075 -0.000316072 0.0925844)
(0.00295439 -0.00393222 0.118769)
(0.00530819 -0.00532382 0.113792)
(0.00516942 -0.00614078 0.109832)
(0.00471141 -0.00631626 0.10896)
(0.00395069 -0.00609813 0.10797)
(0.0032484 -0.00595421 0.107802)
(0.00253575 -0.00556428 0.107221)
(0.00171815 -0.00551868 0.106981)
(0.00112564 -0.00527207 0.106573)
(0.000276427 -0.00528516 0.106425)
(-0.00448493 -0.00115862 0.0147522)
(-0.00156059 0.000543786 0.0723991)
(0.00205647 -0.00210235 0.12025)
(0.00391884 -0.00297954 0.118784)
(0.00453054 -0.00539378 0.115518)
(0.00492273 -0.00643451 0.112184)
(0.00424649 -0.00699279 0.10925)
(0.0036034 -0.00711619 0.108746)
(0.00283266 -0.0066315 0.107976)
(0.00197333 -0.00675362 0.107945)
(0.00131138 -0.00643479 0.107434)
(0.000285656 -0.00653489 0.107249)
(0.00270097 -0.0120302 0.0147461)
(-0.000565129 0.0015818 0.0724787)
(0.000338729 0.00163919 0.0926159)
(0.00192447 -0.00166624 0.119133)
(0.00377119 -0.00357235 0.119214)
(0.00381592 -0.00574875 0.115646)
(0.00385081 -0.00679728 0.112501)
(0.00293375 -0.00708612 0.109635)
(0.00191025 -0.00714096 0.109335)
(0.0013493 -0.00651186 0.108742)
(0.000171323 -0.00658626 0.108688)
(0.00455804 -0.00907001 0.0171227)
(-4.90337e-05 -0.00139625 0.0249516)
(-0.00126879 0.00116768 0.0756851)
(-0.000128557 0.00201894 0.0920505)
(0.00206307 -0.00114389 0.118543)
(0.0031486 -0.00411261 0.119052)
(0.00308064 -0.00597153 0.115151)
(0.00274808 -0.00776879 0.112599)
(0.00193013 -0.00730916 0.110359)
(0.000204552 -0.00765097 0.110332)
(-0.00235134 0.00197569 0.0293191)
(-0.00377865 -0.000475784 0.0250882)
(-0.00134394 0.00104013 0.0731994)
(-0.00107419 0.00215342 0.0930672)
(-0.000143955 -0.00146422 0.118869)
(0.000621289 -0.00274529 0.123138)
(0.00145008 -0.00181848 0.118791)
(-0.000176621 -0.00232852 0.119163)
(-0.00275816 0.00113319 0.0173448)
(-0.00268775 0.00231119 0.0322006)
(-0.00287299 -0.000458911 0.0260866)
(-0.00232675 0.00165881 0.0757187)
(0.000987849 0.00148402 0.0965139)
(0.00127793 0.00221254 0.0892103)
(-0.000315963 0.00231034 0.0891718)
(-0.00254956 -0.00705347 0.0214211)
(0.00303753 -0.00739855 0.0241127)
(-0.00106653 0.00175681 0.0300392)
(-0.000105524 0.00150713 0.0270675)
(-0.00522481 7.27067e-07 0.0225204)
(-0.000795823 0.000214679 0.0925339)
(0.00312566 0.000125273 0.118698)
(0.00479863 -5.33664e-05 0.11401)
(0.00412518 -5.96498e-05 0.113014)
(0.00430991 -0.000182287 0.111093)
(0.0038381 -0.000196514 0.109872)
(0.00365355 -0.000229815 0.108638)
(0.00309942 -0.000230239 0.107913)
(0.00269445 -0.00023646 0.107306)
(0.00216078 -0.000235841 0.106905)
(0.00170233 -0.000235434 0.106591)
(0.00119475 -0.00023444 0.106384)
(0.000728432 -0.000233633 0.106248)
(0.000233814 -0.00023197 0.106185)
(-0.00493787 -0.000677303 0.0203536)
(-0.000682352 -0.000470088 0.0927162)
(0.00273378 -0.000788009 0.118765)
(0.00457223 -0.000903993 0.114226)
(0.00400206 -0.00070209 0.113244)
(0.00418182 -0.00082706 0.111366)
(0.00379148 -0.000799661 0.110048)
(0.0036187 -0.00081632 0.108763)
(0.00309166 -0.000783968 0.108009)
(0.00268786 -0.000770841 0.107391)
(0.00216092 -0.000755509 0.106982)
(0.00170298 -0.000742401 0.106661)
(0.00119631 -0.000735795 0.106452)
(0.000729444 -0.000728415 0.106312)
(0.000234492 -0.000726844 0.106248)
(-0.00134885 -0.0016692 0.0105363)
(-0.000750314 -0.000842815 0.0988892)
(0.00277163 -0.000693383 0.122735)
(0.00472005 -0.00151781 0.116138)
(0.00420008 -0.00102071 0.114)
(0.00424137 -0.00124114 0.112059)
(0.00385775 -0.00121229 0.110545)
(0.00366825 -0.00128047 0.109116)
(0.00314441 -0.00125221 0.10826)
(0.00272281 -0.0012463 0.107595)
(0.00218916 -0.00123174 0.107158)
(0.00172196 -0.00121488 0.106819)
(0.00120871 -0.00120764 0.106599)
(0.000737383 -0.00119576 0.106451)
(0.000236068 -0.00119336 0.106384)
(-0.000786318 0.000924959 0.0788652)
(0.00215619 -0.000690704 0.119683)
(0.00398907 -0.00176405 0.118144)
(0.00425915 -0.00160905 0.114393)
(0.00405906 -0.00169481 0.112427)
(0.00376995 -0.00172334 0.110989)
(0.00357313 -0.00179895 0.109518)
(0.00312195 -0.0017811 0.108577)
(0.00270736 -0.00176716 0.107869)
(0.0021922 -0.00175319 0.107409)
(0.00172699 -0.0017265 0.10705)
(0.00121543 -0.00172084 0.106819)
(0.00074375 -0.00170256 0.106662)
(0.000236493 -0.00170088 0.106591)
(-0.00590787 0.00127416 0.030296)
(-0.000534922 -0.000546813 0.0945906)
(0.00329763 -0.00211541 0.119448)
(0.00418166 -0.00222538 0.116038)
(0.0042477 -0.00212192 0.113199)
(0.00379809 -0.00213242 0.111796)
(0.00360291 -0.00222893 0.110251)
(0.00316653 -0.00224415 0.109149)
(0.00274774 -0.00223311 0.108328)
(0.00222948 -0.00222911 0.107812)
(0.00175431 -0.00219249 0.107409)
(0.00123273 -0.00218862 0.107158)
(0.000757426 -0.00216119 0.106982)
(0.000237399 -0.00215956 0.106905)
(-0.00338356 0.00054936 0.0185115)
(-0.00049405 0.000702222 0.0759325)
(0.00187803 -0.00171766 0.118695)
(0.0040158 -0.00210916 0.118046)
(0.00424638 -0.00243941 0.113767)
(0.00374681 -0.00241987 0.112339)
(0.00346799 -0.00261836 0.110984)
(0.00310715 -0.00269762 0.109827)
(0.00271833 -0.00271967 0.108898)
(0.00223282 -0.00274807 0.108329)
(0.00176783 -0.00270842 0.107871)
(0.00124687 -0.00272286 0.107597)
(0.000772862 -0.00268861 0.107392)
(0.000237752 -0.00269314 0.107307)
(-0.00874438 0.00184007 0.0324762)
(-0.00055799 -0.000985314 0.0931639)
(0.00296088 -0.00245637 0.119238)
(0.00388956 -0.00282741 0.115525)
(0.00371186 -0.00276534 0.113318)
(0.00336016 -0.00293386 0.112047)
(0.00306465 -0.00306613 0.110926)
(0.00269724 -0.00310924 0.109829)
(0.0022448 -0.00316724 0.109152)
(0.00178253 -0.00312373 0.108579)
(0.0012535 -0.00314442 0.108262)
(0.000787225 -0.00309302 0.108011)
(0.000232211 -0.0030974 0.107913)
(-0.00463399 -0.000424452 0.0200691)
(-0.00067469 0.000792101 0.0782781)
(0.00206785 -0.00159436 0.119348)
(0.00358231 -0.00261729 0.117931)
(0.00358379 -0.0029739 0.114134)
(0.00318548 -0.00319393 0.112855)
(0.00293127 -0.00336229 0.112049)
(0.00261751 -0.00347134 0.110988)
(0.00222895 -0.0036044 0.110255)
(0.00180036 -0.00357575 0.109522)
(0.00128146 -0.00366831 0.109119)
(0.000820351 -0.00362035 0.108766)
(0.000231883 -0.00365137 0.108639)
(-0.00584638 0.000513306 0.0326958)
(-0.000608217 -0.00106769 0.094169)
(0.00220422 -0.00222516 0.119195)
(0.00304429 -0.0030485 0.116423)
(0.00297052 -0.00358694 0.11415)
(0.00276861 -0.00371184 0.113328)
(0.00242063 -0.00374876 0.112348)
(0.00213411 -0.00379915 0.111803)
(0.00172631 -0.00377207 0.110996)
(0.0012146 -0.00385729 0.11055)
(0.000805153 -0.00379389 0.110053)
(0.000199206 -0.00383487 0.109872)
(-0.00440167 -0.00172103 0.0150619)
(-0.000772162 0.000683808 0.0749261)
(0.0019929 -0.00202141 0.119749)
(0.002219 -0.0022145 0.119209)
(0.00261447 -0.00358724 0.117952)
(0.00282969 -0.00389474 0.115536)
(0.00243904 -0.00424928 0.113776)
(0.00212206 -0.00424935 0.113207)
(0.00169786 -0.00406126 0.112436)
(0.00124188 -0.00424165 0.112066)
(0.000833769 -0.00418463 0.111374)