/*--------------------------------*- C++ -*----------------------------------*\
| =========                 |                                                 |
| \\      /  F ield         | OpenFOAM: The Open Source CFD Toolbox           |
|  \\    /   O peration     | Version:  2.1.1                                 |
|   \\  /    A nd           | Web:      www.OpenFOAM.org                      |
|    \\/     M anipulation  |                                                 |
\*---------------------------------------------------------------------------*/
FoamFile
{
    version     2.0;
    format      ascii;
    class       surfaceScalarField;
    location    "0.0035";
    object      phi;
}
// * * * * * * * * * * * * * * * * * * * * * * * * * * * * * * * * * * * * * //

dimensions      [0 3 -1 0 0 0 0];

internalField   nonuniform List<scalar> 
29182
(
-1.96557e-12
2.03679e-12
-1.30503e-11
3.32007e-11
-2.02216e-11
-1.40984e-12
5.95717e-13
-1.4357e-11
5.47451e-11
-3.95739e-11
8.46603e-13
-7.99582e-12
2.14227e-11
-1.42735e-11
2.54829e-12
-1.2403e-11
-1.00412e-11
6.51464e-11
-4.52505e-11
-9.01426e-13
-2.48208e-13
7.61763e-10
4.83489e-11
4.27248e-11
-4.8241e-11
-4.23857e-11
5.78605e-11
4.4527e-11
-5.67027e-11
-4.49308e-11
-7.61814e-10
-7.13672e-15
-2.61443e-13
9.73963e-10
4.01235e-11
5.74751e-11
-4.07768e-11
-5.74102e-11
-9.74009e-10
-1.95352e-13
-2.22523e-14
8.77856e-10
6.60441e-11
6.46817e-11
-6.59438e-11
-6.45217e-11
-8.77908e-10
-1.34104e-13
8.71943e-10
6.28044e-11
6.20184e-11
-6.28063e-11
-6.20194e-11
-8.71997e-10
3.10727e-12
-1.08373e-11
2.16906e-11
-1.39605e-11
2.91591e-12
1.87229e-12
-1.40337e-11
-1.2691e-11
9.27854e-11
-7.08489e-11
-7.7902e-13
-1.82373e-13
7.21989e-10
6.16534e-11
5.79745e-11
-6.09041e-11
-5.75251e-11
6.50626e-11
4.47607e-11
-6.46803e-11
-4.5317e-11
-7.22053e-10
2.08622e-12
-1.33518e-12
9.01524e-10
5.50703e-11
4.66137e-11
-5.52212e-11
-4.79532e-11
-9.01565e-10
8.8274e-13
9.75239e-13
1.16259e-09
-1.16261e-09
6.40194e-13
1.78966e-14
1.18625e-09
-1.18629e-09
2.99328e-13
3.28035e-13
1.13919e-09
-1.1392e-09
1.80221e-13
1.12543e-09
-1.12544e-09
-2.64327e-12
-6.04958e-12
-1.01656e-11
4.95385e-11
-3.06801e-11
-1.77819e-12
-1.77069e-13
7.46811e-10
6.28639e-11
5.84846e-11
-6.19404e-11
-5.7954e-11
5.84413e-11
4.38614e-11
-5.72661e-11
-4.44752e-11
-7.46871e-10
7.18736e-13
-1.3549e-12
8.821e-10
5.89518e-11
4.70191e-11
-5.89392e-11
-4.81726e-11
-8.82103e-10
-4.70941e-13
1.04354e-12
1.1317e-09
-1.13174e-09
-1.90588e-12
1.20577e-13
1.15651e-09
-1.15653e-09
-7.43186e-13
-1.50579e-13
1.16945e-09
-1.16949e-09
-6.10066e-13
-1.1448e-13
1.15441e-09
-1.15441e-09
-2.41818e-13
-8.28248e-15
1.13686e-09
-1.13689e-09
-4.52588e-14
1.12882e-09
-1.12883e-09
-1.23448e-12
9.6632e-13
7.20433e-10
5.06235e-11
5.68297e-11
-5.08543e-11
-5.63477e-11
4.33247e-11
3.37459e-11
-4.23344e-11
-3.46883e-11
-7.20464e-10
1.78483e-12
-1.77071e-12
8.8157e-10
5.2852e-11
4.52681e-11
-5.30349e-11
-4.63037e-11
-8.81601e-10
4.07989e-13
1.2252e-12
1.13638e-09
-1.13641e-09
-9.37503e-13
2.99407e-14
1.14625e-09
-1.1463e-09
1.54813e-13
-3.73612e-14
1.15508e-09
-1.1551e-09
6.55875e-13
-3.66302e-13
1.14699e-09
-1.147e-09
4.26624e-13
8.74967e-14
1.14423e-09
-1.14423e-09
2.95375e-13
1.24793e-14
1.14033e-09
-1.14033e-09
1.53001e-13
1.24919e-13
1.13471e-09
-1.13471e-09
9.91319e-14
1.13045e-09
-1.13043e-09
9.76595e-13
-1.22932e-12
7.19589e-10
4.33115e-11
3.38718e-11
-4.23768e-11
-3.48286e-11
5.05917e-11
5.68247e-11
-5.08118e-11
-5.63354e-11
-7.19583e-10
1.00042e-12
9.99111e-13
1.1229e-09
-1.12296e-09
-1.31231e-12
5.63944e-13
1.13191e-09
-1.13194e-09
5.2871e-14
-1.07205e-13
1.14417e-09
-1.14421e-09
2.09065e-13
-1.34062e-13
1.13645e-09
-1.13645e-09
8.94728e-14
1.01953e-13
1.13459e-09
-1.13461e-09
-3.44428e-13
6.02231e-14
1.13679e-09
-1.13678e-09
-2.63966e-13
1.90683e-15
1.13944e-09
-1.13943e-09
-2.53079e-13
-1.44733e-14
1.1396e-09
-1.13959e-09
-1.23153e-13
-1.61243e-14
1.13742e-09
-1.13741e-09
-3.28811e-14
1.13547e-09
-1.13545e-09
-2.65375e-12
-1.01719e-11
-6.03603e-12
4.95225e-11
-3.06608e-11
-1.7704e-12
1.78531e-12
8.80835e-10
5.28544e-11
4.52895e-11
-5.30367e-11
-4.6325e-11
-8.80863e-10
5.62745e-13
-1.31501e-12
1.13177e-09
-1.13179e-09
5.70642e-13
5.71575e-13
1.12695e-09
-1.12697e-09
4.59222e-13
2.06961e-15
1.12367e-09
-1.12367e-09
1.40903e-13
1.9649e-13
1.12774e-09
-1.12775e-09
2.05723e-13
1.62305e-14
1.13232e-09
-1.1323e-09
2.3877e-13
9.8919e-15
1.13657e-09
-1.13655e-09
1.88327e-13
2.55354e-14
1.1392e-09
-1.13917e-09
1.39076e-13
7.72983e-15
1.13988e-09
-1.13985e-09
7.14635e-14
2.2177e-14
1.13918e-09
-1.13915e-09
1.40187e-14
1.13856e-09
-1.13852e-09
-1.08398e-11
3.10883e-12
2.16912e-11
-1.39602e-11
-1.7614e-13
-1.78018e-12
7.46608e-10
5.84245e-11
4.3842e-11
-5.72494e-11
-4.44564e-11
6.28672e-11
5.84924e-11
-6.19433e-11
-5.79611e-11
-7.46668e-10
1.22651e-12
4.08204e-13
1.13593e-09
-1.13596e-09
-1.07612e-13
5.20925e-14
1.14387e-09
-1.1439e-09
2.21577e-15
4.59865e-13
1.12385e-09
-1.12385e-09
-5.98832e-16
-6.41098e-16
1.12495e-09
-1.12495e-09
3.8626e-14
1.39669e-13
1.1299e-09
-1.12988e-09
1.64699e-15
3.61313e-14
1.13394e-09
-1.13392e-09
-7.20273e-14
6.09025e-14
1.1371e-09
-1.13708e-09
-6.20469e-14
-7.05507e-15
1.13923e-09
-1.13921e-09
-7.08533e-14
-8.61502e-15
1.14021e-09
-1.14018e-09
-3.88941e-14
-3.44235e-14
1.1403e-09
-1.14027e-09
-4.19565e-14
1.14033e-09
-1.1403e-09
1.87064e-12
2.91672e-12
-1.26931e-11
-1.40324e-11
9.27868e-11
-7.08486e-11
-1.3554e-12
7.18484e-13
8.8194e-10
5.89576e-11
4.70263e-11
-5.89447e-11
-4.818e-11
-8.81943e-10
2.95743e-14
-9.37465e-13
1.14599e-09
-1.14603e-09
-1.35111e-13
2.08686e-13
1.13625e-09
-1.13624e-09
1.95956e-13
1.40965e-13
1.1277e-09
-1.12771e-09
1.38902e-13
3.85495e-14
1.13e-09
-1.12998e-09
1.26207e-13
1.26628e-13
1.13316e-09
-1.13313e-09
1.29088e-13
4.34064e-15
1.13576e-09
-1.13573e-09
1.19544e-13
3.55128e-14
1.13809e-09
-1.13805e-09
9.52393e-14
-1.76291e-14
1.1399e-09
-1.13987e-09
6.48352e-14
-1.32432e-14
1.14099e-09
-1.14096e-09
2.99837e-14
-3.17987e-14
1.14144e-09
-1.1414e-09
-3.52506e-14
1.14171e-09
-1.14168e-09
-7.99606e-12
8.46683e-13
2.14228e-11
-1.42734e-11
-1.82425e-13
-7.78606e-13
7.21969e-10
6.506e-11
4.4755e-11
-6.4678e-11
-4.53114e-11
6.16542e-11
5.79761e-11
-6.09047e-11
-5.75267e-11
-7.22032e-10
1.04328e-12
-4.7113e-13
1.1316e-09
-1.13164e-09
-3.73186e-14
1.54797e-13
1.15492e-09
-1.15494e-09
1.0174e-13
8.93002e-14
1.13444e-09
-1.13446e-09
1.61456e-14
2.05763e-13
1.13226e-09
-1.13224e-09
3.59484e-14
1.67203e-15
1.13392e-09
-1.13391e-09
4.19959e-15
1.29574e-13
1.13578e-09
-1.13575e-09
-8.73218e-15
-8.40261e-15
1.13764e-09
-1.13762e-09
-3.98809e-14
3.70428e-14
1.13936e-09
-1.13934e-09
-3.93541e-14
-3.89251e-14
1.14081e-09
-1.1408e-09
-4.30435e-14
-2.87989e-14
1.14191e-09
-1.14189e-09
-2.6154e-14
-6.21337e-14
1.14248e-09
-1.14247e-09
-6.31832e-14
1.14282e-09
-1.14281e-09
2.54813e-12
-1.00417e-11
-1.24026e-11
6.51464e-11
-4.52502e-11
-1.33519e-12
2.08658e-12
9.01495e-10
5.50716e-11
4.66155e-11
-5.52224e-11
-4.79549e-11
-9.01536e-10
1.20564e-13
-1.90592e-12
1.15644e-09
-1.15646e-09
-3.66595e-13
6.56202e-13
1.14691e-09
-1.14692e-09
5.98041e-14
-3.44447e-13
1.13673e-09
-1.13672e-09
9.33471e-15
2.39016e-13
1.13651e-09
-1.13649e-09
6.03132e-14
-7.18434e-14
1.13706e-09
-1.13704e-09
3.51081e-14
1.20061e-13
1.13806e-09
-1.13803e-09
3.65525e-14
-3.93975e-14
1.13936e-09
-1.13933e-09
2.14618e-14
2.1981e-14
1.14078e-09
-1.14075e-09
1.35353e-14
-5.03068e-14
1.14197e-09
-1.14195e-09
2.5346e-15
-3.4878e-14
1.14299e-09
-1.14298e-09
-4.40045e-15
-6.4124e-14
1.14361e-09
-1.14361e-09
-6.23449e-14
1.14396e-09
-1.14395e-09
-2.4827e-13
-9.01317e-13
7.6176e-10
5.78598e-11
4.45255e-11
-5.67022e-11
-4.49293e-11
4.8349e-11
4.27249e-11
-4.8241e-11
-4.23858e-11
-7.61811e-10
9.75191e-13
8.8307e-13
1.16257e-09
-1.1626e-09
-1.50808e-13
-7.43026e-13
1.16943e-09
-1.16946e-09
8.7216e-14
4.27024e-13
1.14418e-09
-1.14418e-09
1.53682e-15
-2.63712e-13
1.13938e-09
-1.13938e-09
2.52448e-14
1.88822e-13
1.13915e-09
-1.13913e-09
-7.32133e-15
-6.16494e-14
1.1392e-09
-1.13918e-09
-1.77959e-14
9.58779e-14
1.13988e-09
-1.13985e-09
-3.92121e-14
-3.87436e-14
1.14081e-09
-1.14079e-09
-5.06928e-14
1.42022e-14
1.14204e-09
-1.14202e-09
-5.27182e-14
-5.23628e-14
1.14315e-09
-1.14316e-09
-4.74588e-14
-3.87063e-14
1.14404e-09
-1.14404e-09
-3.15814e-14
-6.76197e-14
1.1447e-09
-1.14472e-09
-6.54359e-14
1.14505e-09
-1.14507e-09
-2.6143e-13
-6.98502e-15
9.73956e-10
4.01237e-11
5.74756e-11
-4.0777e-11
-5.74107e-11
-9.74002e-10
1.78093e-14
6.40548e-13
1.18623e-09
-1.18627e-09
-1.14775e-13
-6.09739e-13
1.15437e-09
-1.15437e-09
1.21495e-14
2.95892e-13
1.14028e-09
-1.14028e-09
-1.48575e-14
-2.52622e-13
1.13956e-09
-1.13955e-09
7.39978e-15
1.39833e-13
1.13985e-09
-1.13982e-09
-9.00047e-15
-7.02993e-14
1.14018e-09
-1.14015e-09
-1.36244e-14
6.56198e-14
1.14097e-09
-1.14094e-09
-2.92518e-14
-4.23456e-14
1.1419e-09
-1.14188e-09
-3.53569e-14
3.34762e-15
1.143e-09
-1.14299e-09
-3.9111e-14
-4.67136e-14
1.14414e-09
-1.14414e-09
-3.50841e-14
-3.44674e-14
1.14511e-09
-1.14512e-09
-2.56818e-14
-5.55149e-14
1.14579e-09
-1.14582e-09
-5.27444e-14
1.14622e-09
-1.14625e-09
-1.96563e-12
-1.30504e-11
2.03688e-12
3.32007e-11
-2.02215e-11
-2.21568e-14
-1.95199e-13
8.77851e-10
6.60444e-11
6.46818e-11
-6.59441e-11
-6.4522e-11
-8.77902e-10
3.28062e-13
2.99645e-13
1.13917e-09
-1.13918e-09
-8.45023e-15
-2.41439e-13
1.13684e-09
-1.13687e-09
1.24796e-13
1.53502e-13
1.13468e-09
-1.13467e-09
-1.62836e-14
-1.22697e-13
1.13739e-09
-1.13738e-09
2.20393e-14
7.20771e-14
1.13915e-09
-1.13912e-09
-3.4631e-14
-3.83045e-14
1.14028e-09
-1.14025e-09
-3.20435e-14
3.07229e-14
1.14142e-09
-1.14139e-09
-6.23897e-14
-2.539e-14
1.14247e-09
-1.14246e-09
-6.43969e-14
-3.3401e-15
1.14361e-09
-1.14361e-09
-6.7923e-14
-3.06026e-14
1.14474e-09
-1.14476e-09
-5.61575e-14
-2.46177e-14
1.1459e-09
-1.14592e-09
-3.66472e-14
-3.52146e-14
1.1468e-09
-1.14684e-09
-3.39283e-14
1.14735e-09
-1.14739e-09
-1.40987e-12
-1.4357e-11
5.95781e-13
5.4745e-11
-3.95739e-11
-1.34212e-13
8.7194e-10
6.28044e-11
6.20182e-11
-6.28063e-11
-6.20192e-11
-8.71994e-10
1.80011e-13
1.12542e-09
-1.12543e-09
-4.52575e-14
1.12881e-09
-1.12882e-09
9.90755e-14
1.13043e-09
-1.13042e-09
-3.30538e-14
1.13546e-09
-1.13544e-09
1.37929e-14
1.13854e-09
-1.13851e-09
-4.22312e-14
1.14032e-09
-1.14029e-09
-3.54608e-14
1.1417e-09
-1.14167e-09
-6.33293e-14
1.14282e-09
-1.14281e-09
-6.24564e-14
1.14396e-09
-1.14396e-09
-6.56704e-14
1.14507e-09
-1.14508e-09
-5.34158e-14
1.14624e-09
-1.14626e-09
-3.45878e-14
1.14737e-09
-1.14741e-09
1.14826e-09
-1.1483e-09
-2.02235e-11
-1.96571e-12
2.03712e-12
-1.30536e-11
3.32056e-11
-3.9577e-11
-1.40992e-12
5.95797e-13
-1.43606e-11
5.47518e-11
-1.42752e-11
8.46896e-13
-7.99813e-12
2.14264e-11
-4.52538e-11
2.54862e-12
-1.24043e-11
-1.00454e-11
6.51549e-11
-9.03229e-13
-2.43334e-13
7.61713e-10
4.83587e-11
4.27325e-11
-4.82497e-11
-4.23948e-11
5.78682e-11
4.4537e-11
-5.67185e-11
-4.4939e-11
-6.87126e-15
-2.65153e-13
9.73916e-10
4.01332e-11
5.74858e-11
-4.07833e-11
-5.74229e-11
-1.97142e-13
-2.51281e-14
8.77811e-10
6.60568e-11
6.46951e-11
-6.59575e-11
-6.4534e-11
-1.32611e-13
8.71882e-10
6.28174e-11
6.20315e-11
-6.28179e-11
-6.20309e-11
-1.39622e-11
3.10763e-12
-1.08396e-11
2.16942e-11
-7.08547e-11
2.91679e-12
1.87266e-12
-1.40372e-11
-1.26949e-11
9.27973e-11
-7.71325e-13
-2.26218e-13
7.21954e-10
6.16635e-11
5.79855e-11
-6.09167e-11
-5.75363e-11
6.50755e-11
4.4774e-11
-6.46934e-11
-4.53206e-11
2.09371e-12
-1.35104e-12
9.01484e-10
5.50833e-11
4.66242e-11
-5.52278e-11
-4.79583e-11
8.89056e-13
9.54377e-13
1.16259e-09
6.44518e-13
8.42191e-15
1.18622e-09
2.95883e-13
3.37074e-13
1.13917e-09
1.56974e-13
1.12544e-09
-3.06825e-11
-2.64291e-12
-6.05129e-12
-1.01685e-11
4.95452e-11
-1.85036e-12
-1.47232e-13
7.46774e-10
6.28763e-11
5.85002e-11
-6.19521e-11
-5.79615e-11
5.84526e-11
4.3874e-11
-5.72768e-11
-4.44794e-11
7.19902e-13
-1.40478e-12
8.82072e-10
5.89619e-11
4.70288e-11
-5.89516e-11
-4.81788e-11
-4.92077e-13
1.04029e-12
1.13164e-09
-1.94194e-12
1.17843e-13
1.15649e-09
-7.72605e-13
-1.73372e-13
1.16941e-09
-6.27402e-13
-1.49624e-13
1.15442e-09
-2.55493e-13
-3.74336e-14
1.13686e-09
-8.90014e-14
1.12882e-09
-1.22092e-12
9.78876e-13
7.20421e-10
5.06364e-11
5.68419e-11
-5.08611e-11
-5.63568e-11
4.33119e-11
3.374e-11
-4.23593e-11
-3.47004e-11
1.79616e-12
-1.78877e-12
8.81547e-10
5.28626e-11
4.52806e-11
-5.30435e-11
-4.6308e-11
4.17897e-13
1.24272e-12
1.13636e-09
-9.67665e-13
4.6036e-15
1.14623e-09
1.41007e-13
-7.04537e-14
1.15508e-09
6.48535e-13
-3.96296e-13
1.14699e-09
4.14207e-13
4.03232e-14
1.14425e-09
2.84527e-13
-4.57085e-14
1.14036e-09
1.50114e-13
6.70724e-14
1.13474e-09
3.31189e-14
1.13048e-09
9.69287e-13
-1.22489e-12
7.19556e-10
4.33457e-11
3.38861e-11
-4.23642e-11
-3.48316e-11
5.05944e-11
5.68324e-11
-5.08272e-11
-5.63485e-11
9.93245e-13
9.89409e-13
1.12286e-09
-1.37465e-12
5.80141e-13
1.13191e-09
4.07558e-14
-1.46686e-13
1.14414e-09
1.86052e-13
-1.56442e-13
1.13647e-09
6.44061e-14
5.03995e-14
1.13459e-09
-3.72681e-13
1.51318e-14
1.13682e-09
-2.83342e-13
-6.58388e-14
1.13945e-09
-2.71316e-13
-8.38394e-14
1.13963e-09
-1.30357e-13
-9.53894e-14
1.13745e-09
-1.14929e-13
1.1355e-09
-3.06633e-11
-2.65358e-12
-1.01749e-11
-6.03758e-12
4.95294e-11
-1.78989e-12
1.79631e-12
8.80811e-10
5.28644e-11
4.53018e-11
-5.30458e-11
-4.63296e-11
5.78099e-13
-1.37675e-12
1.13176e-09
5.75655e-13
5.7668e-13
1.12696e-09
4.48061e-13
-3.93857e-14
1.12369e-09
1.28952e-13
1.54711e-13
1.12774e-09
1.72919e-13
-3.93394e-14
1.13237e-09
2.01281e-13
-5.40104e-14
1.13661e-09
1.54528e-13
-5.88011e-14
1.13924e-09
1.16156e-13
-8.60683e-14
1.13992e-09
6.08458e-14
-8.00459e-14
1.13922e-09
-9.19588e-14
1.1386e-09
-1.39619e-11
-1.08421e-11
3.10921e-12
2.16948e-11
-1.46478e-13
-1.85052e-12
7.46571e-10
5.84357e-11
4.38546e-11
-5.72602e-11
-4.44607e-11
6.28797e-11
5.85079e-11
-6.19551e-11
-5.79686e-11
1.24383e-12
4.18135e-13
1.13591e-09
-1.4711e-13
3.98891e-14
1.14384e-09
-3.93367e-14
4.48737e-13
1.12387e-09
-4.59653e-14
-4.59598e-14
1.12497e-09
-1.43524e-14
8.77666e-14
1.12993e-09
-4.74135e-14
-3.53422e-14
1.13397e-09
-1.18476e-13
-1.76274e-14
1.13714e-09
-1.00186e-13
-1.04563e-13
1.13926e-09
-9.87564e-14
-1.13419e-13
1.14023e-09
-5.1749e-14
-1.49481e-13
1.14032e-09
-1.61054e-13
1.14035e-09
-7.08544e-11
1.87098e-12
2.9176e-12
-1.2697e-11
-1.4036e-11
9.27988e-11
-1.40518e-12
7.19846e-13
8.81911e-10
5.89678e-11
4.7036e-11
-5.8957e-11
-4.81863e-11
4.26826e-15
-9.67484e-13
1.14596e-09
-1.57429e-13
1.85663e-13
1.13626e-09
1.54042e-13
1.29072e-13
1.12771e-09
8.69404e-14
-1.4352e-14
1.13003e-09
6.90607e-14
6.95811e-14
1.1332e-09
6.85489e-14
-7.46356e-14
1.1358e-09
6.24647e-14
-5.31708e-14
1.13812e-09
4.6756e-14
-1.23779e-13
1.13993e-09
3.10968e-14
-1.27801e-13
1.14102e-09
1.2587e-14
-1.56919e-13
1.14146e-09
-1.64232e-13
1.14173e-09
-1.42751e-11
-7.99838e-12
8.4698e-13
2.14265e-11
-2.26298e-13
-7.70807e-13
7.21933e-10
6.50729e-11
4.47684e-11
-6.46911e-11
-4.5315e-11
6.16643e-11
5.79871e-11
-6.09174e-11
-5.75379e-11
1.0401e-12
-4.92056e-13
1.13154e-09
-7.03098e-14
1.41051e-13
1.15493e-09
5.02322e-14
6.4234e-14
1.13444e-09
-3.94312e-14
1.72797e-13
1.13231e-09
-3.56022e-14
-4.73988e-14
1.13395e-09
-7.49235e-14
6.91085e-14
1.13582e-09
-8.82694e-14
-8.78605e-14
1.13766e-09
-1.14289e-13
-5.29967e-14
1.13939e-09
-1.01059e-13
-1.45583e-13
1.14082e-09
-8.78758e-14
-1.43945e-13
1.14191e-09
-4.91214e-14
-1.87246e-13
1.14247e-09
-1.90924e-13
1.14281e-09
-4.52536e-11
2.54846e-12
-1.00458e-11
-1.2404e-11
6.51549e-11
-1.35108e-12
2.0942e-12
9.01455e-10
5.50846e-11
4.6626e-11
-5.5229e-11
-4.796e-11
1.17719e-13
-1.94178e-12
1.15642e-09
-3.96721e-13
6.48955e-13
1.14692e-09
1.46737e-14
-3.72553e-13
1.13675e-09
-5.46034e-14
2.01654e-13
1.13655e-09
-1.82163e-14
-1.18209e-13
1.1371e-09
-5.36824e-14
6.31229e-14
1.1381e-09
-5.35312e-14
-1.13631e-13
1.13938e-09
-6.33853e-14
-6.27914e-14
1.14079e-09
-5.81292e-14
-1.50712e-13
1.14196e-09
-4.85517e-14
-1.42929e-13
1.14298e-09
-3.00241e-14
-1.81668e-13
1.14359e-09
-1.81819e-13
1.14393e-09
-2.43398e-13
-9.03071e-13
7.6171e-10
5.78676e-11
4.45356e-11
-5.6718e-11
-4.49375e-11
4.83588e-11
4.27327e-11
-4.82498e-11
-4.2395e-11
9.54321e-13
8.89482e-13
1.16258e-09
-1.73689e-13
-7.72225e-13
1.16939e-09
3.98735e-14
4.14801e-13
1.1442e-09
-6.62136e-14
-2.82755e-13
1.1394e-09
-5.90716e-14
1.56369e-13
1.13919e-09
-1.04733e-13
-9.94476e-14
1.13922e-09
-1.24019e-13
4.76059e-14
1.13991e-09
-1.45953e-13
-1.00234e-13
1.14082e-09
-1.51196e-13
-5.72544e-14
1.14203e-09
-1.35694e-13
-1.35206e-13
1.14312e-09
-1.06983e-13
-1.29471e-13
1.14399e-09
-6.09505e-14
-1.65746e-13
1.14464e-09
-1.66164e-13
1.14498e-09
-2.65186e-13
-6.67006e-15
9.73909e-10
4.01334e-11
5.74862e-11
-4.07834e-11
-5.74234e-11
8.26951e-15
6.44956e-13
1.1862e-09
-1.49997e-13
-6.26901e-13
1.15438e-09
-4.61501e-14
2.8526e-13
1.14031e-09
-8.42707e-14
-2.70521e-13
1.13959e-09
-8.6437e-14
1.18785e-13
1.13989e-09
-1.13797e-13
-9.77418e-14
1.1402e-09
-1.28269e-13
3.21659e-14
1.141e-09
-1.44451e-13
-8.68791e-14
1.1419e-09
-1.43442e-13
-4.73617e-14
1.14299e-09
-1.29926e-13
-1.05873e-13
1.14409e-09
-1.00675e-13
-9.99081e-14
1.14504e-09
-5.91418e-14
-1.25872e-13
1.14571e-09
-1.24272e-13
1.14613e-09
-2.02234e-11
-1.96576e-12
-1.30537e-11
2.03722e-12
3.32056e-11
-2.49734e-14
-1.96943e-13
8.77805e-10
6.60571e-11
6.46953e-11
-6.59578e-11
-6.45343e-11
3.37177e-13
2.96289e-13
1.13916e-09
-3.75672e-14
-2.54362e-13
1.13684e-09
6.70547e-14
1.50752e-13
1.13471e-09
-9.55186e-14
-1.29686e-13
1.13742e-09
-8.02038e-14
6.2666e-14
1.13919e-09
-1.49763e-13
-5.08377e-14
1.1403e-09
-1.57175e-13
1.36427e-14
1.14145e-09
-1.87435e-13
-4.797e-14
1.14246e-09
-1.81903e-13
-2.84771e-14
1.14359e-09
-1.66141e-13
-5.95024e-14
1.14468e-09
-1.26607e-13
-5.77137e-14
1.14581e-09
-7.24563e-14
-7.09779e-14
1.14669e-09
-7.12951e-14
1.14724e-09
-3.95769e-11
-1.40994e-12
-1.43607e-11
5.95858e-13
5.47517e-11
-1.32733e-13
8.71879e-10
6.28174e-11
6.20313e-11
-6.28179e-11
-6.20308e-11
1.56748e-13
1.12544e-09
-8.88864e-14
1.12881e-09
3.32158e-14
1.13047e-09
-1.15116e-13
1.13548e-09
-9.21799e-14
1.13859e-09
-1.61384e-13
1.14034e-09
-1.64329e-13
1.14172e-09
-1.9085e-13
1.14281e-09
-1.81875e-13
1.14393e-09
-1.66668e-13
1.145e-09
-1.25169e-13
1.14614e-09
-7.21059e-14
1.14725e-09
1.14811e-09
-2.02259e-11
-1.96583e-12
2.03719e-12
-1.30569e-11
3.32115e-11
-3.95806e-11
-1.40997e-12
5.95784e-13
-1.43649e-11
5.47596e-11
-1.42774e-11
8.47161e-13
-8.00076e-12
2.1431e-11
-4.5258e-11
2.54878e-12
-1.24051e-11
-1.0051e-11
6.51653e-11
-9.01811e-13
-2.38072e-13
7.6167e-10
4.83696e-11
4.27408e-11
-4.82611e-11
-4.24063e-11
5.78765e-11
4.45489e-11
-5.67385e-11
-4.49489e-11
-1.50734e-14
-2.6173e-13
9.73876e-10
4.01448e-11
5.74974e-11
-4.07906e-11
-5.74377e-11
-2.07641e-13
-3.41207e-14
8.77775e-10
6.60714e-11
6.47111e-11
-6.5974e-11
-6.45478e-11
-1.8329e-13
8.71857e-10
6.28327e-11
6.20465e-11
-6.28321e-11
-6.20441e-11
-1.39645e-11
3.10794e-12
-1.08424e-11
2.16989e-11
-7.08628e-11
2.91698e-12
1.87208e-12
-1.40403e-11
-1.26991e-11
9.28131e-11
-7.69544e-13
-2.29568e-13
7.21915e-10
6.16758e-11
5.79983e-11
-6.09319e-11
-5.75493e-11
6.50898e-11
4.47896e-11
-6.47099e-11
-4.53261e-11
2.04938e-12
-1.36826e-12
9.01495e-10
5.50993e-11
4.66368e-11
-5.52358e-11
-4.79643e-11
8.88937e-13
9.19391e-13
1.1626e-09
6.43452e-13
-5.9975e-15
1.18621e-09
3.03942e-13
2.93105e-13
1.13918e-09
1.22269e-13
1.12544e-09
-3.06857e-11
-2.643e-12
-6.05344e-12
-1.01717e-11
4.95539e-11
-1.88026e-12
-1.51854e-13
7.46764e-10
6.28889e-11
5.85148e-11
-6.19679e-11
-5.79738e-11
5.84649e-11
4.38884e-11
-5.72913e-11
-4.44852e-11
7.15416e-13
-1.45245e-12
8.8206e-10
5.89736e-11
4.7041e-11
-5.8965e-11
-4.81849e-11
-5.19817e-13
1.03835e-12
1.13161e-09
-1.98093e-12
9.3362e-14
1.15649e-09
-8.55629e-13
-2.11037e-13
1.16942e-09
-6.46466e-13
-2.10799e-13
1.15442e-09
-2.7555e-13
-9.48444e-14
1.13688e-09
-1.59236e-13
1.12883e-09
-1.21515e-12
9.68003e-13
7.20393e-10
5.06429e-11
5.68517e-11
-5.08774e-11
-5.63718e-11
4.33354e-11
3.37524e-11
-4.23557e-11
-3.47051e-11
1.80048e-12
-1.80544e-12
8.81539e-10
5.28733e-11
4.52933e-11
-5.30554e-11
-4.63146e-11
4.1862e-13
1.25004e-12
1.13634e-09
-1.00392e-12
-3.10495e-14
1.14622e-09
1.28243e-13
-1.13359e-13
1.1551e-09
6.36512e-13
-4.47106e-13
1.14703e-09
4.01189e-13
-2.91496e-14
1.1443e-09
2.74459e-13
-1.39043e-13
1.14041e-09
1.46564e-13
-2.71228e-14
1.1348e-09
-6.99674e-14
1.13055e-09
9.70194e-13
-1.21293e-12
7.19545e-10
4.33414e-11
3.38872e-11
-4.23871e-11
-3.48438e-11
5.06071e-11
5.68451e-11
-5.08377e-11
-5.63608e-11
9.80242e-13
9.78555e-13
1.12284e-09
-1.42658e-12
5.89009e-13
1.13192e-09
1.64454e-14
-1.9395e-13
1.14414e-09
1.53227e-13
-1.97808e-13
1.1365e-09
2.36487e-14
-1.27848e-14
1.13462e-09
-4.14922e-13
-5.57773e-14
1.13686e-09
-3.13655e-13
-1.68899e-13
1.13949e-09
-2.99678e-13
-1.98811e-13
1.13968e-09
-1.434e-13
-2.22215e-13
1.13748e-09
-2.4727e-13
1.13553e-09
-3.06664e-11
-2.65367e-12
-1.01782e-11
-6.03968e-12
4.9538e-11
-1.8061e-12
1.80124e-12
8.80804e-10
5.28756e-11
4.53147e-11
-5.30574e-11
-4.63361e-11
5.87315e-13
-1.42817e-12
1.13177e-09
5.67969e-13
5.69622e-13
1.12699e-09
4.2568e-13
-9.6393e-14
1.12374e-09
9.21274e-14
9.06634e-14
1.12779e-09
1.69323e-13
-1.34879e-13
1.13241e-09
2.1149e-13
-1.6067e-13
1.13667e-09
1.62062e-13
-1.85775e-13
1.1393e-09
1.23022e-13
-2.26398e-13
1.13999e-09
6.5693e-14
-2.30388e-13
1.13928e-09
-2.49442e-13
1.13866e-09
-1.39641e-11
-1.08449e-11
3.10952e-12
2.16995e-11
-1.50996e-13
-1.88029e-12
7.46561e-10
5.8448e-11
4.38689e-11
-5.72746e-11
-4.44665e-11
6.28923e-11
5.85224e-11
-6.19709e-11
-5.79809e-11
1.25113e-12
4.18924e-13
1.13589e-09
-1.94237e-13
1.55613e-14
1.14384e-09
-9.65925e-14
4.26613e-13
1.12392e-09
-1.14191e-13
-1.14013e-13
1.125e-09
-9.09667e-14
1.09895e-14
1.12999e-09
-1.2457e-13
-1.45741e-13
1.13401e-09
-1.92566e-13
-1.3931e-13
1.13718e-09
-1.5946e-13
-2.51705e-13
1.13929e-09
-1.48381e-13
-2.71193e-13
1.14026e-09
-7.68128e-14
-3.22737e-13
1.14034e-09
-3.38846e-13
1.14036e-09
-7.08625e-11
1.87037e-12
2.91779e-12
-1.27012e-11
-1.4039e-11
9.28146e-11
-1.45264e-12
7.15444e-13
8.819e-10
5.89795e-11
4.70483e-11
-5.89705e-11
-4.81923e-11
-3.11907e-14
-1.0036e-12
1.14596e-09
-1.98763e-13
1.52777e-13
1.13629e-09
8.97729e-14
9.23636e-14
1.12775e-09
9.91411e-15
-9.09274e-14
1.13009e-09
-2.00845e-14
-1.94255e-14
1.13326e-09
-2.37808e-14
-1.94299e-13
1.13585e-09
-2.38906e-14
-1.88076e-13
1.13817e-09
-2.55539e-14
-2.83585e-13
1.13996e-09
-2.08624e-14
-3.00869e-13
1.14104e-09
-1.39563e-14
-3.44948e-13
1.14147e-09
-3.55869e-13
1.14174e-09
-1.42772e-11
-8.00101e-12
8.47247e-13
2.1431e-11
-2.29575e-13
-7.68922e-13
7.21894e-10
6.50872e-11
4.47839e-11
-6.47078e-11
-4.53205e-11
6.16766e-11
5.79999e-11
-6.09326e-11
-5.75509e-11
1.03819e-12
-5.19587e-13
1.1315e-09
-1.13034e-13
1.28151e-13
1.15494e-09
-1.29091e-14
2.33303e-14
1.13447e-09
-1.35057e-13
1.69001e-13
1.13235e-09
-1.46158e-13
-1.24696e-13
1.134e-09
-1.94759e-13
-2.31005e-14
1.13587e-09
-2.07661e-13
-2.07064e-13
1.13769e-09
-2.26045e-13
-1.89048e-13
1.1394e-09
-1.94397e-13
-3.05581e-13
1.14081e-09
-1.54321e-13
-3.16179e-13
1.14188e-09
-8.1924e-14
-3.73326e-13
1.14242e-09
-3.82523e-13
1.14276e-09
-4.52577e-11
2.54861e-12
-1.00515e-11
-1.24047e-11
6.51653e-11
-1.36831e-12
2.04987e-12
9.01467e-10
5.51006e-11
4.66387e-11
-5.5237e-11
-4.79661e-11
9.33262e-14
-1.98063e-12
1.15642e-09
-4.47462e-13
6.36984e-13
1.14695e-09
-5.69468e-14
-4.15011e-13
1.1368e-09
-1.60721e-13
2.09361e-13
1.13661e-09
-1.39947e-13
-1.92595e-13
1.13714e-09
-1.88744e-13
-2.30987e-14
1.13815e-09
-1.89723e-13
-2.25159e-13
1.1394e-09
-1.91124e-13
-1.9043e-13
1.14079e-09
-1.64016e-13
-2.9926e-13
1.14193e-09
-1.23668e-13
-3.03737e-13
1.14292e-09
-6.80384e-14
-3.55844e-13
1.14351e-09
-3.62151e-13
1.14384e-09
-2.38086e-13
-9.0161e-13
7.61667e-10
5.78759e-11
4.45474e-11
-5.6738e-11
-4.49475e-11
4.83697e-11
4.2741e-11
-4.82612e-11
-4.24064e-11
9.1939e-13
8.89469e-13
1.16258e-09
-2.11227e-13
-8.55151e-13
1.16939e-09
-2.97852e-14
4.02002e-13
1.14425e-09
-1.71876e-13
-3.12443e-13
1.13944e-09
-1.83516e-13
1.51268e-13
1.13926e-09
-2.51779e-13
-1.5809e-13
1.13926e-09
-2.83971e-13
-2.44796e-14
1.13995e-09
-3.06122e-13
-1.93333e-13
1.1408e-09
-2.99901e-13
-1.62891e-13
1.142e-09
-2.58735e-13
-2.58132e-13
1.14304e-09
-1.97164e-13
-2.64543e-13
1.14389e-09
-1.07591e-13
-3.10704e-13
1.1445e-09
-3.15974e-13
1.14484e-09
-2.61826e-13
-1.48197e-14
9.73869e-10
4.0145e-11
5.74979e-11
-4.07907e-11
-5.74382e-11
-6.22352e-15
6.43995e-13
1.18619e-09
-2.11272e-13
-6.458e-13
1.15438e-09
-1.39782e-13
2.75446e-13
1.14036e-09
-1.99915e-13
-2.98233e-13
1.13963e-09
-2.26377e-13
1.09241e-13
1.13995e-09
-2.71394e-13
-1.46737e-13
1.14024e-09
-3.01445e-13
-1.94031e-14
1.14102e-09
-3.16744e-13
-1.53029e-13
1.14187e-09
-3.0427e-13
-1.22164e-13
1.14294e-09
-2.64999e-13
-1.95839e-13
1.14399e-09
-1.97919e-13
-1.97159e-13
1.14491e-09
-1.09443e-13
-2.31483e-13
1.14555e-09
-2.35292e-13
1.14594e-09
-2.02259e-11
-1.96588e-12
-1.3057e-11
2.03729e-12
3.32115e-11
-3.40182e-14
-2.0738e-13
8.7777e-10
6.60717e-11
6.47113e-11
-6.59743e-11
-6.45481e-11
2.93204e-13
3.04438e-13
1.13917e-09
-9.49496e-14
-2.74734e-13
1.13686e-09
-2.69589e-14
1.47356e-13
1.13477e-09
-2.2105e-13
-1.42325e-13
1.13745e-09
-2.31829e-13
5.64325e-14
1.13926e-09
-3.23224e-13
-7.54236e-14
1.14032e-09
-3.45221e-13
-1.25673e-14
1.14146e-09
-3.73507e-13
-8.04801e-14
1.14241e-09
-3.56114e-13
-6.63539e-14
1.14351e-09
-3.11122e-13
-1.0603e-13
1.14455e-09
-2.32103e-13
-1.07986e-13
1.14565e-09
-1.27437e-13
-1.26064e-13
1.14648e-09
-1.31997e-13
1.14701e-09
-3.95805e-11
-1.41e-12
-1.43649e-11
5.95839e-13
5.47596e-11
-1.83447e-13
8.71854e-10
6.28327e-11
6.20464e-11
-6.28321e-11
-6.2044e-11
1.22042e-13
1.12544e-09
-1.59162e-13
1.12882e-09
-6.97036e-14
1.13053e-09
-2.45328e-13
1.13552e-09
-2.51916e-13
1.13865e-09
-3.39498e-13
1.14035e-09
-3.56065e-13
1.14173e-09
-3.82551e-13
1.14276e-09
-3.62301e-13
1.14385e-09
-3.16446e-13
1.14485e-09
-2.35987e-13
1.14596e-09
-1.32704e-13
1.14702e-09
1.14787e-09
-2.02291e-11
-1.96567e-12
2.03704e-12
-1.30611e-11
3.32189e-11
-3.95856e-11
-1.4101e-12
5.95621e-13
-1.43699e-11
5.477e-11
-1.42802e-11
8.47339e-13
-8.0037e-12
2.14365e-11
-4.52642e-11
2.54891e-12
-1.24062e-11
-1.00572e-11
6.51787e-11
-9.01407e-13
-2.31666e-13
7.61634e-10
4.83825e-11
4.27507e-11
-4.82742e-11
-4.24198e-11
5.78875e-11
4.45642e-11
-5.67611e-11
-4.49604e-11
-2.57923e-14
-2.6602e-13
9.73851e-10
4.01584e-11
5.75114e-11
-4.07992e-11
-5.74552e-11
-2.18185e-13
-5.49101e-14
8.7776e-10
6.60886e-11
6.47297e-11
-6.59928e-11
-6.45639e-11
-2.2144e-13
8.71858e-10
6.2851e-11
6.20645e-11
-6.28483e-11
-6.20599e-11
-1.39673e-11
3.10851e-12
-1.08456e-11
2.17044e-11
-7.08729e-11
2.91777e-12
1.87239e-12
-1.40441e-11
-1.27051e-11
9.28319e-11
-8.36282e-13
-2.19095e-13
7.21923e-10
6.16924e-11
5.80161e-11
-6.0948e-11
-5.75628e-11
6.51058e-11
4.48082e-11
-6.47316e-11
-4.53333e-11
2.00549e-12
-1.40415e-12
9.01505e-10
5.51182e-11
4.66516e-11
-5.52455e-11
-4.79717e-11
8.75982e-13
8.74631e-13
1.16262e-09
6.34903e-13
-4.21996e-14
1.18622e-09
3.08851e-13
2.27742e-13
1.13923e-09
6.35586e-14
1.12547e-09
-3.06901e-11
-2.64337e-12
-6.05538e-12
-1.01756e-11
4.95645e-11
-1.91769e-12
-1.16979e-13
7.46755e-10
6.29037e-11
5.85332e-11
-6.19874e-11
-5.79881e-11
5.84785e-11
4.39055e-11
-5.73098e-11
-4.44924e-11
6.99497e-13
-1.50919e-12
8.82075e-10
5.89884e-11
4.70571e-11
-5.89802e-11
-4.81901e-11
-5.53663e-13
1.0321e-12
1.13161e-09
-2.0332e-12
4.12726e-14
1.15652e-09
-8.98065e-13
-2.84167e-13
1.16944e-09
-6.6946e-13
-3.01874e-13
1.15445e-09
-2.9606e-13
-1.88477e-13
1.13692e-09
-2.63547e-13
1.12887e-09
-1.20888e-12
9.7005e-13
7.20389e-10
5.06569e-11
5.68664e-11
-5.08903e-11
-5.63868e-11
4.3337e-11
3.37561e-11
-4.23784e-11
-3.47191e-11
1.7917e-12
-1.82957e-12
8.81562e-10
5.28868e-11
4.53092e-11
-5.30685e-11
-4.63213e-11
4.13262e-13
1.24291e-12
1.13636e-09
-1.05003e-12
-8.27789e-14
1.14626e-09
1.21205e-13
-1.85714e-13
1.15515e-09
6.23216e-13
-5.36485e-13
1.1471e-09
3.84323e-13
-1.41683e-13
1.14439e-09
2.60634e-13
-2.75652e-13
1.14051e-09
1.41741e-13
-1.73346e-13
1.1349e-09
-2.26592e-13
1.13065e-09
9.61254e-13
-1.21272e-12
7.19524e-10
4.33666e-11
3.38997e-11
-4.23835e-11
-3.48496e-11
5.06158e-11
5.68571e-11
-5.08563e-11
-5.63785e-11
9.638e-13
9.5998e-13
1.12284e-09
-1.49349e-12
5.89912e-13
1.13196e-09
-2.18078e-14
-2.60471e-13
1.14417e-09
1.14528e-13
-2.7644e-13
1.13655e-09
-3.22457e-14
-1.14105e-13
1.13469e-09
-4.82143e-13
-1.76227e-13
1.13695e-09
-3.66934e-13
-3.25389e-13
1.13956e-09
-3.46721e-13
-3.69909e-13
1.13975e-09
-1.67672e-13
-4.0815e-13
1.13754e-09
-4.42146e-13
1.13559e-09
-3.06709e-11
-2.65399e-12
-1.0182e-11
-6.04164e-12
4.95485e-11
-1.83076e-12
1.7922e-12
8.80825e-10
5.28887e-11
4.53304e-11
-5.30709e-11
-4.63431e-11
5.87549e-13
-1.49519e-12
1.13181e-09
5.44791e-13
5.50936e-13
1.12707e-09
3.88794e-13
-1.8118e-13
1.12381e-09
2.38747e-14
-6.54717e-15
1.12788e-09
9.53526e-14
-2.71741e-13
1.1325e-09
1.43641e-13
-3.20541e-13
1.13676e-09
1.00647e-13
-3.78756e-13
1.13939e-09
8.05363e-14
-4.38923e-13
1.14008e-09
4.23957e-14
-4.60374e-13
1.13937e-09
-4.87183e-13
1.13875e-09
-1.39669e-11
-1.08481e-11
3.11009e-12
2.1705e-11
-1.15746e-13
-1.9177e-12
7.4655e-10
5.84614e-11
4.3886e-11
-5.72932e-11
-4.44736e-11
6.29071e-11
5.85409e-11
-6.19905e-11
-5.79953e-11
1.24443e-12
4.13657e-13
1.13591e-09
-2.60127e-13
-2.27579e-14
1.14387e-09
-1.828e-13
3.92586e-13
1.124e-09
-2.1657e-13
-2.15933e-13
1.12507e-09
-2.06655e-13
-1.07084e-13
1.13008e-09
-2.41727e-13
-3.07911e-13
1.13408e-09
-3.04105e-13
-3.22178e-13
1.13724e-09
-2.58661e-13
-4.69347e-13
1.13933e-09
-2.30221e-13
-5.0808e-13
1.1403e-09
-1.20969e-13
-5.79959e-13
1.14035e-09
-6.02241e-13
1.14037e-09
-7.08726e-11
1.87065e-12
2.91859e-12
-1.27072e-11
-1.40428e-11
9.28334e-11
-1.5091e-12
6.99611e-13
8.81914e-10
5.89942e-11
4.70644e-11
-5.89857e-11
-4.81975e-11
-8.2464e-14
-1.04948e-12
1.146e-09
-2.77124e-13
1.14048e-13
1.13635e-09
-8.16631e-15
2.37325e-14
1.12785e-09
-1.0881e-13
-2.06659e-13
1.13018e-09
-1.5586e-13
-1.54981e-13
1.13335e-09
-1.60536e-13
-3.71117e-13
1.13592e-09
-1.51555e-13
-3.88768e-13
1.13823e-09
-1.33165e-13
-5.18428e-13
1.13999e-09
-9.82937e-14
-5.55928e-13