/*--------------------------------*- C++ -*----------------------------------*\
| =========                 |                                                 |
| \\      /  F ield         | OpenFOAM: The Open Source CFD Toolbox           |
|  \\    /   O peration     | Version:  2.1.1                                 |
|   \\  /    A nd           | Web:      www.OpenFOAM.org                      |
|    \\/     M anipulation  |                                                 |
\*---------------------------------------------------------------------------*/
FoamFile
{
    version     2.0;
    format      ascii;
    class       volScalarField;
    location    "0.11";
    object      p;
}
// * * * * * * * * * * * * * * * * * * * * * * * * * * * * * * * * * * * * * //

dimensions      [0 2 -2 0 0 0 0];

internalField   nonuniform List<scalar> 
163952
(
0.0416852
0.0411089
0.0363727
0.031178
0.0299813
0.0273699
0.0267799
0.0264562
0.0366928
0.0323507
0.0273092
0.0248195
0.023576
0.022797
0.0224828
0.0223416
0.0337239
0.027987
0.0244834
0.0228438
0.0219312
0.0213934
0.0210548
0.0208745
0.0207891
0.0335936
0.0260948
0.0232605
0.021914
0.0211587
0.02068
0.0203605
0.0201489
0.0200228
0.0199593
0.0335949
0.0255528
0.0227363
0.0214581
0.0207433
0.0202796
0.0199557
0.0197249
0.0195654
0.0194649
0.0194125
0.0337241
0.0260949
0.0227362
0.0213146
0.0205521
0.0200634
0.0197179
0.0194641
0.0192775
0.0191455
0.01906
0.0190145
0.0366925
0.027987
0.0232605
0.0214581
0.0205521
0.0199937
0.0196055
0.0193189
0.0191033
0.0189428
0.0188279
0.0187524
0.018712
0.0323507
0.0244834
0.021914
0.0207433
0.0200634
0.0196055
0.019272
0.0190203
0.0188291
0.0186858
0.0185827
0.0185145
0.0184778
0.0363728
0.0273093
0.0228438
0.0211587
0.0202796
0.0197179
0.0193189
0.0190203
0.0187923
0.0186181
0.018487
0.0183924
0.0183295
0.0182955
0.0311781
0.0248196
0.0219312
0.02068
0.0199557
0.0194641
0.0191033
0.0188291
0.0186181
0.0184561
0.0183339
0.0182454
0.0181864
0.0181545
0.0299813
0.023576
0.0213934
0.0203605
0.0197249
0.0192775
0.0189428
0.0186858
0.018487
0.0183339
0.0182181
0.018134
0.0180779
0.0180474
0.0273699
0.0227971
0.0210548
0.0201489
0.0195654
0.0191455
0.0188279
0.0185827
0.0183924
0.0182454
0.018134
0.0180529
0.0179988
0.0179694
0.0416852
0.0267799
0.0224828
0.0208746
0.0200228
0.0194649
0.01906
0.0187524
0.0185145
0.0183295
0.0181864
0.0180779
0.0179988
0.0179459
0.0179172
0.0411089
0.0264562
0.0223416
0.0207891
0.0199593
0.0194126
0.0190146
0.018712
0.0184778
0.0182955
0.0181545
0.0180474
0.0179694
0.0179172
0.0178888
0.0235112
0.023568
0.0225058
0.0237151
0.0224461
0.0221321
0.0220873
0.0220665
0.0226105
0.0244244
0.0221117
0.0217995
0.021539
0.0213482
0.0212735
0.0212218
0.0233886
0.0221635
0.0217456
0.0213337
0.020993
0.0207144
0.0205297
0.0204337
0.0203842
0.022133
0.0218427
0.0214055
0.0209643
0.0205716
0.0202605
0.0200243
0.0198647
0.0197726
0.0197283
0.0221337
0.0217135
0.0212214
0.0207176
0.0202907
0.0199482
0.0196888
0.0194975
0.0193658
0.0192856
0.019247
0.0233888
0.0218429
0.0212214
0.0206375
0.0201487
0.0197708
0.0194817
0.0192639
0.0191031
0.0189909
0.0189206
0.0188866
0.0226106
0.0221635
0.0214056
0.0207176
0.0201487
0.0197122
0.0193828
0.0191325
0.0189432
0.0188029
0.018704
0.0186411
0.0186106
0.0244244
0.0217456
0.0209643
0.0202907
0.0197708
0.0193828
0.0190901
0.0188669
0.0186974
0.0185712
0.0184816
0.0184243
0.0183963
0.0225058
0.0221117
0.0213338
0.0205717
0.0199482
0.0194817
0.0191325
0.0188669
0.0186633
0.0185078
0.0183915
0.0183087
0.0182554
0.0182294
0.0237151
0.0217995
0.020993
0.0202605
0.0196888
0.0192639
0.0189432
0.0186974
0.0185078
0.0183624
0.0182532
0.0181752
0.0181249
0.0181003
0.0224462
0.021539
0.0207145
0.0200243
0.0194975
0.0191032
0.0188029
0.0185712
0.0183915
0.0182532
0.0181492
0.0180746
0.0180265
0.0180029
0.0221321
0.0213483
0.0205297
0.0198647
0.0193658
0.0189909
0.018704
0.0184816
0.0183087
0.0181752
0.0180746
0.0180025
0.0179558
0.0179329
0.0235112
0.0220873
0.0212735
0.0204337
0.0197726
0.0192856
0.0189206
0.0186411
0.0184243
0.0182554
0.0181249
0.0180265
0.0179558
0.0179101
0.0178877
0.023568
0.0220665
0.0212218
0.0203842
0.0197283
0.0192471
0.0188866
0.0186106
0.0183963
0.0182294
0.0181003
0.0180029
0.0179329
0.0178877
0.0178655
0.0198675
0.0198819
0.0199465
0.0203285
0.020552
0.0204364
0.0203289
0.0202884
0.0199532
0.0207972
0.0203471
0.0202691
0.0201743
0.0201356
0.0201062
0.0200809
0.0201636
0.0203608
0.0202605
0.02014
0.0200034
0.0198589
0.0197677
0.0197127
0.0196823
0.0205107
0.0202938
0.0201688
0.019989
0.0197971
0.0196313
0.0194916
0.0193916
0.0193293
0.0192981
0.0205115
0.0202486
0.0200957
0.0198742
0.0196494
0.0194468
0.0192808
0.0191496
0.019055
0.018995
0.0189655
0.0201637
0.020294
0.0200957
0.0198363
0.0195705
0.0193371
0.0191407
0.0189825
0.0188598
0.0187715
0.0187149
0.0186871
0.0199533
0.0203609
0.0201689
0.0198742
0.0195706
0.0192996
0.0190714
0.0188841
0.0187352
0.0186208
0.0185383
0.0184851
0.0184591
0.0207972
0.0202605
0.019989
0.0196494
0.0193371
0.0190714
0.0188518
0.0186741
0.0185338
0.0184265
0.0183492
0.0182991
0.0182745
0.0199465
0.0203471
0.02014
0.0197971
0.0194469
0.0191407
0.0188841
0.0186741
0.0185052
0.0183723
0.0182709
0.0181977
0.0181502
0.0181268
0.0203285
0.0202691
0.0200034
0.0196313
0.0192808
0.0189825
0.0187352
0.0185338
0.0183723
0.0182454
0.0181485
0.0180784
0.018033
0.0180106
0.020552
0.0201743
0.019859
0.0194916
0.0191496
0.0188599
0.0186208
0.0184265
0.0182709
0.0181485
0.018055
0.0179874
0.0179435
0.0179219
0.0204364
0.0201356
0.0197677
0.0193916
0.019055
0.0187715
0.0185383
0.0183492
0.0181977
0.0180784
0.0179874
0.0179215
0.0178787
0.0178576
0.0198675
0.0203289
0.0201063
0.0197127
0.0193293
0.018995
0.0187149
0.0184851
0.0182991
0.0181502
0.018033
0.0179435
0.0178787
0.0178366
0.0178158
0.0198819
0.0202884
0.0200809
0.0196823
0.0192981
0.0189655
0.0186871
0.0184591
0.0182745
0.0181268
0.0180106
0.0179219
0.0178576
0.0178158
0.0177952
0.0185203
0.0185307
0.0186373
0.0188644
0.0191953
0.019195
0.0191426
0.0191206
0.0186522
0.0190781
0.0191182
0.0191057
0.0190765
0.019078
0.0190768
0.0190733
0.0187931
0.019122
0.0191095
0.0191026
0.0190739
0.0190223
0.0189866
0.0189612
0.018947
0.0192253
0.0191253
0.0191193
0.0190692
0.0190031
0.0189389
0.0188762
0.0188265
0.0187918
0.0187736
0.0192259
0.0191056
0.0191007
0.0190377
0.0189484
0.0188551
0.0187694
0.018695
0.0186379
0.0185998
0.0185805
0.0187931
0.0191255
0.0191006
0.0190264
0.0189178
0.0188017
0.0186915
0.0185946
0.0185143
0.0184539
0.0184139
0.0183939
0.0186522
0.019122
0.0191194
0.0190377
0.0189178
0.0187831
0.0186512
0.0185318
0.0184301
0.0183481
0.0182871
0.0182468
0.0182268
0.0190781
0.0191096
0.0190692
0.0189484
0.0188018
0.0186512
0.0185106
0.0183874
0.0182846
0.018203
0.0181425
0.0181027
0.018083
0.0186374
0.0191182
0.0191026
0.0190031
0.0188551
0.0186915
0.0185318
0.0183874
0.0182633
0.0181612
0.0180808
0.0180214
0.0179824
0.0179631
0.0188644
0.0191058
0.0190739
0.018939
0.0187694
0.0185946
0.0184301
0.0182846
0.0181612
0.0180603
0.0179813
0.0179231
0.0178849
0.017866
0.0191954
0.0190766
0.0190223
0.0188762
0.018695
0.0185143
0.0183481
0.018203
0.0180808
0.0179813
0.0179035
0.0178464
0.0178089
0.0177904
0.019195
0.019078
0.0189866
0.0188265
0.018638
0.0184539
0.0182871
0.0181425
0.0180214
0.0179231
0.0178464
0.0177901
0.0177532
0.0177349
0.0185203
0.0191426
0.0190768
0.0189613
0.0187919
0.0185998
0.0184139
0.0182468
0.0181027
0.0179824
0.0178849
0.0178089
0.0177532
0.0177166
0.0176985
0.0185307
0.0191206
0.0190733
0.018947
0.0187736
0.0185805
0.0183939
0.0182268
0.018083
0.0179631
0.017866
0.0177904
0.0177349
0.0176985
0.0176804
0.0178023
0.0178105
0.0178632
0.0180118
0.0182283
0.0182718
0.0182622
0.0182607
0.0178881
0.0181205
0.0182284
0.0182475
0.0182531
0.0182655
0.0182737
0.0182783
0.0179779
0.0182297
0.018256
0.0182892
0.0183077
0.0183072
0.0183043
0.0182983
0.018294
0.0182622
0.0182517
0.0182957
0.0183091
0.0183094
0.0183019
0.0182867
0.0182707
0.018257
0.0182491
0.0182625
0.0182464
0.0183025
0.0183181
0.0183057
0.0182807
0.0182493
0.0182166
0.0181888
0.0181689
0.0181583
0.0179779
0.0182518
0.0183025
0.0183207
0.0183028
0.0182638
0.0182162
0.0181675
0.0181231
0.0180874
0.0180629
0.0180503
0.0178881
0.0182298
0.0182957
0.0183181
0.0183028
0.0182577
0.0181976
0.0181338
0.0180739
0.0180223
0.0179822
0.0179549
0.0179411
0.0181205
0.018256
0.0183091
0.0183057
0.0182638
0.0181976
0.0181221
0.0180478
0.0179811
0.0179253
0.0178826
0.0178539
0.0178394
0.0178632
0.0182284
0.0182892
0.0183094
0.0182807
0.0182162
0.0181339
0.0180478
0.017967
0.0178963
0.0178382
0.0177942
0.0177647
0.01775
0.0180119
0.0182475
0.0183077
0.018302
0.0182493
0.0181676
0.018074
0.0179811
0.0178963
0.0178233
0.0177641
0.0177195
0.0176897
0.0176748
0.0182283
0.0182531
0.0183073
0.0182867
0.0182166
0.0181231
0.0180224
0.0179254
0.0178382
0.0177641
0.0177043
0.0176594
0.0176296
0.0176146
0.0182719
0.0182655
0.0183043
0.0182707
0.0181888
0.0180874
0.0179822
0.0178826
0.0177942
0.0177195
0.0176594
0.0176145
0.0175846
0.0175697
0.0178023
0.0182623
0.0182738
0.0182983
0.018257
0.0181689
0.0180629
0.0179549
0.0178539
0.0177647
0.0176897
0.0176296
0.0175846
0.0175548
0.0175399
0.0178105
0.0182607
0.0182783
0.018294
0.0182491
0.0181584
0.0180503
0.0179411
0.0178394
0.01775
0.0176748
0.0176146
0.0175697
0.0175399
0.017525
0.0172921
0.0172989
0.0173112
0.0174041
0.0175293
0.0175797
0.0175849
0.017591
0.0173333
0.0174773
0.0175593
0.0175903
0.0176117
0.0176311
0.0176418
0.0176478
0.0173882
0.0175596
0.0176011
0.0176453
0.0176793
0.0177001
0.017714
0.0177198
0.0177217
0.0175601
0.0175869
0.0176451
0.0176838
0.017713
0.0177329
0.0177432
0.0177476
0.0177479
0.0177473
0.0175603
0.0175911
0.0176618
0.0177079
0.0177336
0.0177466
0.017749
0.0177445
0.0177378
0.0177316
0.0177279
0.0173882
0.017587
0.0176618
0.0177164
0.0177442
0.0177516
0.0177459
0.0177323
0.0177155
0.0176999
0.0176882
0.0176819
0.0173333
0.0175596
0.0176452
0.0177079
0.0177442
0.0177531
0.0177424
0.0177207
0.0176943
0.0176683
0.0176463
0.0176306
0.0176225
0.0174773
0.0176012
0.0176838
0.0177336
0.0177516
0.0177425
0.0177162
0.0176818
0.0176461
0.0176136
0.0175872
0.0175689
0.0175595
0.0173113
0.0175593
0.0176453
0.017713
0.0177466
0.0177459
0.0177207
0.0176818
0.0176383
0.017596
0.017559
0.0175298
0.0175097
0.0174994
0.0174041
0.0175903
0.0176793
0.0177329
0.017749
0.0177323
0.0176943
0.0176461
0.017596
0.0175493
0.0175094
0.0174782
0.017457
0.0174462
0.0175293
0.0176117
0.0177001
0.0177432
0.0177445
0.0177155
0.0176683
0.0176136
0.017559
0.0175094
0.0174675
0.0174352
0.0174132
0.0174021
0.0175797
0.0176312
0.017714
0.0177476
0.0177378
0.0176999
0.0176463
0.0175872
0.0175298
0.0174782
0.0174352
0.0174021
0.0173796
0.0173684
0.0172921
0.0175849
0.0176418
0.0177198
0.017748
0.0177316
0.0176882
0.0176306
0.0175689
0.0175097
0.017457
0.0174132
0.0173796
0.017357
0.0173456
0.0172989
0.017591
0.0176478
0.0177217
0.0177473
0.0177279
0.0176819
0.0176225
0.0175595
0.0174994
0.0174462
0.0174021
0.0173684
0.0173456
0.0173341
0.0168587
0.0168663
0.0168588
0.0169186
0.0169856
0.0170317
0.0170408
0.0170487
0.0168767
0.0169779
0.0170252
0.0170566
0.0170818
0.0171048
0.017117
0.0171237
0.016911
0.0170251
0.0170687
0.0171129
0.0171494
0.0171763
0.0171971
0.0172089
0.0172143
0.0170121
0.0170507
0.0171093
0.0171551
0.0171945
0.017226
0.0172487
0.0172641
0.0172727
0.0172765
0.0170123
0.0170583
0.0171277
0.0171829
0.0172251
0.0172574
0.0172793
0.0172924
0.0172997
0.0173031
0.0173043
0.016911
0.0170507
0.0171277
0.0171929
0.0172414
0.0172746
0.017295
0.017305
0.017308
0.0173075
0.0173057
0.0173044
0.0168767
0.0170251
0.0171093
0.0171829
0.0172415
0.0172803
0.0173014
0.0173091
0.0173078
0.0173018
0.0172946
0.0172886
0.0172852
0.0169779
0.0170687
0.0171552
0.0172251
0.0172746
0.0173014
0.0173098
0.0173059
0.017295
0.0172818
0.0172695
0.0172603
0.0172553
0.0168588
0.0170252
0.0171129
0.0171945
0.0172574
0.017295
0.0173091
0.0173059
0.0172923
0.017274
0.0172554
0.0172393
0.0172277
0.0172217
0.0169187
0.0170566
0.0171494
0.0172261
0.0172793
0.017305
0.0173078
0.0172951
0.017274
0.0172503
0.0172277
0.017209
0.0171957
0.0171889
0.0169856
0.0170819
0.0171763
0.0172487
0.0172924
0.017308
0.0173018
0.0172818
0.0172554
0.0172277
0.0172024
0.0171818
0.0171674
0.01716
0.0170317
0.0171048
0.0171972
0.0172641
0.0172997
0.0173075
0.0172946
0.0172695
0.0172393
0.017209
0.0171818
0.01716
0.0171449
0.0171371
0.0168587
0.0170409
0.017117
0.0172089
0.0172727
0.0173031
0.0173057
0.0172886
0.0172603
0.0172277
0.0171957
0.0171674
0.0171449
0.0171292
0.0171213
0.0168663
0.0170487
0.0171238
0.0172143
0.0172765
0.0173043
0.0173044
0.0172852
0.0172553
0.0172217
0.0171889
0.01716
0.0171371
0.0171213
0.0171132
0.0164687
0.0164767
0.0164653
0.0165047
0.0165367
0.0165751
0.016585
0.0165927
0.0164786
0.0165558
0.0165772
0.0166049
0.0166285
0.0166513
0.0166639
0.016671
0.0165015
0.016577
0.0166172
0.0166575
0.0166918
0.0167187
0.0167409
0.0167548
0.0167617
0.0165589
0.0165985
0.0166525
0.0166979
0.0167387
0.0167737
0.016801
0.0168216
0.0168343
0.0168405
0.016559
0.0166063
0.0166695
0.0167247
0.0167721
0.0168125
0.0168441
0.0168671
0.0168828
0.0168922
0.0168966
0.0165015
0.0165986
0.0166694
0.0167344
0.01679
0.0168355
0.0168705
0.0168951
0.0169111
0.0169208
0.0169262
0.0169285
0.0164786
0.0165771
0.0166525
0.0167247
0.01679
0.0168433
0.0168828
0.0169093
0.0169254
0.0169339
0.0169379
0.0169393
0.0169397
0.0165558
0.0166172
0.0166979
0.0167721
0.0168355
0.0168828
0.0169136
0.016931
0.0169388
0.0169407
0.0169397
0.0169379
0.0169366
0.0164653
0.0165773
0.0166575
0.0167387
0.0168125
0.0168705
0.0169093
0.016931
0.0169399
0.0169407
0.016937
0.0169321
0.0169277
0.0169253
0.0165047
0.0166049
0.0166918
0.0167737
0.0168441
0.0168951
0.0169254
0.0169388
0.0169407
0.0169357
0.0169279
0.0169199
0.0169137
0.0169103
0.0165367
0.0166286
0.0167187
0.0168011
0.0168671
0.0169111
0.0169339
0.0169407
0.016937
0.0169279
0.016917
0.0169068
0.0168992
0.0168952
0.0165751
0.0166513
0.0167409
0.0168216
0.0168828
0.0169208
0.0169379
0.0169397
0.0169321
0.0169199
0.0169068
0.0168952
0.0168866
0.0168821
0.0164686
0.016585
0.0166639
0.0167548
0.0168344
0.0168923
0.0169262
0.0169393
0.0169379
0.0169277
0.0169137
0.0168992
0.0168866
0.0168775
0.0168727
0.0164767
0.0165927
0.016671
0.0167617
0.0168405
0.0168966
0.0169285
0.0169397
0.0169366
0.0169253
0.0169103
0.0168952
0.0168821
0.0168727
0.0168678
0.0161133
0.0161209
0.0161119
0.0161384
0.0161498
0.0161807
0.0161897
0.0161965
0.0161216
0.0161832
0.0161875
0.0162108
0.0162313
0.0162519
0.0162636
0.0162704
0.0161382
0.0161874
0.0162226
0.0162579
0.0162885
0.016313
0.016334
0.0163478
0.0163549
0.0161685
0.0162051
0.0162526
0.0162944
0.0163329
0.016367
0.016395
0.0164169
0.0164312
0.0164383
0.0161686
0.0162121
0.0162675
0.0163186
0.0163654
0.0164074
0.0164426
0.0164701
0.0164902
0.0165029
0.0165091
0.0161382
0.0162051
0.0162675
0.0163274
0.0163829
0.0164324
0.0164739
0.0165063
0.01653
0.0165463
0.0165563
0.016561
0.0161216
0.0161874
0.0162527
0.0163186
0.0163829
0.0164409
0.0164893
0.0165266
0.0165536
0.0165719
0.0165837
0.0165905
0.0165937
0.0161832
0.0162226
0.0162944
0.0163654
0.0164324
0.0164893
0.0165331
0.0165643
0.016585
0.0165978
0.0166053
0.0166092
0.0166109
0.0161119
0.0161876
0.0162579
0.0163329
0.0164074
0.0164739
0.0165266
0.0165643
0.0165889
0.0166036
0.0166116
0.0166154
0.0166169
0.0166174
0.0161384
0.0162108
0.0162885
0.016367
0.0164427
0.0165064
0.0165536
0.016585
0.0166036
0.0166133
0.0166172
0.0166181
0.0166177
0.0166172
0.0161499
0.0162313
0.016313
0.016395
0.0164701
0.0165301
0.016572
0.0165978
0.0166116
0.0166172
0.0166181
0.0166167
0.0166149
0.0166137
0.0161807
0.0162519
0.0163341
0.0164169
0.0164902
0.0165463
0.0165837
0.0166053
0.0166154
0.0166181
0.0166167
0.0166137
0.0166109
0.0166093
0.0161132
0.0161898
0.0162637
0.0163479
0.0164312
0.016503
0.0165563
0.0165905
0.0166092
0.0166169
0.0166177
0.0166149
0.0166109
0.0166074
0.0166055
0.0161208
0.0161965
0.0162704
0.0163549
0.0164383
0.0165092
0.016561
0.0165937
0.0166109
0.0166174
0.0166172
0.0166137
0.0166093
0.0166055
0.0166033
0.0157872
0.0157938
0.0157881
0.0158064
0.0158053
0.0158299
0.0158376
0.0158432
0.0157955
0.0158459
0.0158388
0.0158582
0.0158755
0.0158933
0.0159035
0.0159096
0.0158085
0.0158389
0.0158691
0.0158995
0.015926
0.0159475
0.0159663
0.0159789
0.0159855
0.0158215
0.0158537
0.0158947
0.0159316
0.0159662
0.0159975
0.0160238
0.016045
0.0160592
0.0160665
0.0158215
0.0158598
0.0159075
0.015953
0.0159961
0.0160363
0.0160713
0.0160998
0.0161214
0.0161355
0.0161426
0.0158085
0.0158537
0.0159075
0.0159607
0.0160123
0.0160608
0.0161039
0.0161394
0.0161669
0.0161867
0.0161993
0.0162054
0.0157956
0.015839
0.0158947
0.015953
0.0160123
0.0160693
0.0161203
0.0161627
0.0161957
0.0162199
0.0162367
0.0162471
0.016252
0.0158459
0.0158691
0.0159317
0.0159961
0.0160609
0.0161203
0.0161703
0.0162094
0.0162382
0.0162584
0.0162718
0.0162799
0.0162837
0.0157881
0.0158389
0.0158995
0.0159662
0.0160363
0.0161039
0.0161627
0.0162094
0.016244
0.0162683
0.0162846
0.0162949
0.0163008
0.0163036
0.0158065
0.0158582
0.015926
0.0159976
0.0160714
0.0161394
0.0161957
0.0162382
0.0162683
0.0162885
0.0163013
0.016309
0.0163132
0.016315
0.0158053
0.0158756
0.0159475
0.0160239
0.0160998
0.0161669
0.0162199
0.0162584
0.0162846
0.0163013
0.0163113
0.0163169
0.0163198
0.016321
0.0158299
0.0158933
0.0159663
0.016045
0.0161214
0.0161867
0.0162367
0.0162718
0.0162949
0.016309
0.0163169
0.016321
0.0163229
0.0163236
0.0157871
0.0158377
0.0159036
0.0159789
0.0160593
0.0161356
0.0161993
0.0162471
0.0162799
0.0163009
0.0163132
0.0163198
0.0163229
0.0163241
0.0163245
0.0157937
0.0158433
0.0159096
0.0159856
0.0160665
0.0161426
0.0162055
0.016252
0.0162837
0.0163036
0.016315
0.016321
0.0163236
0.0163245
0.0163247
0.0154847
0.0154902
0.0154873
0.0155008
0.0154908
0.0155106
0.0155169
0.0155215
0.0154932
0.0155351
0.0155202
0.0155362
0.0155508
0.0155657
0.0155743
0.0155794
0.0155039
0.0155207
0.0155463
0.0155721
0.0155947
0.0156131
0.0156292
0.0156402
0.0156461
0.0155053
0.0155332
0.0155682
0.0156001
0.0156302
0.0156579
0.0156815
0.0157007
0.0157139
0.0157207
0.0155053
0.0155385
0.0155792
0.0156186
0.0156569
0.0156933
0.0157261
0.0157534
0.0157746
0.0157888
0.015796
0.0155039
0.0155332
0.0155792
0.0156253
0.0156713
0.0157163
0.0157577
0.0157931
0.0158215
0.0158426
0.0158564
0.0158633
0.0154932
0.0155207
0.0155682
0.0156186
0.0156713
0.0157243
0.0157739
0.0158172
0.0158525
0.0158797
0.0158992
0.0159116
0.0159177
0.0155352
0.0155463
0.0156001
0.0156569
0.0157163
0.0157739
0.0158252
0.0158677
0.0159009
0.0159256
0.0159428
0.0159536
0.0159587
0.0154873
0.0155202
0.0155722
0.0156302
0.0156934
0.0157577
0.0158172
0.0158677
0.0159078
0.0159381
0.0159599
0.0159746
0.0159837
0.0159881
0.0155008
0.0155363
0.0155947
0.0156579
0.0157261
0.0157932
0.0158525
0.0159009
0.0159381
0.0159653
0.0159843
0.0159969
0.0160046
0.0160082
0.0154908
0.0155508
0.0156131
0.0156815
0.0157535
0.0158216
0.0158797
0.0159256
0.0159599
0.0159843
0.016001
0.0160119
0.0160183
0.0160213
0.0155106
0.0155657
0.0156293
0.0157008
0.0157747
0.0158426
0.0158992
0.0159428
0.0159746
0.0159969
0.0160119
0.0160214
0.016027
0.0160295
0.0154846
0.015517
0.0155743
0.0156403
0.015714
0.0157889
0.0158564
0.0159116
0.0159536
0.0159837
0.0160046
0.0160183
0.016027
0.016032
0.0160342
0.0154901
0.0155215
0.0155795
0.0156462
0.0157208
0.015796
0.0158633
0.0159177
0.0159588
0.0159881
0.0160082
0.0160213
0.0160295
0.0160342
0.0160363
0.0152006
0.0152052
0.0152044
0.015215
0.0151986
0.0152146
0.0152196
0.0152234
0.0152093
0.0152449
0.0152243
0.0152377
0.0152497
0.015262
0.0152689
0.0152733
0.0152186
0.0152253
0.0152469
0.0152687
0.0152876
0.015303
0.0153165
0.0153257
0.0153307
0.015212
0.0152361
0.0152658
0.0152929
0.0153185
0.0153422
0.0153626
0.0153794
0.015391
0.0153971
0.015212
0.0152407
0.0152753
0.0153088
0.0153418
0.0153737
0.0154029
0.0154278
0.0154475
0.0154608
0.0154676
0.0152186
0.0152361
0.0152752
0.0153146
0.0153544
0.0153944
0.0154321
0.0154655
0.0154929
0.0155137
0.0155276
0.0155345
0.0152094
0.0152253
0.0152658
0.0153088
0.0153544
0.0154016
0.0154474
0.0154888
0.0155239
0.0155517
0.0155722
0.0155856
0.0155922
0.0152449
0.015247
0.0152929
0.0153418
0.0153944
0.0154474
0.0154967
0.0155394
0.0155742
0.0156009
0.0156201
0.0156325
0.0156385
0.0152044
0.0152244
0.0152688
0.0153186
0.0153737
0.0154322
0.0154889
0.0155394
0.0155816
0.0156148
0.0156398
0.0156574
0.0156685
0.0156739
0.0152151
0.0152377
0.0152877
0.0153422
0.015403
0.0154655
0.0155239
0.0155742
0.0156148
0.0156461
0.0156691
0.0156851
0.0156951
0.0156999
0.0151986
0.0152497
0.015303
0.0153626
0.0154279
0.0154929
0.0155517
0.0156009
0.0156398
0.0156691
0.0156904
0.0157049
0.015714
0.0157183
0.0152147
0.015262
0.0153165
0.0153794
0.0154475
0.0155138
0.0155722
0.0156201
0.0156574
0.0156851
0.0157049
0.0157184
0.0157267
0.0157307
0.0152005
0.0152196
0.015269
0.0153257
0.0153911
0.0154609
0.0155276
0.0155856
0.0156325
0.0156685
0.0156951
0.015714
0.0157267
0.0157345
0.0157382
0.0152051
0.0152235
0.0152733
0.0153308
0.0153971
0.0154677
0.0155346
0.0155922
0.0156385
0.0156739
0.0156999
0.0157183
0.0157307
0.0157382
0.0157418
0.0149308
0.0149347
0.0149355
0.0149449
0.0149234
0.0149366
0.0149402
0.0149434
0.01494
0.0149707
0.0149462
0.0149573
0.0149671
0.014977
0.0149824
0.014986
0.0149484
0.0149478
0.014966
0.0149842
0.0149998
0.0150122
0.015023
0.0150304
0.0150345
0.0149365
0.0149572
0.0149823
0.0150049
0.0150262
0.0150458
0.0150628
0.0150768
0.0150866
0.0150918
0.0149365
0.0149613
0.0149905
0.0150186
0.0150461
0.0150731
0.0150982
0.0151198
0.0151372
0.0151491
0.0151552
0.0149485
0.0149573
0.0149905
0.0150235
0.015057
0.0150911
0.0151242
0.0151542
0.0151793
0.0151987
0.0152119
0.0152185
0.0149401
0.0149478
0.0149823
0.0150186
0.015057
0.0150975
0.015138
0.0151758
0.0152088
0.0152356
0.0152558
0.0152692
0.0152759
0.0149708
0.014966
0.015005
0.0150462
0.0150912
0.015138
0.0151832
0.0152238
0.015258
0.015285
0.0153049
0.0153178
0.0153242
0.0149355
0.0149463
0.0149842
0.0150263
0.0150731
0.0151242
0.0151758
0.0152238
0.0152654
0.0152994
0.0153257
0.0153447
0.015357
0.015363
0.0149449
0.0149574
0.0149998
0.0150459
0.0150982
0.0151542
0.0152088
0.015258
0.0152994
0.0153325
0.0153577
0.0153756
0.0153871
0.0153927
0.0149235
0.0149672
0.0150122
0.0150628
0.0151199
0.0151793
0.0152357
0.015285
0.0153257
0.0153577
0.0153816
0.0153986
0.0154093
0.0154146
0.0149366
0.0149771
0.0150231
0.0150769
0.0151372
0.0151988
0.0152558
0.0153049
0.0153447
0.0153756
0.0153986
0.0154147
0.0154249
0.0154298
0.0149307
0.0149402
0.0149824
0.0150305
0.0150867
0.0151491
0.0152119
0.0152692
0.0153179
0.015357
0.0153871
0.0154093
0.0154249
0.0154347
0.0154395
0.0149347
0.0149435
0.0149861
0.0150346
0.0150918
0.0151553
0.0152185
0.0152759
0.0153243
0.015363
0.0153927
0.0154146
0.0154298
0.0154395
0.0154441
0.0146719
0.0146755
0.0146777
0.0146862
0.0146619
0.0146727
0.0146748
0.0146776
0.0146822
0.0147095
0.0146825
0.0146916
0.0146992
0.0147069
0.0147106
0.0147136
0.0146903
0.0146848
0.0146999
0.0147148
0.0147272
0.0147367
0.0147449
0.0147503
0.0147536
0.0146754
0.0146932
0.0147141
0.0147324
0.0147494
0.014765
0.0147783
0.0147894
0.0147971
0.0148013
0.0146754
0.0146968
0.0147212
0.0147439
0.0147661
0.0147878
0.0148083
0.0148263
0.0148409
0.014851
0.0148563
0.0146904
0.0146933
0.0147212
0.0147481
0.0147751
0.0148031
0.0148308
0.0148565
0.0148785
0.0148958
0.0149077
0.0149138
0.0146823
0.0146848
0.0147142
0.014744
0.0147752
0.0148085
0.0148428
0.0148759
0.0149056
0.0149303
0.0149492
0.014962
0.0149684
0.0147096
0.0147
0.0147325
0.0147661
0.0148031
0.0148428
0.0148826
0.0149195
0.0149516
0.0149776
0.0149971
0.01501
0.0150164
0.0146778
0.0146826
0.0147149
0.0147495
0.0147879
0.0148308
0.0148759
0.0149195
0.0149587
0.0149918
0.015018
0.0150374
0.0150501
0.0150564
0.0146863
0.0146917
0.0147273
0.014765
0.0148084
0.0148565
0.0149056
0.0149516
0.0149918
0.015025
0.0150509
0.0150698
0.015082
0.015088
0.014662
0.0146993
0.0147368
0.0147783
0.0148264
0.0148785
0.0149303
0.0149776
0.015018
0.0150509
0.0150762
0.0150945
0.0151063
0.015112
0.0146728
0.014707
0.014745
0.0147894
0.0148409
0.0148959
0.0149492
0.0149971
0.0150374
0.0150698
0.0150945
0.0151122
0.0151236
0.0151292
0.0146719
0.0146749
0.0147107
0.0147504
0.0147972
0.0148511
0.0149078
0.014962
0.01501
0.0150501
0.015082
0.0151063
0.0151236
0.0151347
0.0151402
0.0146755
0.0146777
0.0147137
0.0147537
0.0148014
0.0148563
0.0149138
0.0149684
0.0150165
0.0150564
0.0150881
0.015112
0.0151292
0.0151402
0.0151455
0.0144215
0.014425
0.014429
0.014437
0.0144122
0.0144206
0.0144208
0.0144235
0.0144336
0.0144588
0.0144309
0.0144379
0.0144432
0.0144486
0.0144506
0.014453
0.014442
0.0144339
0.0144461
0.0144578
0.0144669
0.0144733
0.0144786
0.014482
0.0144844
0.0144271
0.0144416
0.0144584
0.0144724
0.0144849
0.0144962
0.0145056
0.0145135
0.0145192
0.0145223
0.0144272
0.0144447
0.0144644
0.0144817
0.0144982
0.0145145
0.0145302
0.0145441
0.0145556
0.0145637
0.014568
0.014442
0.0144416
0.0144644
0.014485
0.0145054
0.0145269
0.0145488
0.0145697
0.0145881
0.0146029
0.0146132
0.0146185
0.0144337
0.0144339
0.0144585
0.0144817
0.0145054
0.0145313
0.0145589
0.0145865
0.0146121
0.014634
0.0146511
0.0146628
0.0146688
0.0144589
0.0144462
0.0144725
0.0144982
0.0145269
0.0145589
0.0145923
0.0146247
0.0146537
0.0146778
0.0146963
0.0147087
0.0147149
0.0144291
0.014431
0.0144579
0.014485
0.0145146
0.0145488
0.0145865
0.0146247
0.0146603
0.0146914
0.0147167
0.0147357
0.0147483
0.0147546
0.0144371
0.0144381
0.014467
0.0144962
0.0145302
0.0145697
0.0146121
0.0146537
0.0146914
0.0147235
0.0147492
0.0147682
0.0147807
0.0147869
0.0144123
0.0144433
0.0144734
0.0145057
0.0145442
0.0145881
0.014634
0.0146778
0.0147167
0.0147492
0.0147748
0.0147936
0.0148059
0.014812
0.0144208
0.0144487
0.0144787
0.0145136
0.0145556
0.0146029
0.0146512
0.0146963
0.0147357
0.0147682
0.0147936
0.0148122
0.0148243
0.0148302
0.0144216
0.0144209
0.0144507
0.0144821
0.0145192
0.0145638
0.0146132
0.0146629
0.0147087
0.0147483
0.0147807
0.0148059
0.0148243
0.0148362
0.0148421
0.0144251
0.0144236
0.0144531
0.0144845
0.0145224
0.0145681
0.0146185
0.0146688
0.0147149
0.0147546
0.0147869
0.014812
0.0148302
0.0148421
0.0148479
0.0141771
0.0141808
0.0141874
0.0141957
0.0141732
0.0141787
0.0141763
0.0141792
0.0141922
0.014217
0.0141899
0.0141947
0.014197
0.0141994
0.0141995
0.0142016
0.0142014
0.0141936
0.0142028
0.0142108
0.0142163
0.014219
0.014221
0.0142222
0.0142236
0.0141922
0.0142003
0.0142129
0.014222
0.0142295
0.0142361
0.0142414
0.0142459
0.0142492
0.0142513
0.0141922
0.0142028
0.0142173
0.0142288
0.0142391
0.0142496
0.0142601
0.0142698
0.0142781
0.0142841
0.0142875
0.0142014
0.0142003
0.0142173
0.0142311
0.0142443
0.0142589
0.0142747
0.0142906
0.0143052
0.0143173
0.0143259
0.0143304
0.0141923
0.0141937
0.0142129
0.0142288
0.0142444
0.0142622
0.0142828
0.0143047
0.0143259
0.0143448
0.0143599
0.0143703
0.0143757
0.0142171
0.0142029
0.0142221
0.0142392
0.0142589
0.0142828
0.0143096
0.014337
0.0143625
0.0143844
0.0144015
0.0144132
0.0144191
0.0141876
0.0141901
0.0142109
0.0142296
0.0142497
0.0142748
0.0143047
0.014337
0.0143687
0.0143972
0.014421
0.0144392
0.0144514
0.0144576
0.0141959
0.0141949
0.0142164
0.0142361
0.0142602
0.0142907
0.014326
0.0143626
0.0143972
0.0144275
0.0144524
0.0144711
0.0144836
0.0144898
0.0141735
0.0141972
0.0142191
0.0142415
0.0142699
0.0143053
0.0143448
0.0143844
0.014421
0.0144524
0.0144777
0.0144966
0.0145091
0.0145153
0.0141788
0.0141996
0.0142211
0.0142459
0.0142781
0.0143174
0.0143599
0.0144015
0.0144392
0.0144711
0.0144966
0.0145155
0.0145279
0.0145341
0.0141772
0.0141764
0.0141996
0.0142223
0.0142492
0.0142842
0.014326
0.0143704
0.0144132
0.0144514
0.0144836
0.0145091
0.0145279
0.0145403
0.0145464
0.014181
0.0141794
0.0142017
0.0142238
0.0142514
0.0142875
0.0143305
0.0143758
0.0144191
0.0144576
0.0144898
0.0145153
0.0145341
0.0145464
0.0145525
0.0139347
0.0139391
0.0139499
0.0139606
0.0139464
0.0139461
0.0139397
0.0139437
0.0139551
0.0139828
0.0139595
0.0139608
0.0139586
0.0139568
0.0139542
0.0139563
0.0139665
0.0139637
0.0139686
0.0139712
0.013972
0.01397
0.013968
0.0139666
0.0139673
0.013981
0.0139673
0.0139747
0.0139778
0.0139792
0.0139804
0.0139811
0.013982
0.013983
0.0139842
0.0139811
0.0139686
0.0139761
0.013981
0.0139844
0.0139887
0.0139939
0.0139993
0.0140045
0.0140086
0.0140111
0.0139666
0.0139674
0.0139761
0.0139821
0.0139873
0.0139947
0.0140045
0.0140157
0.0140267
0.0140362
0.0140432
0.014047
0.0139552
0.0139638
0.0139748
0.0139811
0.0139873
0.013997
0.0140107
0.0140271
0.0140443
0.0140602
0.0140734
0.0140827
0.0140876
0.0139829
0.0139687
0.0139778
0.0139845
0.0139947
0.0140107
0.0140313
0.014054
0.0140762
0.0140959
0.0141116
0.0141225
0.014128
0.0139501
0.0139597
0.0139714
0.0139793
0.0139887
0.0140046
0.0140272
0.014054
0.0140818
0.0141078
0.01413
0.0141474
0.0141592
0.0141651
0.0139609
0.013961
0.0139721
0.0139805
0.0139939
0.0140157
0.0140443
0.0140762
0.0141078
0.0141363
0.0141601
0.0141784
0.0141907
0.0141969
0.0139471
0.0139589
0.0139702
0.0139812
0.0139994
0.0140267
0.0140603
0.0140959
0.01413
0.0141602
0.0141849
0.0142036
0.0142161
0.0142224
0.0139462
0.013957
0.0139681
0.0139821
0.0140046
0.0140363
0.0140734
0.0141116
0.0141474
0.0141784
0.0142036
0.0142226
0.0142351
0.0142414
0.0139348
0.0139398
0.0139544
0.0139667
0.0139831
0.0140087
0.0140433
0.0140827
0.0141225
0.0141592
0.0141907
0.0142161
0.0142351
0.0142477
0.014254
0.0139394
0.0139439
0.0139564
0.0139674
0.0139843
0.0140112
0.0140471
0.0140876
0.0141281
0.0141652
0.0141969
0.0142224
0.0142414
0.014254
0.0142602
0.0136864
0.0136931
0.0137095
0.0137292
0.0137387
0.0137218
0.0137082
0.0137153
0.0137157
0.0137569
0.0137398
0.0137348
0.0137251
0.0137164
0.0137101
0.0137126
0.0137352
0.013744
0.0137409
0.0137345
0.0137283
0.0137201
0.0137137
0.0137095
0.0137097
0.0138202
0.0137449
0.0137387
0.0137336
0.0137277
0.0137228
0.0137187
0.0137163
0.0137153
0.0137159
0.0138202
0.0137484
0.0137368
0.0137321
0.0137278
0.0137258
0.0137261
0.0137279
0.0137307
0.0137333
0.0137352
0.0137353
0.013745
0.0137368
0.0137315
0.0137282
0.0137289