/*--------------------------------*- C++ -*----------------------------------*\
| =========                 |                                                 |
| \\      /  F ield         | OpenFOAM: The Open Source CFD Toolbox           |
|  \\    /   O peration     | Version:  2.1.1                                 |
|   \\  /    A nd           | Web:      www.OpenFOAM.org                      |
|    \\/     M anipulation  |                                                 |
\*---------------------------------------------------------------------------*/
FoamFile
{
    version     2.0;
    format      ascii;
    class       volScalarField;
    location    "0.015";
    object      p;
}
// * * * * * * * * * * * * * * * * * * * * * * * * * * * * * * * * * * * * * //

dimensions      [0 2 -2 0 0 0 0];

internalField   nonuniform List<scalar> 
163952
(
0.0433908
0.0428145
0.0380783
0.0328836
0.0316869
0.0290755
0.0284855
0.0281619
0.0383984
0.0340563
0.0290148
0.0265252
0.0252817
0.0245028
0.0241886
0.0240474
0.0354295
0.0296927
0.0261891
0.0245495
0.0236371
0.0230994
0.0227608
0.0225806
0.0224951
0.0352992
0.0278005
0.0249663
0.0236199
0.0228647
0.0223861
0.0220667
0.0218552
0.0217291
0.0216657
0.0353005
0.0272585
0.0244421
0.023164
0.0224494
0.0219858
0.0216621
0.0214314
0.0212721
0.0211716
0.0211193
0.0354297
0.0278006
0.024442
0.0230205
0.0222582
0.0217697
0.0214245
0.0211708
0.0209844
0.0208525
0.020767
0.0207217
0.0383981
0.0296926
0.0249662
0.023164
0.0222582
0.0217001
0.0213121
0.0210257
0.0208103
0.02065
0.0205352
0.0204598
0.0204195
0.0340564
0.0261891
0.0236199
0.0224494
0.0217697
0.0213121
0.0209789
0.0207274
0.0205364
0.0203933
0.0202904
0.0202223
0.0201856
0.0380784
0.0290149
0.0245495
0.0228647
0.0219858
0.0214245
0.0210257
0.0207274
0.0204997
0.0203257
0.0201949
0.0201004
0.0200376
0.0200037
0.0328837
0.0265252
0.0236371
0.0223861
0.0216621
0.0211708
0.0208103
0.0205364
0.0203257
0.020164
0.020042
0.0199537
0.0198948
0.0198629
0.0316869
0.0252817
0.0230994
0.0220667
0.0214314
0.0209844
0.02065
0.0203933
0.0201949
0.020042
0.0199264
0.0198425
0.0197865
0.0197561
0.0290755
0.0245028
0.0227608
0.0218552
0.0212721
0.0208525
0.0205352
0.0202904
0.0201004
0.0199537
0.0198425
0.0197616
0.0197076
0.0196783
0.0433908
0.0284855
0.0241886
0.0225806
0.0217291
0.0211716
0.020767
0.0204599
0.0202223
0.0200376
0.0198948
0.0197865
0.0197076
0.0196549
0.0196262
0.0428145
0.0281619
0.0240474
0.0224952
0.0216657
0.0211193
0.0207217
0.0204195
0.0201856
0.0200037
0.0198629
0.0197561
0.0196783
0.0196262
0.0195979
0.0252168
0.0252736
0.0242114
0.0254207
0.0241517
0.0238376
0.0237929
0.0237721
0.0243161
0.02613
0.0238173
0.0235052
0.0232447
0.023054
0.0229794
0.0229277
0.0250943
0.023869
0.0234513
0.0230395
0.0226989
0.0224205
0.0222358
0.0221398
0.0220904
0.0238386
0.0235484
0.0231113
0.0226703
0.0222777
0.0219667
0.0217307
0.0215711
0.021479
0.0214348
0.0238392
0.0234192
0.0229273
0.0224236
0.0219969
0.0216546
0.0213953
0.0212042
0.0210726
0.0209924
0.0209539
0.0250944
0.0235486
0.0229273
0.0223436
0.021855
0.0214773
0.0211884
0.0209707
0.0208102
0.020698
0.0206278
0.0205939
0.0243162
0.0238691
0.0231114
0.0224236
0.021855
0.0214187
0.0210896
0.0208395
0.0206504
0.0205103
0.0204115
0.0203487
0.0203182
0.02613
0.0234513
0.0226703
0.0219969
0.0214773
0.0210896
0.0207971
0.0205742
0.0204049
0.0202789
0.0201895
0.0201322
0.0201043
0.0242114
0.0238173
0.0230396
0.0222777
0.0216546
0.0211884
0.0208395
0.0205742
0.0203708
0.0202156
0.0200995
0.0200168
0.0199637
0.0199377
0.0254207
0.0235052
0.022699
0.0219667
0.0213953
0.0209707
0.0206504
0.0204049
0.0202156
0.0200704
0.0199615
0.0198836
0.0198335
0.0198089
0.0241517
0.0232447
0.0224205
0.0217307
0.0212042
0.0208102
0.0205103
0.0202789
0.0200995
0.0199615
0.0198576
0.0197833
0.0197353
0.0197117
0.0238376
0.023054
0.0222358
0.0215711
0.0210726
0.020698
0.0204115
0.0201895
0.0200168
0.0198836
0.0197833
0.0197113
0.0196648
0.0196419
0.0252168
0.0237929
0.0229794
0.0221398
0.0214791
0.0209924
0.0206278
0.0203487
0.0201322
0.0199637
0.0198335
0.0197353
0.0196648
0.0196192
0.0195968
0.0252737
0.0237721
0.0229277
0.0220904
0.0214348
0.0209539
0.0205939
0.0203182
0.0201043
0.0199377
0.0198089
0.0197117
0.0196419
0.0195968
0.0195746
0.0215731
0.0215874
0.0216521
0.022034
0.0222574
0.0221418
0.0220343
0.0219938
0.0216588
0.0225027
0.0220525
0.0219746
0.0218799
0.0218412
0.0218119
0.0217866
0.0218692
0.0220662
0.021966
0.0218456
0.0217091
0.0215648
0.0214736
0.0214187
0.0213884
0.0222161
0.0219993
0.0218744
0.0216948
0.021503
0.0213374
0.0211978
0.0210979
0.0210358
0.0210046
0.0222169
0.0219542
0.0218014
0.0215801
0.0213555
0.0211532
0.0209873
0.0208562
0.0207618
0.0207019
0.0206724
0.0218692
0.0219995
0.0218014
0.0215423
0.0212767
0.0210435
0.0208474
0.0206894
0.0205669
0.0204786
0.0204221
0.0203944
0.0216589
0.0220663
0.0218745
0.0215801
0.0212768
0.0210061
0.0207781
0.0205912
0.0204424
0.0203282
0.0202459
0.0201928
0.0201668
0.0225027
0.021966
0.0216948
0.0213555
0.0210435
0.0207781
0.0205588
0.0203814
0.0202413
0.0201343
0.0200571
0.0200072
0.0199826
0.0216521
0.0220525
0.0218457
0.0215031
0.0211532
0.0208474
0.0205912
0.0203814
0.0202129
0.0200802
0.019979
0.0199059
0.0198586
0.0198353
0.022034
0.0219746
0.0217092
0.0213375
0.0209873
0.0206894
0.0204424
0.0202413
0.0200802
0.0199535
0.0198569
0.019787
0.0197417
0.0197194
0.0222574
0.0218799
0.0215648
0.0211978
0.0208562
0.0205669
0.0203282
0.0201343
0.019979
0.0198569
0.0197636
0.0196962
0.0196524
0.0196309
0.0221418
0.0218412
0.0214737
0.021098
0.0207618
0.0204787
0.0202459
0.0200571
0.0199059
0.019787
0.0196962
0.0196305
0.0195878
0.0195668
0.0215731
0.0220343
0.0218119
0.0214187
0.0210358
0.0207019
0.0204222
0.0201928
0.0200072
0.0198586
0.0197417
0.0196524
0.0195878
0.0195458
0.0195252
0.0215874
0.0219938
0.0217866
0.0213884
0.0210046
0.0206724
0.0203944
0.0201668
0.0199826
0.0198353
0.0197194
0.0196309
0.0195668
0.0195252
0.0195047
0.0202257
0.0202361
0.0203428
0.0205698
0.0209005
0.0209002
0.0208478
0.0208258
0.0203577
0.0207835
0.0208234
0.020811
0.0207818
0.0207834
0.0207823
0.0207788
0.0204985
0.0208272
0.0208148
0.020808
0.0207795
0.0207279
0.0206923
0.0206671
0.0206529
0.0209306
0.0208306
0.0208247
0.0207748
0.0207089
0.0206449
0.0205824
0.0205328
0.0204982
0.02048
0.0209312
0.020811
0.0208062
0.0207434
0.0206544
0.0205614
0.0204759
0.0204016
0.0203447
0.0203067
0.0202874
0.0204985
0.0208308
0.0208061
0.0207322
0.0206239
0.0205081
0.0203982
0.0203015
0.0202214
0.0201611
0.0201213
0.0201014
0.0203577
0.0208273
0.0208248
0.0207435
0.0206239
0.0204896
0.020358
0.0202389
0.0201374
0.0200557
0.0199948
0.0199546
0.0199347
0.0207835
0.0208149
0.0207748
0.0206544
0.0205082
0.020358
0.0202178
0.0200948
0.0199923
0.0199109
0.0198507
0.019811
0.0197913
0.0203428
0.0208234
0.020808
0.0207089
0.0205614
0.0203982
0.0202389
0.0200948
0.0199711
0.0198693
0.0197891
0.0197299
0.0196911
0.0196718
0.0205698
0.020811
0.0207795
0.0206449
0.0204759
0.0203015
0.0201374
0.0199923
0.0198693
0.0197687
0.0196899
0.019632
0.0195939
0.019575
0.0209005
0.0207818
0.0207279
0.0205824
0.0204016
0.0202214
0.0200557
0.0199109
0.0197891
0.0196899
0.0196125
0.0195555
0.0195182
0.0194997
0.0209002
0.0207834
0.0206924
0.0205328
0.0203448
0.0201611
0.0199948
0.0198507
0.0197299
0.019632
0.0195555
0.0194994
0.0194626
0.0194444
0.0202257
0.0208478
0.0207823
0.0206671
0.0204983
0.0203067
0.0201213
0.0199546
0.019811
0.0196911
0.0195939
0.0195182
0.0194626
0.0194262
0.0194082
0.0202361
0.0208258
0.0207788
0.0206529
0.02048
0.0202874
0.0201014
0.0199347
0.0197913
0.0196718
0.019575
0.0194997
0.0194444
0.0194082
0.0193902
0.0195076
0.0195158
0.0195685
0.0197171
0.0199333
0.0199768
0.0199672
0.0199656
0.0195935
0.0198257
0.0199334
0.0199525
0.0199581
0.0199705
0.0199789
0.0199835
0.0196833
0.0199348
0.0199611
0.0199943
0.0200129
0.0200126
0.0200098
0.0200039
0.0199997
0.0199674
0.0199568
0.0200008
0.0200144
0.020015
0.0200077
0.0199927
0.0199769
0.0199633
0.0199554
0.0199677
0.0199516
0.0200078
0.0200236
0.0200115
0.0199868
0.0199557
0.0199232
0.0198956
0.0198758
0.0198654
0.0196833
0.0199569
0.0200077
0.0200262
0.0200087
0.0199701
0.0199229
0.0198745
0.0198303
0.0197949
0.0197704
0.0197579
0.0195935
0.0199348
0.0200009
0.0200236
0.0200087
0.0199641
0.0199044
0.0198411
0.0197815
0.0197301
0.0196901
0.019663
0.0196492
0.0198257
0.0199611
0.0200145
0.0200115
0.0199702
0.0199044
0.0198294
0.0197555
0.0196891
0.0196336
0.0195911
0.0195625
0.0195481
0.0195685
0.0199334
0.0199944
0.020015
0.0199868
0.0199229
0.0198411
0.0197555
0.019675
0.0196047
0.0195469
0.0195031
0.0194738
0.0194591
0.0197171
0.0199525
0.0200129
0.0200077
0.0199557
0.0198745
0.0197815
0.0196891
0.0196047
0.0195321
0.0194731
0.0194287
0.0193991
0.0193843
0.0199333
0.0199581
0.0200127
0.0199927
0.0199232
0.0198303
0.0197301
0.0196336
0.0195469
0.0194732
0.0194137
0.019369
0.0193393
0.0193245
0.0199768
0.0199705
0.0200098
0.0199769
0.0198956
0.0197949
0.0196901
0.0195911
0.0195031
0.0194287
0.019369
0.0193243
0.0192946
0.0192798
0.0195076
0.0199672
0.0199789
0.0200039
0.0199633
0.0198758
0.0197704
0.019663
0.0195625
0.0194738
0.0193991
0.0193393
0.0192946
0.0192649
0.0192502
0.0195158
0.0199656
0.0199835
0.0199997
0.0199554
0.0198654
0.0197579
0.0196492
0.0195481
0.0194591
0.0193843
0.0193245
0.0192798
0.0192502
0.0192354
0.0189973
0.019004
0.0190165
0.0191093
0.0192341
0.0192844
0.0192896
0.0192957
0.0190386
0.0191824
0.019264
0.019295
0.0193164
0.0193359
0.0193466
0.0193527
0.0190934
0.0192645
0.019306
0.0193501
0.0193843
0.0194052
0.0194193
0.0194252
0.0194271
0.0192651
0.0192918
0.01935
0.0193888
0.0194183
0.0194385
0.019449
0.0194536
0.0194541
0.0194535
0.0192653
0.0192961
0.0193669
0.0194132
0.0194391
0.0194525
0.0194553
0.0194511
0.0194446
0.0194386
0.019435
0.0190934
0.0192919
0.0193668
0.0194217
0.0194499
0.0194578
0.0194526
0.0194394
0.0194229
0.0194075
0.0193959
0.0193897
0.0190386
0.0192645
0.0193501
0.0194132
0.01945
0.0194594
0.0194493
0.019428
0.0194021
0.0193763
0.0193546
0.0193391
0.019331
0.0191824
0.019306
0.0193888
0.0194391
0.0194578
0.0194493
0.0194236
0.0193898
0.0193545
0.0193222
0.0192962
0.019278
0.0192687
0.0190165
0.019264
0.0193501
0.0194183
0.0194525
0.0194526
0.019428
0.0193898
0.0193467
0.0193049
0.0192682
0.0192392
0.0192193
0.0192091
0.0191093
0.019295
0.0193843
0.0194385
0.0194553
0.0194394
0.0194021
0.0193545
0.0193049
0.0192586
0.019219
0.0191881
0.0191671
0.0191564
0.0192341
0.0193164
0.0194052
0.019449
0.0194511
0.0194229
0.0193763
0.0193222
0.0192682
0.019219
0.0191775
0.0191454
0.0191237
0.0191127
0.0192844
0.0193359
0.0194193
0.0194536
0.0194446
0.0194075
0.0193546
0.0192962
0.0192392
0.0191881
0.0191454
0.0191126
0.0190904
0.0190792
0.0189973
0.0192896
0.0193466
0.0194252
0.0194541
0.0194386
0.019396
0.0193391
0.019278
0.0192193
0.0191671
0.0191237
0.0190904
0.0190679
0.0190566
0.019004
0.0192957
0.0193527
0.0194271
0.0194535
0.019435
0.0193898
0.019331
0.0192687
0.0192092
0.0191564
0.0191127
0.0190792
0.0190566
0.0190453
0.0185638
0.0185713
0.018564
0.0186237
0.0186902
0.0187362
0.0187454
0.0187531
0.0185819
0.0186829
0.0187298
0.0187611
0.0187863
0.0188092
0.0188215
0.0188282
0.0186162
0.0187298
0.0187733
0.0188174
0.0188541
0.0188811
0.0189021
0.018914
0.0189194
0.0187171
0.0187554
0.018814
0.0188599
0.0188995
0.0189313
0.0189542
0.01897
0.0189787
0.0189826
0.0187173
0.0187631
0.0188325
0.0188879
0.0189305
0.0189632
0.0189855
0.0189989
0.0190066
0.0190102
0.0190115
0.0186162
0.0187555
0.0188324
0.018898
0.018947
0.0189807
0.0190017
0.0190122
0.0190156
0.0190154
0.0190138
0.0190126
0.018582
0.0187299
0.018814
0.0188879
0.018947
0.0189866
0.0190084
0.0190166
0.0190158
0.0190102
0.0190034
0.0189976
0.0189943
0.0186829
0.0187733
0.0188599
0.0189305
0.0189807
0.0190084
0.0190175
0.0190142
0.0190039
0.0189911
0.0189791
0.01897
0.0189652
0.018564
0.0187298
0.0188174
0.0188995
0.0189632
0.0190017
0.0190166
0.0190142
0.0190012
0.0189835
0.0189653
0.0189495
0.0189381
0.0189322
0.0186237
0.0187611
0.0188541
0.0189313
0.0189855
0.0190122
0.0190158
0.0190039
0.0189835
0.0189602
0.0189381
0.0189197
0.0189067
0.0189
0.0186902
0.0187863
0.0188811
0.0189542
0.0189989
0.0190156
0.0190103
0.0189911
0.0189653
0.0189381
0.0189133
0.018893
0.0188789
0.0188716
0.0187362
0.0188092
0.0189021
0.01897
0.0190066
0.0190154
0.0190034
0.0189791
0.0189495
0.0189197
0.018893
0.0188716
0.0188567
0.018849
0.0185638
0.0187453
0.0188215
0.018914
0.0189787
0.0190102
0.0190138
0.0189976
0.01897
0.0189381
0.0189067
0.0188789
0.0188567
0.0188413
0.0188334
0.0185713
0.0187531
0.0188282
0.0189194
0.0189826
0.0190115
0.0190126
0.0189943
0.0189652
0.0189322
0.0189
0.0188716
0.018849
0.0188334
0.0188255
0.0181737
0.0181817
0.0181705
0.0182096
0.0182413
0.0182795
0.0182893
0.018297
0.0181838
0.0182608
0.0182817
0.0183092
0.0183327
0.0183555
0.0183681
0.0183752
0.0182068
0.0182817
0.0183217
0.0183618
0.0183962
0.0184231
0.0184455
0.0184595
0.0184665
0.0182639
0.0183032
0.018357
0.0184024
0.0184435
0.0184787
0.0185064
0.0185272
0.0185402
0.0185465
0.018264
0.018311
0.0183741
0.0184294
0.0184772
0.0185181
0.0185502
0.0185737
0.0185898
0.0185995
0.018604
0.0182068
0.0183033
0.018374
0.0184392
0.0184954
0.0185416
0.0185772
0.0186024
0.0186189
0.0186291
0.0186347
0.0186372
0.0181838
0.0182817
0.018357
0.0184294
0.0184954
0.0185495
0.0185898
0.0186172
0.0186339
0.018643
0.0186473
0.0186491
0.0186496
0.0182608
0.0183217
0.0184024
0.0184772
0.0185416
0.0185899
0.0186217
0.0186398
0.0186483
0.0186507
0.0186501
0.0186486
0.0186475
0.0181705
0.0182817
0.0183618
0.0184435
0.0185181
0.0185772
0.0186172
0.0186398
0.0186496
0.018651
0.0186479
0.0186433
0.0186393
0.0186369
0.0182096
0.0183092
0.0183962
0.0184787
0.0185502
0.0186024
0.0186339
0.0186483
0.018651
0.0186467
0.0186394
0.0186319
0.0186259
0.0186227
0.0182413
0.0183327
0.0184231
0.0185064
0.0185737
0.0186189
0.018643
0.0186507
0.0186479
0.0186394
0.018629
0.0186193
0.018612
0.0186081
0.0182795
0.0183555
0.0184455
0.0185272
0.0185898
0.0186291
0.0186473
0.0186501
0.0186433
0.0186319
0.0186193
0.0186081
0.0185999
0.0185955
0.0181736
0.0182893
0.0183681
0.0184595
0.0185402
0.0185995
0.0186347
0.0186491
0.0186486
0.0186393
0.0186259
0.018612
0.0185999
0.0185911
0.0185864
0.0181816
0.018297
0.0183752
0.0184665
0.0185465
0.018604
0.0186372
0.0186496
0.0186475
0.0186369
0.0186227
0.0186081
0.0185955
0.0185864
0.0185817
0.0178183
0.0178259
0.0178172
0.0178434
0.0178545
0.017885
0.017894
0.0179007
0.017827
0.0178883
0.017892
0.017915
0.0179353
0.0179558
0.0179675
0.0179742
0.0178436
0.0178921
0.0179269
0.017962
0.0179925
0.0180171
0.0180383
0.0180522
0.0180594
0.0178738
0.0179099
0.0179571
0.0179987
0.0180373
0.0180718
0.0181001
0.0181223
0.0181369
0.0181442
0.0178739
0.0179168
0.017972
0.0180232
0.0180703
0.0181129
0.0181487
0.0181768
0.0181973
0.0182104
0.0182168
0.0178436
0.0179099
0.017972
0.0180321
0.0180881
0.0181384
0.0181808
0.018214
0.0182384
0.0182552
0.0182655
0.0182704
0.017827
0.0178921
0.0179571
0.0180232
0.0180881
0.0181471
0.0181965
0.0182349
0.0182628
0.0182818
0.0182941
0.0183013
0.0183046
0.0178883
0.0179269
0.0179987
0.0180703
0.0181384
0.0181965
0.0182416
0.0182739
0.0182954
0.018309
0.0183169
0.0183212
0.0183231
0.0178172
0.017892
0.017962
0.0180373
0.0181128
0.0181808
0.0182349
0.0182739
0.0182996
0.0183152
0.0183238
0.0183281
0.01833
0.0183306
0.0178434
0.017915
0.0179925
0.0180718
0.0181487
0.018214
0.0182628
0.0182954
0.0183152
0.0183257
0.0183303
0.0183317
0.0183316
0.0183313
0.0178545
0.0179353
0.0180171
0.0181001
0.0181768
0.0182384
0.0182818
0.018309
0.0183238
0.0183303
0.0183318
0.018331
0.0183295
0.0183285
0.017885
0.0179558
0.0180383
0.0181223
0.0181973
0.0182552
0.0182941
0.0183169
0.0183281
0.0183317
0.018331
0.0183286
0.0183261
0.0183247
0.0178182
0.017894
0.0179675
0.0180522
0.0181369
0.0182104
0.0182655
0.0183013
0.0183212
0.01833
0.0183316
0.0183295
0.0183261
0.018323
0.0183213
0.0178258
0.0179007
0.0179742
0.0180594
0.0181442
0.0182168
0.0182704
0.0183046
0.0183231
0.0183306
0.0183313
0.0183285
0.0183247
0.0183213
0.0183193
0.0174925
0.0174991
0.0174937
0.0175117
0.0175102
0.0175344
0.017542
0.0175474
0.0175014
0.0175514
0.0175435
0.0175623
0.0175794
0.0175969
0.0176072
0.0176131
0.0175143
0.0175439
0.0175735
0.0176035
0.0176297
0.0176513
0.0176701
0.0176829
0.0176897
0.0175273
0.0175587
0.0175991
0.0176358
0.0176704
0.017702
0.0177287
0.0177503
0.0177649
0.0177723
0.0175274
0.0175649
0.0176121
0.0176574
0.0177008
0.0177416
0.0177774
0.0178066
0.0178288
0.0178434
0.0178507
0.0175143
0.0175587
0.017612
0.0176652
0.0177173
0.0177669
0.017811
0.0178476
0.0178759
0.0178964
0.0179095
0.0179158
0.0175014
0.0175439
0.0175991
0.0176574
0.0177173
0.0177756
0.017828
0.0178716
0.0179058
0.0179309
0.0179483
0.0179592
0.0179644
0.0175514
0.0175735
0.0176358
0.0177008
0.0177669
0.017828
0.0178795
0.01792
0.01795
0.0179711
0.0179852
0.0179937
0.0179977
0.0174937
0.0175435
0.0176035
0.0176704
0.0177416
0.017811
0.0178716
0.01792
0.0179561
0.0179815
0.0179986
0.0180096
0.018016
0.0180189
0.0175117
0.0175623
0.0176297
0.017702
0.0177774
0.0178476
0.0179058
0.01795
0.0179815
0.0180028
0.0180165
0.0180248
0.0180294
0.0180315
0.0175102
0.0175794
0.0176513
0.0177287
0.0178066
0.0178759
0.0179309
0.0179711
0.0179986
0.0180165
0.0180274
0.0180336
0.0180369
0.0180383
0.0175344
0.0175969
0.0176701
0.0177503
0.0178288
0.0178964
0.0179484
0.0179852
0.0180096
0.0180248
0.0180336
0.0180384
0.0180407
0.0180417
0.0174923
0.017542
0.0176072
0.0176829
0.0177649
0.0178434
0.0179095
0.0179592
0.0179937
0.018016
0.0180294
0.0180369
0.0180407
0.0180424
0.0180431
0.0174989
0.0175474
0.0176131
0.0176897
0.0177723
0.0178507
0.0179158
0.0179644
0.0179977
0.0180189
0.0180315
0.0180383
0.0180417
0.0180431
0.0180435
0.0171908
0.0171963
0.0171939
0.0172069
0.0171964
0.0172156
0.0172217
0.0172261
0.0172001
0.0172416
0.0172254
0.0172407
0.0172547
0.0172693
0.0172778
0.0172829
0.0172108
0.0172264
0.0172511
0.0172762
0.0172983
0.0173166
0.0173328
0.017344
0.01735
0.0172122
0.0172389
0.0172729
0.0173042
0.0173342
0.0173621
0.0173862
0.0174059
0.0174196
0.0174266
0.0172123
0.0172443
0.017284
0.017323
0.0173615
0.0173987
0.0174323
0.0174606
0.0174826
0.0174974
0.0175049
0.0172108
0.0172389
0.017284
0.0173299
0.0173764
0.0174225
0.0174652
0.017502
0.0175316
0.0175536
0.017568
0.0175751
0.0172001
0.0172264
0.0172729
0.017323
0.0173764
0.0174308
0.0174822
0.0175272
0.017564
0.0175924
0.0176127
0.0176258
0.0176322
0.0172416
0.0172511
0.0173042
0.0173615
0.0174225
0.0174822
0.0175355
0.0175799
0.0176147
0.0176405
0.0176585
0.0176698
0.0176753
0.0171939
0.0172254
0.0172762
0.0173342
0.0173987
0.0174652
0.0175272
0.0175799
0.0176219
0.0176536
0.0176765
0.0176921
0.0177017
0.0177063
0.0172069
0.0172407
0.0172983
0.0173621
0.0174323
0.017502
0.017564
0.0176147
0.0176536
0.0176822
0.0177023
0.0177157
0.0177239
0.0177277
0.0171964
0.0172547
0.0173166
0.0173862
0.0174606
0.0175316
0.0175924
0.0176405
0.0176765
0.0177023
0.0177201
0.0177318
0.0177387
0.017742
0.0172156
0.0172693
0.0173328
0.0174059
0.0174826
0.0175536
0.0176127
0.0176585
0.0176921
0.0177157
0.0177318
0.0177421
0.0177482
0.0177511
0.0171906
0.0172217
0.0172778
0.017344
0.0174196
0.0174974
0.017568
0.0176258
0.0176698
0.0177017
0.0177239
0.0177388
0.0177482
0.0177538
0.0177563
0.0171961
0.0172261
0.0172829
0.01735
0.0174266
0.0175049
0.0175751
0.0176322
0.0176753
0.0177063
0.0177277
0.017742
0.0177511
0.0177563
0.0177588
0.0169086
0.0169132
0.016913
0.0169233
0.0169058
0.016921
0.0169256
0.016929
0.0169184
0.0169532
0.0169308
0.0169431
0.0169544
0.0169661
0.0169728
0.016977
0.0169277
0.0169326
0.0169528
0.0169734
0.0169916
0.0170066
0.0170201
0.0170295
0.0170346
0.0169212
0.0169434
0.0169715
0.0169975
0.0170228
0.0170466
0.0170675
0.0170849
0.0170971
0.0171035
0.0169213
0.0169481
0.0169811
0.0170138
0.0170468
0.0170794
0.0171097
0.0171358
0.0171565
0.0171706
0.0171778
0.0169277
0.0169434
0.016981
0.0170197
0.01706
0.0171012
0.0171406
0.0171757
0.0172046
0.0172266
0.0172413
0.0172486
0.0169184
0.0169326
0.0169715
0.0170138
0.01706
0.0171088
0.0171568
0.0172005
0.0172375
0.0172668
0.0172885
0.0173026
0.0173096
0.0169532
0.0169528
0.0169975
0.0170468
0.0171012
0.0171568
0.0172089
0.0172539
0.0172906
0.0173188
0.0173391
0.0173521
0.0173585
0.016913
0.0169308
0.0169734
0.0170228
0.0170794
0.0171406
0.0172005
0.0172539
0.0172984
0.0173336
0.0173599
0.0173784
0.0173902
0.0173959
0.0169233
0.0169431
0.0169916
0.0170466
0.0171097
0.0171757
0.0172375
0.0172906
0.0173336
0.0173666
0.0173909
0.0174078
0.0174184
0.0174236
0.0169058
0.0169544
0.0170066
0.0170675
0.0171358
0.0172046
0.0172668
0.0173188
0.0173599
0.0173909
0.0174134
0.0174289
0.0174386
0.0174433
0.016921
0.0169661
0.0170201
0.0170849
0.0171565
0.0172266
0.0172885
0.0173391
0.0173784
0.0174078
0.0174289
0.0174434
0.0174523
0.0174566
0.0169085
0.0169256
0.0169728
0.0170295
0.0170971
0.0171706
0.0172413
0.0173026
0.0173521
0.0173902
0.0174184
0.0174386
0.0174523
0.0174608
0.0174648
0.016913
0.016929
0.016977
0.0170346
0.0171035
0.0171778
0.0172486
0.0173096
0.0173585
0.0173959
0.0174236
0.0174433
0.0174566
0.0174648
0.0174688
0.0166424
0.0166461
0.0166478
0.0166566
0.0166337
0.0166456
0.0166487
0.0166514
0.016653
0.0166825
0.0166553
0.0166649
0.0166736
0.0166827
0.0166877
0.016691
0.0166614
0.0166581
0.0166741
0.0166905
0.016705
0.0167169
0.0167277
0.0167351
0.0167393
0.0166497
0.0166677
0.0166902
0.0167111
0.0167316
0.0167512
0.0167687
0.0167835
0.0167939
0.0167995
0.0166497
0.0166719
0.0166986
0.0167252
0.0167524
0.0167801
0.0168064
0.0168295
0.0168481
0.016861
0.0168677
0.0166614
0.0166677
0.0166986
0.0167303
0.016764
0.0167995
0.0168346
0.0168666
0.0168936
0.0169146
0.0169287
0.0169358
0.016653
0.016658
0.0166902
0.0167252
0.016764
0.0168064
0.0168496
0.0168901
0.0169255
0.0169543
0.0169759
0.0169902
0.0169973
0.0166825
0.0166741
0.0167111
0.0167524
0.0167995
0.0168496
0.0168982
0.0169417
0.0169783
0.0170071
0.0170283
0.0170421
0.0170489
0.0166478
0.0166553
0.0166905
0.0167316
0.0167801
0.0168346
0.0168901
0.0169417
0.0169863
0.0170225
0.0170505
0.0170706
0.0170836
0.01709
0.0166566
0.0166649
0.016705
0.0167512
0.0168064
0.0168666
0.0169255
0.0169783
0.0170225
0.0170577
0.0170844
0.0171034
0.0171156
0.0171216
0.0166336
0.0166736
0.0167169
0.0167687
0.0168295
0.0168936
0.0169543
0.0170071
0.0170505
0.0170844
0.0171099
0.0171279
0.0171393
0.0171449
0.0166456
0.0166827
0.0167277
0.0167835
0.0168481
0.0169146
0.0169759
0.0170283
0.0170706
0.0171034
0.0171279
0.017145
0.017156
0.0171613
0.0166424
0.0166487
0.0166877
0.0167351
0.0167939
0.016861
0.0169287
0.0169902
0.0170421
0.0170836
0.0171156
0.0171393
0.017156
0.0171665
0.0171716
0.0166461
0.0166514
0.016691
0.0167393
0.0167995
0.0168677
0.0169358
0.0169973
0.0170489
0.01709
0.0171216
0.0171449
0.0171613
0.0171716
0.0171766
0.0163898
0.0163929
0.0163963
0.0164038
0.0163772
0.0163864
0.0163877
0.0163898
0.0164018
0.0164269
0.0163961
0.0164032
0.0164094
0.0164161
0.0164193
0.0164217
0.0164097
0.0164001
0.0164122
0.0164246
0.0164354
0.0164442
0.0164522
0.0164578
0.016461
0.0163952
0.016409
0.0164262
0.016442
0.0164577
0.0164731
0.016487
0.0164989
0.0165074
0.016512
0.0163952
0.016413
0.0164337
0.0164541
0.0164755
0.0164978
0.0165197
0.0165394
0.0165555
0.0165668
0.0165726
0.0164097
0.016409
0.0164337
0.0164585
0.0164855
0.0165148
0.0165448
0.0165729
0.0165972
0.0166163
0.0166294
0.016636
0.0164018
0.0164
0.0164262
0.0164541
0.0164855
0.0165209
0.0165583
0.0165945
0.0166271
0.0166541
0.0166748
0.0166886
0.0166956
0.0164269
0.0164122
0.016442
0.0164755
0.0165148
0.0165583
0.016602
0.0166425
0.0166774
0.0167055
0.0167265
0.0167404
0.0167473
0.0163963
0.0163961
0.0164246
0.0164577
0.0164978
0.0165447
0.0165945
0.0166425
0.0166852
0.0167209
0.0167491
0.0167697
0.0167833
0.0167899
0.0164038
0.0164032
0.0164354
0.0164731
0.0165197
0.0165729
0.0166271
0.0166774
0.0167209
0.0167565
0.0167841
0.0168042
0.0168172
0.0168236
0.0163772
0.0164094
0.0164442
0.016487
0.0165394
0.0165972
0.0166541
0.0167055
0.0167491
0.0167841
0.016811
0.0168304
0.0168429
0.0168491
0.0163864
0.0164161
0.0164522
0.0164989
0.0165555
0.0166163
0.0166748
0.0167265
0.0167697
0.0168042
0.0168304
0.0168492
0.0168613
0.0168673
0.0163897
0.0163877
0.0164193
0.0164578
0.0165074
0.0165668
0.0166294
0.0166886
0.0167404
0.0167833
0.0168172
0.0168429
0.0168613
0.0168732
0.016879
0.0163928
0.0163898
0.0164217
0.016461
0.016512
0.0165726
0.0166361
0.0166956
0.0167473
0.0167899
0.0168236
0.0168491
0.0168673
0.016879
0.0168847
0.0161489
0.0161516
0.0161569
0.0161634
0.0161347
0.0161416
0.0161408
0.0161423
0.0161629
0.0161847
0.0161515
0.0161561
0.0161598
0.016164
0.0161652
0.0161669
0.0161709
0.0161568
0.0161651
0.0161736
0.0161808
0.0161864
0.0161916
0.016195
0.0161972
0.0161569
0.0161657
0.0161776
0.0161881
0.0161989
0.0162098
0.0162199
0.0162288
0.0162352
0.0162388
0.0161569
0.0161698
0.0161844
0.0161984
0.0162136
0.0162303
0.0162475
0.0162633
0.0162766
0.016286
0.016291
0.0161708
0.0161657
0.0161844
0.0162022
0.0162221
0.0162448
0.016269
0.0162927
0.0163137
0.0163305
0.0163422
0.0163482
0.0161629
0.0161567
0.0161776
0.0161984
0.0162221
0.01625
0.0162809
0.0163121
0.0163409
0.0163654
0.0163845
0.0163974
0.016404
0.0161847
0.0161651
0.0161881
0.0162136
0.0162448
0.0162809
0.0163188
0.0163551
0.0163873
0.0164138
0.0164339
0.0164474
0.0164541
0.0161569
0.0161515
0.0161736
0.0161989
0.0162303
0.016269
0.0163121
0.0163551
0.0163947
0.0164287
0.016456
0.0164763
0.0164898
0.0164965
0.0161635
0.0161561
0.0161808
0.0162098
0.0162475
0.0162927
0.0163409
0.0163873
0.0164287
0.0164633
0.0164907
0.0165109
0.0165242
0.0165308
0.0161347
0.0161598
0.0161864
0.0162199
0.0162633
0.0163137
0.0163654
0.0164138
0.016456
0.0164907
0.0165179
0.0165378
0.0165508
0.0165572
0.0161416
0.016164
0.0161916
0.0162288
0.0162766
0.0163305
0.0163845
0.0164339
0.0164763
0.0165109
0.0165378
0.0165574
0.0165701
0.0165764
0.0161489
0.0161408
0.0161652
0.016195
0.0162352
0.016286
0.0163422
0.0163974
0.0164474
0.0164898
0.0165242
0.0165508
0.0165701
0.0165827
0.0165889
0.0161516
0.0161423
0.0161669
0.0161972
0.0162388
0.016291
0.0163482
0.016404
0.0164541
0.0164965
0.0165308
0.0165572
0.0165764
0.0165889
0.016595
0.0159181
0.0159205
0.0159284
0.0159344
0.0159057
0.0159102
0.0159064
0.0159074
0.015935
0.0159545
0.0159203
0.0159224
0.0159232
0.0159248
0.0159239
0.0159248
0.0159435
0.0159268
0.0159315
0.0159359
0.0159394
0.0159415
0.0159437
0.0159449
0.0159461
0.0159365
0.0159364
0.0159426
0.0159476
0.0159531
0.0159593
0.0159654
0.0159712
0.0159753
0.0159778
0.0159367
0.0159412
0.0159489
0.0159561
0.0159647
0.0159754
0.0159875
0.0159992
0.0160095
0.0160169
0.0160209
0.0159432
0.0159364
0.0159489
0.0159593
0.0159715
0.0159871
0.0160053
0.0160241
0.0160414
0.0160557
0.0160658
0.016071
0.015935
0.0159267
0.0159426
0.0159561
0.0159715
0.0159914
0.0160153
0.0160409
0.0160655
0.0160871
0.0161042
0.0161159
0.0161219
0.0159545
0.0159315
0.0159476
0.0159647
0.0159871
0.0160153
0.0160468
0.0160783
0.0161071
0.0161314
0.0161501
0.0161628
0.0161691
0.0159284
0.0159203
0.0159359
0.0159531
0.0159754
0.0160053
0.0160409
0.0160783
0.016114
0.0161454
0.0161711
0.0161906
0.0162036
0.0162101
0.0159344
0.0159225
0.0159394
0.0159593
0.0159875
0.0160241
0.0160655
0.0161071
0.0161454
0.0161782
0.0162046
0.0162243
0.0162374
0.0162439
0.0159057
0.0159232
0.0159415
0.0159654
0.0159992
0.0160414
0.0160871
0.0161314
0.0161711
0.0162046
0.0162312
0.0162509
0.0162639
0.0162704
0.0159102
0.0159249
0.0159437
0.0159712
0.0160095
0.0160557
0.0161042
0.0161501
0.0161906
0.0162243
0.0162509
0.0162705
0.0162834
0.0162898
0.0159181
0.0159064
0.0159239
0.0159449
0.0159753
0.0160169
0.0160658
0.0161159
0.0161628
0.0162036
0.0162374
0.0162639
0.0162834
0.0162962
0.0163026
0.0159205
0.0159074
0.0159248
0.0159461
0.0159778
0.0160209
0.016071
0.0161219
0.0161691
0.0162101
0.0162439
0.0162704
0.0162898
0.0163026
0.0163089
0.015695
0.015697
0.0157086
0.015715
0.0156901
0.0156919
0.0156832
0.0156839
0.0157157
0.0157352
0.015702
0.0157012
0.0156983
0.015697
0.0156931
0.0156933
0.0157253
0.0157091
0.01571
0.0157096
0.0157088
0.0157071
0.0157062
0.0157048
0.015705
0.0157467
0.0157191
0.0157193
0.015718
0.0157176
0.0157187
0.0157207
0.0157233
0.0157252
0.0157266
0.0157467
0.0157256
0.0157243
0.0157242
0.0157256
0.0157302
0.015737
0.0157447
0.0157519
0.0157574
0.0157604
0.0157252
0.0157191
0.0157243
0.0157265
0.0157305
0.0157389
0.015751
0.0157649
0.0157785
0.0157901
0.0157985
0.015803
0.0157157
0.0157091
0.0157193
0.0157242
0.0157305
0.0157422
0.015759
0.0157789
0.0157992
0.0158177
0.0158326
0.0158431
0.0158485
0.0157352
0.0157101
0.015718
0.0157256
0.0157389
0.015759
0.0157839
0.0158104
0.0158356
0.0158574
0.0158745
0.0158862
0.0158921
0.0157087
0.015702
0.0157096
0.0157176
0.0157302
0.015751
0.0157789
0.0158104
0.0158418
0.0158703
0.0158941
0.0159124
0.0159247
0.0159309
0.0157151
0.0157013
0.0157088
0.0157187
0.015737
0.0157649
0.0157992
0.0158356
0.0158703
0.0159007
0.0159256
0.0159445
0.0159571
0.0159634
0.0156902
0.0156984
0.0157072
0.0157207
0.0157447
0.0157785
0.0158177
0.0158574
0.0158941
0.0159256
0.0159511
0.0159703
0.015983
0.0159893
0.0156919
0.015697
0.0157062
0.0157233
0.0157519
0.0157901
0.0158327
0.0158745
0.0159124
0.0159445
0.0159703
0.0159895
0.0160022
0.0160085
0.015695
0.0156833
0.0156931
0.0157048
0.0157252
0.0157574
0.0157985
0.0158431
0.0158862
0.0159247
0.0159571
0.015983
0.0160022
0.0160149
0.0160212
0.015697
0.0156839
0.0156933
0.015705
0.0157266
0.0157604
0.015803
0.0158485
0.0158921
0.0159309
0.0159634
0.0159893
0.0160085
0.0160212
0.0160275
0.0154737
0.0154757
0.0154929
0.0155026
0.015491
0.0154876
0.0154693
0.0154701
0.0155003
0.0155265
0.0154964
0.0154915
0.0154832
0.015478
0.01547
0.0154694
0.0155135
0.0155022
0.0154991
0.0154913
0.015485
0.0154788
0.0154753
0.0154711
0.0154704
0.0156124
0.0155162
0.0155033
0.0154951
0.0154882
0.015484
0.0154817
0.0154816
0.0154814
0.0154819
0.0156123
0.0155317
0.0155077
0.0154978
0.0154921
0.0154905
0.0154924
0.0154964
0.0155011
0.0155047
0.015507
0.0155135
0.0155162
0.0155077
0.0154991
0.0154946
0.0154961
0.0155025