/*--------------------------------*- C++ -*----------------------------------*\
| =========                 |                                                 |
| \\      /  F ield         | OpenFOAM: The Open Source CFD Toolbox           |
|  \\    /   O peration     | Version:  2.1.1                                 |
|   \\  /    A nd           | Web:      www.OpenFOAM.org                      |
|    \\/     M anipulation  |                                                 |
\*---------------------------------------------------------------------------*/
FoamFile
{
    version     2.0;
    format      ascii;
    class       volVectorField;
    location    "0.0025";
    object      U;
}
// * * * * * * * * * * * * * * * * * * * * * * * * * * * * * * * * * * * * * //

dimensions      [0 1 -1 0 0 0 0];

internalField   nonuniform List<vector> 
10300
(
(0.00465384 -0.00157019 0.0169951)
(0.000528169 -0.00387092 0.0146078)
(0.000178567 -0.00491074 0.0213242)
(0.000617382 -0.00166024 0.0143308)
(-0.00363511 -0.00433713 0.0215657)
(-0.000342668 -0.000494201 0.0753081)
(0.000115817 -0.000172683 0.0939082)
(-9.43173e-05 -0.000268358 0.0890227)
(3.54924e-05 -0.000260738 0.0883794)
(0.000944797 -0.00285206 0.0145749)
(-0.00432971 -0.0049392 0.0264439)
(-0.00039187 -0.000335524 0.0721616)
(0.000188985 -0.000277326 0.0887077)
(0.00014984 0.000385057 0.113445)
(3.51898e-05 0.000100507 0.116058)
(5.45363e-05 0.000220789 0.113227)
(8.44076e-06 0.000184737 0.112799)
(-0.00235848 -0.00506616 0.01773)
(-0.000401691 -0.000396335 0.073853)
(2.96617e-05 -0.000370072 0.0877182)
(9.33748e-05 0.000267178 0.112203)
(-0.000178765 4.87049e-05 0.114002)
(-0.000128306 -0.000144754 0.114663)
(-3.97146e-05 -0.00011779 0.113385)
(-6.24133e-05 -0.000157419 0.112497)
(3.74273e-06 -0.000161327 0.112259)
(-0.000588542 -0.000467589 0.0706273)
(0.000229425 -0.000347978 0.0888411)
(0.000131665 0.000306656 0.11244)
(-0.000101322 8.72181e-05 0.113527)
(-5.48552e-05 -4.07189e-05 0.114185)
(6.5078e-05 -6.63141e-05 0.113066)
(3.27928e-05 4.68805e-05 0.112562)
(2.94182e-05 2.6485e-05 0.112292)
(1.62976e-05 7.15629e-05 0.112094)
(6.61351e-06 6.75146e-05 0.111944)
(-0.000468909 -0.000589131 0.0705842)
(0.00056615 0.000566153 0.112569)
(-0.000292671 5.27641e-05 0.113548)
(-4.70568e-06 -4.38294e-05 0.113713)
(-2.2768e-06 -9.83518e-05 0.112622)
(1.97649e-05 -8.05694e-06 0.112188)
(-2.42716e-05 -4.37114e-05 0.112177)
(-3.40701e-05 -6.06995e-05 0.112279)
(-2.18726e-05 -7.17838e-05 0.112305)
(-2.5221e-05 -8.47335e-05 0.112227)
(-1.30062e-06 -8.96995e-05 0.112146)
(-0.00506959 -0.00235671 0.0177254)
(-0.000348173 0.000230502 0.0888152)
(5.18896e-05 -0.00029185 0.113539)
(1.77272e-05 1.83674e-05 0.112587)
(4.84401e-05 -6.13722e-06 0.111757)
(-3.13544e-06 4.68219e-06 0.111811)
(-1.86251e-06 -1.56532e-05 0.112001)
(7.1728e-06 -2.5021e-05 0.112194)
(6.28527e-07 -7.65519e-06 0.112315)
(5.35002e-06 -1.16571e-05 0.112347)
(-1.18248e-07 4.96224e-07 0.11232)
(2.2386e-06 3.14277e-07 0.112291)
(-0.00285273 0.000945049 0.0145748)
(-0.000397132 -0.000400797 0.0738459)
(0.000305633 0.000133042 0.112426)
(-4.53211e-05 -3.00397e-06 0.113705)
(-7.07782e-06 4.90536e-05 0.111757)
(-2.07555e-05 -1.94325e-05 0.111677)
(-1.5386e-05 -2.15613e-05 0.111928)
(-1.50328e-05 -2.70981e-05 0.112107)
(-1.81914e-05 -3.79676e-05 0.112239)
(-2.08591e-05 -4.48908e-05 0.112326)
(-1.3821e-05 -5.19859e-05 0.112365)
(-1.3575e-05 -5.62902e-05 0.112371)
(-1.63977e-06 -5.90177e-05 0.112369)
(-0.00494012 -0.00432932 0.0264437)
(-0.000370849 3.1061e-05 0.0877116)
(8.7225e-05 -0.000100345 0.113519)
(-9.98283e-05 -2.48536e-06 0.112616)
(3.74075e-06 -2.52366e-06 0.111811)
(-2.21726e-05 -1.51388e-05 0.11193)
(-1.25876e-05 -1.18571e-05 0.112079)
(-1.85577e-05 -2.09437e-05 0.112189)
(-1.0439e-05 -2.37745e-05 0.112284)
(-1.31703e-05 -2.36067e-05 0.112358)
(-5.92697e-06 -2.53423e-05 0.112404)
(-7.04755e-06 -2.37042e-05 0.112425)
(-2.99068e-07 -2.40247e-05 0.112435)
(-0.00166009 0.000616838 0.0143306)
(-0.000335798 -0.000390762 0.0721628)
(0.000265227 9.48067e-05 0.112202)
(-4.37381e-05 -5.27464e-05 0.114182)
(-9.81013e-06 2.26184e-05 0.112185)
(-1.6132e-05 -8.34539e-07 0.112)
(-2.83254e-05 -1.40507e-05 0.112108)
(-2.11934e-05 -1.80511e-05 0.112189)
(-2.67857e-05 -2.64073e-05 0.112265)
(-2.0744e-05 -3.11128e-05 0.11234)
(-2.23705e-05 -3.6522e-05 0.112403)
(-1.39457e-05 -4.01653e-05 0.112449)
(-1.22955e-05 -4.29674e-05 0.112475)
(-1.95808e-06 -4.42694e-05 0.112489)
(-0.00433706 -0.00363439 0.0215655)
(-0.000278188 0.000189124 0.0887098)
(4.79722e-05 -0.000181471 0.114005)
(-6.48834e-05 6.55039e-05 0.113067)
(-4.62456e-05 -2.64402e-05 0.112177)
(-2.78526e-05 7.04143e-06 0.112194)
(-3.91127e-05 -1.86058e-05 0.11224)
(-2.51187e-05 -1.00434e-05 0.112285)
(-3.16227e-05 -2.0801e-05 0.112341)
(-2.05594e-05 -1.99389e-05 0.112403)
(-2.22095e-05 -2.36296e-05 0.112457)
(-1.23609e-05 -2.41264e-05 0.112501)
(-1.11353e-05 -2.50198e-05 0.112529)
(-1.56738e-06 -2.51625e-05 0.112544)
(-0.000496892 -0.00034171 0.0753155)
(0.000379844 0.000149068 0.113454)
(-0.000146617 -0.000122928 0.114669)
(4.4524e-05 2.91522e-05 0.112566)
(-6.29767e-05 -3.36289e-05 0.11228)
(-6.39321e-06 -2.34778e-07 0.112316)
(-4.56043e-05 -2.11331e-05 0.112326)
(-2.35016e-05 -1.33231e-05 0.112358)
(-3.66807e-05 -2.25946e-05 0.112404)
(-2.35744e-05 -2.21025e-05 0.112458)
(-2.65456e-05 -2.67088e-05 0.112509)
(-1.53322e-05 -2.77225e-05 0.112551)
(-1.33294e-05 -2.97342e-05 0.11258)
(-2.09103e-06 -3.0151e-05 0.112596)
(-0.000178487 0.000118789 0.0939246)
(0.000101714 3.89855e-05 0.116076)
(-0.000121537 -4.30656e-05 0.113399)
(2.30991e-05 2.87242e-05 0.112297)
(-7.15515e-05 -2.31345e-05 0.11231)
(-1.52305e-05 5.08821e-06 0.112348)
(-5.24263e-05 -1.3971e-05 0.112366)
(-2.66442e-05 -5.49591e-06 0.112404)
(-4.04159e-05 -1.39775e-05 0.112449)
(-2.46875e-05 -1.19694e-05 0.112502)
(-2.78309e-05 -1.53729e-05 0.112553)
(-1.53896e-05 -1.50878e-05 0.112598)
(-1.35631e-05 -1.62337e-05 0.112631)
(-2.06557e-06 -1.61764e-05 0.112649)
(-0.00387032 0.000529321 0.0146142)
(-0.000274239 -9.78423e-05 0.0890443)
(0.00020776 4.40048e-05 0.11325)
(-0.000163896 -7.03969e-05 0.112505)
(7.14173e-05 1.28407e-05 0.1121)
(-8.65496e-05 -3.00891e-05 0.112228)
(2.88422e-06 -1.82214e-06 0.11232)
(-5.6304e-05 -1.50457e-05 0.112371)
(-2.34784e-05 -7.34963e-06 0.112425)
(-4.31638e-05 -1.28218e-05 0.112475)
(-2.49697e-05 -1.10583e-05 0.112529)
(-2.9662e-05 -1.35947e-05 0.112582)
(-1.61944e-05 -1.34556e-05 0.112632)
(-1.44184e-05 -1.45707e-05 0.112673)
(-2.06495e-06 -1.43521e-05 0.112698)
(-0.00490981 0.000176401 0.0213274)
(-0.00026844 3.42005e-05 0.0883869)
(0.000182638 -1.26521e-06 0.112805)
(-0.000157552 1.12468e-05 0.112265)
(6.73369e-05 4.55906e-06 0.111945)
(-8.76827e-05 3.93216e-06 0.112147)
(1.44812e-07 2.51282e-06 0.112291)
(-5.80554e-05 -1.19619e-07 0.112369)
(-2.43822e-05 1.10896e-07 0.112434)
(-4.41399e-05 -1.25818e-06 0.112489)
(-2.54613e-05 -1.18276e-06 0.112544)
(-3.02267e-05 -2.01116e-06 0.112597)
(-1.63636e-05 -1.88965e-06 0.11265)
(-1.44601e-05 -2.13501e-06 0.112698)
(-2.1067e-06 -2.01487e-06 0.112731)
(0.000528117 -0.00387104 0.0146083)
(0.00017858 -0.00491071 0.0213247)
(0.000617491 -0.00166025 0.0143315)
(-0.00363568 -0.00433711 0.0215668)
(-0.000343894 -0.000493638 0.0753122)
(0.000115523 -0.000171111 0.0939134)
(-9.45366e-05 -0.000267251 0.0890274)
(3.50805e-05 -0.000259249 0.088384)
(0.000944901 -0.00285216 0.0145753)
(-0.00432984 -0.00493934 0.026445)
(-0.00039167 -0.000335861 0.0721649)
(0.000189592 -0.000277077 0.0887113)
(0.000151364 0.000386321 0.11345)
(3.58859e-05 0.000101638 0.116063)
(5.5035e-05 0.000222633 0.113231)
(9.48374e-06 0.000186501 0.112802)
(-0.00235858 -0.00506647 0.0177306)
(-0.000401566 -0.000395758 0.0738565)
(3.00329e-05 -0.000369131 0.0877218)
(9.34159e-05 0.000269277 0.112208)
(-0.000178781 5.0445e-05 0.114007)
(-0.000129032 -0.000140685 0.114668)
(-3.97112e-05 -0.00011393 0.11339)
(-6.21731e-05 -0.000151865 0.112502)
(3.29069e-06 -0.000156326 0.112264)
(-0.000588032 -0.000467678 0.0706305)
(0.000230474 -0.000346909 0.0888443)
(0.000133154 0.00030833 0.112444)
(-9.94631e-05 8.88866e-05 0.113531)
(-5.43452e-05 -3.79013e-05 0.114188)
(6.75501e-05 -6.21669e-05 0.113069)
(3.64251e-05 5.06579e-05 0.112564)
(3.16114e-05 3.15633e-05 0.112294)
(1.79602e-05 7.60064e-05 0.112096)
(7.15293e-06 7.25325e-05 0.111946)
(-0.000469084 -0.000588139 0.0705874)
(0.000566948 0.000566909 0.112575)
(-0.0002907 5.41457e-05 0.113552)
(-3.65217e-06 -4.15653e-05 0.113717)
(-5.19076e-07 -9.56493e-05 0.112625)
(2.23287e-05 -3.96302e-06 0.112191)
(-2.32537e-05 -3.87725e-05 0.112179)
(-3.38506e-05 -5.65266e-05 0.112281)
(-2.12348e-05 -6.77206e-05 0.112307)
(-2.50597e-05 -8.08385e-05 0.112229)
(-1.17396e-06 -8.59713e-05 0.112147)
(-0.00506991 -0.00235681 0.017726)
(-0.000347118 0.000231725 0.0888183)
(5.32298e-05 -0.000289805 0.113543)
(2.04931e-05 2.10486e-05 0.11259)
(5.13173e-05 -2.54246e-06 0.11176)
(5.86052e-07 9.36902e-06 0.111813)
(9.01204e-07 -1.01207e-05 0.112002)
(9.71316e-06 -1.88786e-05 0.112195)
(3.3736e-06 6.02501e-07 0.112315)
(7.30101e-06 -2.75496e-06 0.112346)
(1.25082e-06 1.03692e-05 0.112319)
(2.58891e-06 1.05172e-05 0.11229)
(-0.00285284 0.00094513 0.0145753)
(-0.000396619 -0.000400584 0.0738492)
(0.000307205 0.000134647 0.11243)
(-4.32784e-05 -1.7898e-06 0.113709)
(-3.55083e-06 5.2142e-05 0.11176)
(-1.76951e-05 -1.63202e-05 0.11168)
(-1.16936e-05 -1.68912e-05 0.111929)
(-1.10238e-05 -2.23444e-05 0.112108)
(-1.44613e-05 -3.14712e-05 0.112239)
(-1.7889e-05 -3.81856e-05 0.112325)
(-1.15809e-05 -4.45573e-05 0.112363)
(-1.21271e-05 -4.86941e-05 0.112368)
(-1.19747e-06 -5.12219e-05 0.112366)
(-0.0049403 -0.00432949 0.0264449)
(-0.000370001 3.16538e-05 0.0877148)
(8.89324e-05 -9.83848e-05 0.113522)
(-9.70527e-05 -5.97002e-07 0.112619)
(8.40455e-06 1.10277e-06 0.111814)
(-1.7715e-05 -1.14359e-05 0.111931)
(-7.23488e-06 -6.50477e-06 0.112079)
(-1.39806e-05 -1.51759e-05 0.112188)
(-5.9557e-06 -1.71529e-05 0.112282)
(-9.50237e-06 -1.65381e-05 0.112355)
(-3.08445e-06 -1.76221e-05 0.1124)
(-5.30593e-06 -1.57411e-05 0.112421)
(2.4875e-07 -1.58519e-05 0.11243)
(-0.00166008 0.000616833 0.0143314)
(-0.00033617 -0.000390406 0.0721657)
(0.000267178 9.48838e-05 0.112206)
(-4.11268e-05 -5.2053e-05 0.114185)
(-6.12063e-06 2.52696e-05 0.112188)
(-1.07871e-05 1.85597e-06 0.112001)
(-2.353e-05 -9.90113e-06 0.112109)
(-1.54368e-05 -1.34703e-05 0.112188)
(-2.15073e-05 -2.1096e-05 0.112263)
(-1.57206e-05 -2.50457e-05 0.112337)
(-1.8308e-05 -3.00751e-05 0.112399)
(-1.08138e-05 -3.32277e-05 0.112444)
(-1.03956e-05 -3.58551e-05 0.11247)
(-1.30813e-06 -3.69981e-05 0.112483)
(-0.00433705 -0.00363509 0.0215668)
(-0.000278167 0.00018996 0.0887124)
(4.95969e-05 -0.000182228 0.114009)
(-6.0619e-05 6.81338e-05 0.113069)
(-4.14838e-05 -2.58986e-05 0.112179)
(-2.16845e-05 9.7109e-06 0.112194)
(-3.27545e-05 -1.49873e-05 0.112239)
(-1.86042e-05 -5.43648e-06 0.112282)
(-2.55592e-05 -1.58133e-05 0.112338)
(-1.49431e-05 -1.42418e-05 0.112398)
(-1.76743e-05 -1.75745e-05 0.112451)
(-8.85472e-06 -1.76311e-05 0.112494)
(-9.06024e-06 -1.83264e-05 0.112522)
(-8.62747e-07 -1.83381e-05 0.112536)
(-0.000497697 -0.00034299 0.0753178)
(0.000380169 0.000150611 0.113457)
(-0.000142607 -0.000122496 0.114672)
(4.83949e-05 3.20585e-05 0.112568)
(-5.92397e-05 -3.31072e-05 0.112282)
(2.0375e-06 2.32596e-06 0.112315)
(-3.88625e-05 -1.8251e-05 0.112324)
(-1.63681e-05 -9.68053e-06 0.112355)
(-3.03094e-05 -1.85862e-05 0.112399)
(-1.74833e-05 -1.75934e-05 0.112452)
(-2.1686e-05 -2.18814e-05 0.112502)
(-1.15633e-05 -2.25972e-05 0.112543)
(-1.1101e-05 -2.44341e-05 0.112572)
(-1.30733e-06 -2.48536e-05 0.112587)
(-0.000179912 0.000120383 0.0939267)
(0.000103399 4.05664e-05 0.116077)
(-0.000118428 -4.42336e-05 0.113399)
(2.74854e-05 3.07239e-05 0.112297)
(-6.71288e-05 -2.29495e-05 0.11231)
(-6.69636e-06 7.20903e-06 0.112346)
(-4.49771e-05 -1.20341e-05 0.112364)
(-1.8998e-05 -2.63141e-06 0.1124)
(-3.34829e-05 -1.08804e-05 0.112444)
(-1.82516e-05 -8.36574e-06 0.112495)
(-2.26792e-05 -1.15975e-05 0.112545)
(-1.14108e-05 -1.10453e-05 0.112589)
(-1.13161e-05 -1.20893e-05 0.112621)
(-1.24648e-06 -1.2048e-05 0.112639)
(-0.00386994 0.000530126 0.0146138)
(-0.000277228 -9.88275e-05 0.089046)
(0.000205448 4.30335e-05 0.11325)
(-0.000159364 -7.11199e-05 0.112509)
(7.67118e-05 1.42014e-05 0.1121)
(-8.2726e-05 -3.03641e-05 0.11223)
(1.30796e-05 -6.55819e-07 0.11232)
(-4.88188e-05 -1.37346e-05 0.112368)
(-1.51816e-05 -5.77392e-06 0.112421)
(-3.60517e-05 -1.09359e-05 0.11247)
(-1.81994e-05 -8.95828e-06 0.112522)
(-2.43632e-05 -1.13821e-05 0.112574)
(-1.20562e-05 -1.11849e-05 0.112623)
(-1.21041e-05 -1.22605e-05 0.112663)
(-1.22397e-06 -1.21032e-05 0.112687)
(-0.00490949 0.000173418 0.021326)
(-0.000267067 3.44171e-05 0.0883891)
(0.000185417 -2.17027e-06 0.112808)
(-0.000151977 1.31394e-05 0.112268)
(7.22051e-05 4.44034e-06 0.111946)
(-8.34982e-05 5.10918e-06 0.112148)
(1.02779e-05 2.69271e-06 0.11229)
(-5.02023e-05 8.26195e-07 0.112366)
(-1.6161e-05 6.06146e-07 0.112429)
(-3.66819e-05 -4.19834e-07 0.112483)
(-1.86986e-05 -3.05909e-07 0.112536)
(-2.49049e-05 -1.08478e-06 0.112588)
(-1.22877e-05 -9.72794e-07 0.11264)
(-1.22346e-05 -1.23544e-06 0.112688)
(-1.1895e-06 -1.03859e-06 0.112719)
(0.000528093 -0.00387104 0.0146088)
(0.000178386 -0.00491062 0.0213254)
(0.000617586 -0.00166025 0.0143318)
(-0.00363606 -0.00433718 0.0215672)
(-0.000344723 -0.000493191 0.0753154)
(0.000115502 -0.00016993 0.0939175)
(-9.47086e-05 -0.000266084 0.089031)
(3.46741e-05 -0.000257592 0.0883877)
(0.00094489 -0.00285224 0.0145758)
(-0.00432971 -0.00493945 0.0264456)
(-0.000391569 -0.000336089 0.0721673)
(0.000190127 -0.000276788 0.0887139)
(0.000152824 0.000387279 0.113454)
(3.68895e-05 0.000102314 0.116066)
(5.54887e-05 0.000223677 0.113234)
(1.00461e-05 0.000187885 0.112805)
(-0.00235844 -0.00506689 0.0177312)
(-0.000401603 -0.000395249 0.0738592)
(3.0341e-05 -0.000368479 0.0877247)
(9.33908e-05 0.000270944 0.112212)
(-0.000178869 5.19215e-05 0.114011)
(-0.000129614 -0.000137415 0.114672)
(-3.98311e-05 -0.000111089 0.113393)
(-6.1851e-05 -0.000148171 0.112505)
(3.12298e-06 -0.000152385 0.112267)
(-0.000587238 -0.000467381 0.0706328)
(0.000231422 -0.00034593 0.0888468)
(0.000134453 0.000309772 0.112448)
(-9.79372e-05 9.00232e-05 0.113534)
(-5.39105e-05 -3.55938e-05 0.114191)
(6.95798e-05 -5.90598e-05 0.113072)
(3.9274e-05 5.3641e-05 0.112566)
(3.30978e-05 3.54902e-05 0.112295)
(1.95437e-05 7.97065e-05 0.112097)
(8.02115e-06 7.62604e-05 0.111947)
(-0.000468755 -0.000587616 0.0705898)
(0.000567456 0.000567508 0.112579)
(-0.000289081 5.52087e-05 0.113556)
(-2.97073e-06 -4.00068e-05 0.113721)
(8.84307e-07 -9.35267e-05 0.112628)
(2.42761e-05 -1.00321e-06 0.112194)
(-2.26179e-05 -3.52577e-05 0.112181)
(-3.35958e-05 -5.33097e-05 0.112284)
(-2.06626e-05 -6.47369e-05 0.112309)
(-2.4957e-05 -7.7272e-05 0.112231)
(-1.3049e-06 -8.29391e-05 0.112149)
(-0.00507034 -0.00235666 0.0177266)
(-0.000346157 0.000232636 0.0888207)
(5.42647e-05 -0.000288194 0.113547)
(2.26137e-05 2.32248e-05 0.112593)
(5.37543e-05 2.08862e-07 0.111762)
(3.52388e-06 1.29771e-05 0.111815)
(2.72455e-06 -5.82973e-06 0.112003)
(1.19873e-05 -1.38012e-05 0.112195)
(5.68195e-06 7.09171e-06 0.112315)
(9.16479e-06 4.36367e-06 0.112346)
(2.92137e-06 1.77124e-05 0.112319)
(2.90708e-06 1.82218e-05 0.11229)
(-0.00285293 0.000945113 0.0145759)
(-0.000396114 -0.000400603 0.0738516)
(0.000308606 0.000135963 0.112434)
(-4.17041e-05 -1.03925e-06 0.113712)
(-7.88157e-07 5.47466e-05 0.111762)
(-1.55865e-05 -1.41003e-05 0.111681)
(-8.76143e-06 -1.34132e-05 0.11193)
(-7.61793e-06 -1.85897e-05 0.112109)
(-1.16356e-05 -2.63291e-05 0.112239)
(-1.56005e-05 -3.3202e-05 0.112323)
(-1.01657e-05 -3.88411e-05 0.112361)
(-1.145e-05 -4.33774e-05 0.112366)
(-9.43376e-07 -4.57645e-05 0.112364)
(-0.00494043 -0.00432941 0.0264456)
(-0.00036936 3.19593e-05 0.0877174)
(9.01266e-05 -9.68369e-05 0.113525)
(-9.47942e-05 8.40659e-07 0.112622)
(1.19982e-05 3.82268e-06 0.111815)
(-1.4405e-05 -8.47641e-06 0.111931)
(-2.77226e-06 -2.13033e-06 0.112079)
(-1.05017e-05 -1.06293e-05 0.112187)
(-2.45915e-06 -1.20321e-05 0.11228)
(-6.62743e-06 -1.0905e-05 0.112352)
(-8.85551e-07 -1.15792e-05 0.112397)
(-3.88846e-06 -9.06295e-06 0.112417)
(6.38712e-07 -8.92649e-06 0.112426)
(-0.00166007 0.00061689 0.0143318)
(-0.000336418 -0.000390246 0.0721675)
(0.000268856 9.49097e-05 0.112209)
(-3.87974e-05 -5.1676e-05 0.114187)
(-3.37684e-06 2.71909e-05 0.11219)
(-6.49259e-06 3.58753e-06 0.112001)
(-1.97579e-05 -6.30869e-06 0.112109)
(-1.09176e-05 -9.99304e-06 0.112187)
(-1.73537e-05 -1.68782e-05 0.112262)
(-1.18146e-05 -2.03211e-05 0.112334)
(-1.51019e-05 -2.49995e-05 0.112396)
(-8.35575e-06 -2.78062e-05 0.11244)
(-8.8371e-06 -3.0242e-05 0.112466)
(-7.86912e-07 -3.1311e-05 0.112479)
(-0.00433716 -0.00363566 0.0215674)
(-0.000277703 0.00019064 0.0887138)
(5.10331e-05 -0.00018264 0.114011)
(-5.75057e-05 7.0345e-05 0.113071)
(-3.78677e-05 -2.55134e-05 0.112179)
(-1.6412e-05 1.21972e-05 0.112194)
(-2.76909e-05 -1.24685e-05 0.112239)
(-1.35162e-05 -1.82409e-06 0.11228)
(-2.0833e-05 -1.19376e-05 0.112335)
(-1.05909e-05 -9.828e-06 0.112393)
(-1.41051e-05 -1.28327e-05 0.112447)
(-6.11971e-06 -1.25464e-05 0.112488)
(-7.37762e-06 -1.30575e-05 0.112516)
(-3.33371e-07 -1.30307e-05 0.11253)
(-0.000497374 -0.000344072 0.0753187)
(0.000381292 0.000151814 0.113458)
(-0.000139074 -0.000123141 0.114675)
(5.1475e-05 3.45353e-05 0.112568)
(-5.62189e-05 -3.27676e-05 0.112284)
(8.47244e-06 4.36733e-06 0.112316)
(-3.39562e-05 -1.59808e-05 0.112323)
(-1.04859e-05 -6.89191e-06 0.112352)
(-2.53525e-05 -1.54415e-05 0.112396)
(-1.2711e-05 -1.40776e-05 0.112447)
(-1.78096e-05 -1.80461e-05 0.112497)
(-8.5791e-06 -1.85185e-05 0.112537)
(-9.32023e-06 -2.02174e-05 0.112566)
(-7.33949e-07 -2.06623e-05 0.112581)
(-0.000179041 0.000120176 0.0939263)
(0.000105154 4.15777e-05 0.116075)
(-0.000115556 -4.48028e-05 0.113398)
(3.15694e-05 3.22578e-05 0.112298)
(-6.3949e-05 -2.26404e-05 0.11231)
(5.13783e-07 9.10396e-06 0.112346)
(-3.91581e-05 -1.07246e-05 0.112362)
(-1.3032e-05 -4.67177e-07 0.112396)
(-2.80266e-05 -8.43995e-06 0.11244)
(-1.32083e-05 -5.51109e-06 0.112489)
(-1.85467e-05 -8.60194e-06 0.112539)
(-8.29421e-06 -7.86629e-06 0.112582)
(-9.52103e-06 -8.84918e-06 0.112614)
(-7.00978e-07 -8.81651e-06 0.112631)
(-0.00386998 0.000530339 0.0146105)
(-0.000276376 -9.92618e-05 0.089042)
(0.000206803 4.31348e-05 0.113247)
(-0.000155268 -7.08682e-05 0.112511)
(8.06823e-05 1.57202e-05 0.1121)
(-7.93836e-05 -3.04711e-05 0.112232)
(2.05245e-05 9.28089e-07 0.11232)
(-4.36455e-05 -1.33229e-05 0.112365)
(-8.16532e-06 -4.58783e-06 0.112417)
(-3.0403e-05 -9.48337e-06 0.112465)
(-1.28713e-05 -7.31194e-06 0.112516)
(-2.01624e-05 -9.62778e-06 0.112568)
(-8.82729e-06 -9.38558e-06 0.112616)
(-1.02707e-05 -1.04364e-05 0.112656)
(-6.51094e-07 -1.04685e-05 0.112679)
(-0.00490998 0.000169649 0.0213266)
(-0.000264227 3.53469e-05 0.0883917)
(0.000188121 -1.82127e-06 0.112811)
(-0.000147758 1.41781e-05 0.11227)
(7.59413e-05 4.73893e-06 0.111947)
(-8.02916e-05 5.64239e-06 0.112149)
(1.80186e-05 2.81539e-06 0.11229)
(-4.47869e-05 1.54026e-06 0.112363)
(-9.1533e-06 9.9976e-07 0.112425)
(-3.07646e-05 1.75391e-07 0.112478)
(-1.33535e-05 2.8416e-07 0.11253)
(-2.06197e-05 -3.13991e-07 0.112581)
(-9.10164e-06 -2.83019e-07 0.112632)
(-1.06039e-05 -5.58226e-07 0.11268)
(-5.63058e-07 -3.30788e-07 0.11271)
(0.000528012 -0.00387098 0.0146093)
(0.000178126 -0.00491056 0.0213262)
(0.00061744 -0.00166034 0.0143321)
(-0.00363612 -0.0043374 0.0215677)
(-0.000345022 -0.000492678 0.075318)
(0.000115568 -0.000169111 0.0939207)
(-9.46545e-05 -0.000266002 0.089034)
(3.45538e-05 -0.000256723 0.088391)
(0.000944861 -0.00285235 0.0145761)
(-0.0043297 -0.00493929 0.0264463)
(-0.000391151 -0.000335779 0.0721691)
(0.00019066 -0.000276098 0.0887158)
(0.000154139 0.000388178 0.113456)
(3.74551e-05 0.000102807 0.116069)
(5.60034e-05 0.000224597 0.113237)
(1.09665e-05 0.000188743 0.112808)
(-0.00235854 -0.00506706 0.0177318)
(-0.000401856 -0.000394886 0.0738616)
(3.04475e-05 -0.000367815 0.0877271)
(9.33551e-05 0.000272333 0.112215)
(-0.000178903 5.31446e-05 0.114014)
(-0.000130013 -0.000134873 0.114675)
(-3.97064e-05 -0.000108772 0.113397)
(-6.14993e-05 -0.00014466 0.112509)
(2.93784e-06 -0.000149295 0.112271)
(-0.000587048 -0.000467472 0.0706346)
(0.000232127 -0.000345626 0.0888488)
(0.000135429 0.00031081 0.11245)
(-9.67961e-05 9.07938e-05 0.113536)
(-5.35449e-05 -3.35618e-05 0.114193)
(7.12352e-05 -5.67544e-05 0.113073)
(4.1724e-05 5.6128e-05 0.112567)
(3.46857e-05 3.84693e-05 0.112297)
(2.08842e-05 8.25322e-05 0.112097)
(8.58855e-06 7.89891e-05 0.111947)
(-0.000468885 -0.000587239 0.0705916)
(0.000567766 0.00056773 0.112583)
(-0.000287917 5.57846e-05 0.113559)
(-2.55345e-06 -3.89187e-05 0.113723)
(2.08707e-06 -9.20138e-05 0.11263)
(2.57355e-05 1.0272e-06 0.112196)
(-2.2153e-05 -3.28296e-05 0.112182)
(-3.33111e-05 -5.05073e-05 0.112286)
(-2.02254e-05 -6.23196e-05 0.11231)
(-2.48646e-05 -7.44242e-05 0.112233)
(-1.6144e-06 -8.03679e-05 0.112151)
(-0.00507052 -0.00235678 0.0177272)
(-0.00034586 0.000233382 0.0888226)
(5.48647e-05 -0.000287173 0.113549)
(2.42707e-05 2.49267e-05 0.112594)
(5.5664e-05 2.17231e-06 0.111763)
(5.59397e-06 1.59921e-05 0.111816)
(3.99749e-06 -2.52929e-06 0.112003)
(1.44096e-05 -9.64521e-06 0.112195)
(8.11405e-06 1.182e-05 0.112316)
(1.08187e-05 9.57924e-06 0.112346)
(4.4476e-06 2.29475e-05 0.112319)
(3.22049e-06 2.3911e-05 0.11229)
(-0.00285306 0.000945097 0.0145762)
(-0.000395698 -0.000400894 0.0738537)
(0.000309624 0.000136891 0.112436)
(-4.04901e-05 -6.09315e-07 0.113715)
(1.32005e-06 5.66913e-05 0.111764)
(-1.38674e-05 -1.23824e-05 0.111682)
(-6.22902e-06 -1.06909e-05 0.111931)
(-5.02229e-06 -1.5439e-05 0.112109)
(-9.74461e-06 -2.2226e-05 0.112238)
(-1.42638e-05 -2.97189e-05 0.112323)
(-9.23118e-06 -3.49139e-05 0.11236)
(-1.08951e-05 -3.98434e-05 0.112364)
(-7.7264e-07 -4.21669e-05 0.112362)
(-0.00494027 -0.00432942 0.0264463)
(-0.00036863 3.18564e-05 0.0877194)
(9.09894e-05 -9.56972e-05 0.113527)
(-9.31718e-05 1.9955e-06 0.112623)
(1.49516e-05 5.86447e-06 0.111815)
(-1.17166e-05 -5.8619e-06 0.111932)
(7.24577e-07 1.2378e-06 0.112078)
(-7.85201e-06 -7.0694e-06 0.112186)
(2.89103e-07 -8.06404e-06 0.112278)
(-4.37828e-06 -6.14443e-06 0.11235)
(8.22541e-07 -6.33331e-06 0.112394)
(-2.68554e-06 -3.25997e-06 0.112414)
(8.96308e-07 -2.96251e-06 0.112423)
(-0.00166021 0.0006168 0.0143322)
(-0.000336138 -0.000389894 0.0721687)
(0.000270424 9.48406e-05 0.112211)
(-3.65844e-05 -5.14742e-05 0.114188)
(-1.24847e-06 2.83858e-05 0.112191)
(-2.91942e-06 4.8287e-06 0.112002)
(-1.67061e-05 -3.42846e-06 0.112109)
(-7.43965e-06 -7.37528e-06 0.112186)
(-1.41574e-05 -1.35149e-05 0.112261)
(-8.72784e-06 -1.66138e-05 0.112332)
(-1.24897e-05 -2.09503e-05 0.112393)
(-6.38033e-06 -2.34278e-05 0.112437)
(-7.56554e-06 -2.57734e-05 0.112463)
(-4.28851e-07 -2.68483e-05 0.112475)
(-0.00433746 -0.00363588 0.021568)
(-0.00027665 0.000191199 0.0887147)
(5.23768e-05 -0.00018249 0.114013)
(-5.53286e-05 7.22296e-05 0.113072)
(-3.52042e-05 -2.49843e-05 0.112179)
(-1.177e-05 1.4568e-05 0.112194)
(-2.36203e-05 -1.09315e-05 0.112238)
(-9.53591e-06 8.26785e-07 0.112278)
(-1.70937e-05 -8.86579e-06 0.112332)
(-7.15856e-06 -6.37412e-06 0.11239)
(-1.11876e-05 -9.04686e-06 0.112443)
(-3.99381e-06 -8.52551e-06 0.112484)
(-6.09101e-06 -8.94658e-06 0.112511)
(-1.1531e-08 -8.88576e-06 0.112525)
(-0.000495661 -0.000344405 0.0753191)
(0.000383183 0.000152855 0.113459)
(-0.000136021 -0.000124379 0.114677)
(5.39842e-05 3.68021e-05 0.112568)
(-5.36106e-05 -3.24769e-05 0.112286)
(1.30574e-05 6.54426e-06 0.112316)
(-3.06158e-05 -1.46951e-05 0.112322)
(-5.46784e-06 -4.77458e-06 0.11235)
(-2.13517e-05 -1.28915e-05 0.112394)
(-8.90991e-06 -1.12412e-05 0.112444)
(-1.46309e-05 -1.49278e-05 0.112493)
(-6.27925e-06 -1.52748e-05 0.112532)
(-7.92507e-06 -1.68561e-05 0.112561)
(-3.3122e-07 -1.72443e-05 0.112576)
(-0.00017565 0.000118134 0.0939249)
(0.000106405 4.21244e-05 0.116073)
(-0.000112937 -4.48876e-05 0.113398)
(3.52224e-05 3.33755e-05 0.112297)
(-6.13763e-05 -2.22174e-05 0.11231)
(6.16165e-06 1.071e-05 0.112345)
(-3.5139e-05 -9.8041e-06 0.112359)
(-7.78536e-06 1.18031e-06 0.112393)
(-2.35653e-05 -6.50155e-06 0.112437)
(-9.2071e-06 -3.29361e-06 0.112485)
(-1.52216e-05 -6.29222e-06 0.112534)
(-5.92524e-06 -5.45114e-06 0.112576)
(-8.06015e-06 -6.3412e-06 0.112608)
(-3.23934e-07 -6.2089e-06 0.112626)
(-0.0038706 0.00053026 0.0146082)
(-0.000272257 -9.87166e-05 0.089038)
(0.000211267 4.44199e-05 0.113244)
(-0.000151684 -6.99828e-05 0.112513)
(8.3683e-05 1.71748e-05 0.112099)
(-7.63187e-05 -3.03034e-05 0.112234)
(2.56155e-05 2.46683e-06 0.112319)
(-4.02675e-05 -1.30523e-05 0.112364)
(-2.1274e-06 -3.55037e-06 0.112414)
(-2.58307e-05 -8.39694e-06 0.112462)
(-8.69838e-06 -6.09828e-06 0.112512)
(-1.67863e-05 -8.29209e-06 0.112563)
(-6.329e-06 -7.93033e-06 0.11261)
(-8.68282e-06 -8.87285e-06 0.11265)
(-2.26897e-07 -8.8837e-06 0.112673)
(-0.00491053 0.000172561 0.0213265)
(-0.000263148 3.64094e-05 0.0883942)
(0.000188849 -3.52877e-07 0.112812)
(-0.000145225 1.41913e-05 0.112271)
(7.88852e-05 5.5621e-06 0.111947)
(-7.76652e-05 5.43933e-06 0.11215)
(2.378e-05 3.03749e-06 0.112289)
(-4.12752e-05 1.99638e-06 0.112361)
(-3.08954e-06 1.36449e-06 0.112422)
(-2.61264e-05 5.88299e-07 0.112475)
(-9.1027e-06 6.28137e-07 0.112525)
(-1.7053e-05 2.07045e-07 0.112576)
(-6.50508e-06 3.02598e-07 0.112626)
(-9.01356e-06 3.92111e-08 0.112674)
(-1.01787e-07 2.52139e-07 0.112704)
(0.000527955 -0.00387093 0.0146095)
(0.000178075 -0.00491054 0.0213266)
(0.000617295 -0.0016604 0.0143325)
(-0.00363622 -0.00433752 0.0215683)
(-0.0003452 -0.000491952 0.07532)
(0.000115726 -0.000168049 0.0939233)
(-9.4442e-05 -0.000265306 0.0890365)
(3.45274e-05 -0.000256338 0.0883938)
(0.000944859 -0.00285233 0.0145765)
(-0.00432984 -0.00493931 0.026447)
(-0.000390769 -0.000335655 0.0721706)
(0.000191046 -0.000275615 0.0887174)
(0.000155316 0.000388887 0.113458)
(3.84755e-05 0.000103164 0.11607)
(5.63967e-05 0.000225054 0.113239)
(1.12802e-05 0.000189033 0.11281)
(-0.00235868 -0.00506711 0.0177322)
(-0.000402214 -0.000395008 0.0738635)
(3.04189e-05 -0.000367353 0.087729)
(9.3359e-05 0.000273304 0.112217)
(-0.000178906 5.39408e-05 0.114016)
(-0.000130386 -0.000132923 0.114677)
(-3.97276e-05 -0.000107113 0.113399)
(-6.12163e-05 -0.000142933 0.112511)
(2.88646e-06 -0.000147182 0.112273)
(-0.000587092 -0.000467882 0.0706361)
(0.000232754 -0.000345692 0.0888503)
(0.000136205 0.000311367 0.112452)
(-9.58777e-05 9.13983e-05 0.113537)
(-5.32609e-05 -3.18864e-05 0.114194)
(7.25871e-05 -5.51073e-05 0.113075)
(4.37532e-05 5.80613e-05 0.112568)
(3.55103e-05 4.06305e-05 0.112297)
(2.17717e-05 8.47479e-05 0.112098)
(9.29328e-06 8.12179e-05 0.111947)
(-0.000469244 -0.000587479 0.0705931)
(0.000567902 0.000567826 0.112585)
(-0.000287069 5.61108e-05 0.113561)
(-2.1438e-06 -3.8092e-05 0.113725)
(3.17217e-06 -9.08645e-05 0.112633)
(2.67689e-05 2.2846e-06 0.112198)
(-2.1854e-05 -3.09522e-05 0.112183)
(-3.31703e-05 -4.81646e-05 0.112287)
(-1.99968e-05 -6.02383e-05 0.112312)
(-2.45415e-05 -7.15125e-05 0.112234)
(-1.67962e-06 -7.7945e-05 0.112152)
(-0.00507059 -0.00235694 0.0177276)
(-0.000345903 0.000233926 0.0888241)
(5.52417e-05 -0.000286491 0.113551)
(2.56702e-05 2.63228e-05 0.112596)
(5.72548e-05 3.58896e-06 0.111765)
(6.93592e-06 1.83728e-05 0.111817)
(5.01395e-06 -1.17193e-08 0.112003)
(1.68465e-05 -6.71798e-06 0.112195)
(1.0341e-05 1.53855e-05 0.112316)
(1.22253e-05 1.34428e-05 0.112346)
(5.69995e-06 2.69925e-05 0.112319)
(3.54021e-06 2.80245e-05 0.11229)
(-0.00285308 0.000945128 0.0145766)
(-0.000395719 -0.000401344 0.0738554)
(0.000310265 0.000137547 0.112438)
(-3.9502e-05 -3.36021e-07 0.113717)
(2.89993e-06 5.80672e-05 0.111765)
(-1.24761e-05 -1.11061e-05 0.111683)
(-4.04231e-06 -8.73786e-06 0.111932)
(-3.44165e-06 -1.287e-05 0.112109)
(-8.3988e-06 -1.92745e-05 0.112237)
(-1.31929e-05 -2.72916e-05 0.112322)
(-8.53145e-06 -3.23466e-05 0.112358)
(-1.03285e-05 -3.76279e-05 0.112363)
(-7.14792e-07 -4.00345e-05 0.112361)
(-0.00494028 -0.00432956 0.0264471)
(-0.000368051 3.14261e-05 0.087721)
(9.16405e-05 -9.48089e-05 0.113528)
(-9.20713e-05 3.09421e-06 0.112625)
(1.73541e-05 7.49904e-06 0.111816)
(-9.54754e-06 -3.8166e-06 0.111933)
(3.3558e-06 3.73526e-06 0.112078)
(-5.8392e-06 -4.18963e-06 0.112185)
(2.57864e-06 -4.547e-06 0.112276)
(-2.54084e-06 -2.03004e-06 0.112349)
(2.02131e-06 -1.66475e-06 0.112392)
(-1.86167e-06 1.77004e-06 0.112412)
(1.07315e-06 2.1943e-06 0.112421)
(-0.00166032 0.000616781 0.0143326)
(-0.000336104 -0.000389672 0.0721698)
(0.000271691 9.48106e-05 0.112213)
(-3.43519e-05 -5.14029e-05 0.11419)
(4.87003e-07 2.89518e-05 0.112193)
(-3.963e-07 6.05023e-06 0.112002)
(-1.4447e-05 -1.57143e-06 0.112109)
(-4.41723e-06 -5.44272e-06 0.112185)
(-1.15567e-05 -1.06659e-05 0.11226)
(-6.15002e-06 -1.3561e-05 0.11233)
(-1.0269e-05 -1.7656e-05 0.112392)
(-4.7655e-06 -1.98517e-05 0.112434)
(-6.5118e-06 -2.2098e-05 0.11246)
(-2.02049e-07 -2.31342e-05 0.112473)
(-0.00433763 -0.0036361 0.0215687)
(-0.00027576 0.00019154 0.0887154)
(5.33922e-05 -0.000181772 0.114015)
(-5.40691e-05 7.36448e-05 0.113072)
(-3.29617e-05 -2.41651e-05 0.11218)
(-8.07459e-06 1.65607e-05 0.112194)
(-2.0736e-05 -9.68638e-06 0.112236)
(-5.91326e-06 2.74873e-06 0.112276)
(-1.39599e-05 -6.24987e-06 0.11233)
(-4.42597e-06 -3.65683e-06 0.112387)
(-8.82993e-06 -6.08123e-06 0.11244)
(-2.41569e-06 -5.44012e-06 0.11248)
(-5.1304e-06 -5.85641e-06 0.112508)
(1.84197e-07 -5.70035e-06 0.112521)
(-0.000493722 -0.000344734 0.0753198)
(0.000385103 0.000153722 0.113459)
(-0.000133684 -0.000126107 0.114678)
(5.6225e-05 3.89587e-05 0.112568)
(-5.13052e-05 -3.22548e-05 0.112287)
(1.60117e-05 8.53363e-06 0.112315)
(-2.84197e-05 -1.3745e-05 0.112321)
(-1.07152e-06 -3.13928e-06 0.112348)
(-1.79536e-05 -1.07242e-05 0.112392)
(-5.98228e-06 -8.98485e-06 0.112441)
(-1.20427e-05 -1.24391e-05 0.11249)
(-4.54015e-06 -1.26705e-05 0.112529)
(-6.77167e-06 -1.41076e-05 0.112557)
(-1.27383e-08 -1.43283e-05 0.112572)