/*--------------------------------*- C++ -*----------------------------------*\
| =========                 |                                                 |
| \\      /  F ield         | OpenFOAM: The Open Source CFD Toolbox           |
|  \\    /   O peration     | Version:  2.1.1                                 |
|   \\  /    A nd           | Web:      www.OpenFOAM.org                      |
|    \\/     M anipulation  |                                                 |
\*---------------------------------------------------------------------------*/
FoamFile
{
    version     2.0;
    format      ascii;
    class       volScalarField;
    location    "0.005";
    object      p;
}
// * * * * * * * * * * * * * * * * * * * * * * * * * * * * * * * * * * * * * //

dimensions      [0 2 -2 0 0 0 0];

internalField   nonuniform List<scalar> 
163952
(
0.0501198
0.0495436
0.0448077
0.0396126
0.0384153
0.0358039
0.0352143
0.034891
0.045128
0.0407857
0.0357441
0.0332549
0.0320121
0.031234
0.0309205
0.0307797
0.042159
0.0364221
0.0329194
0.0312811
0.0303701
0.0298338
0.0294965
0.0293173
0.0292323
0.0420279
0.0345302
0.0316976
0.0303532
0.0296003
0.0291238
0.0288061
0.0285961
0.028471
0.0284081
0.0420292
0.0339883
0.0311741
0.0298987
0.0291869
0.028726
0.0284045
0.0281758
0.0280179
0.0279184
0.0278666
0.0421592
0.0345303
0.031174
0.0297557
0.0289968
0.0285115
0.0281691
0.0279177
0.0277331
0.0276025
0.0275179
0.027473
0.0451277
0.0364221
0.0316975
0.0298987
0.0289968
0.0284424
0.0280577
0.0277741
0.0275609
0.0274021
0.0272885
0.0272139
0.0271739
0.0407858
0.0329194
0.0303532
0.0291869
0.0285115
0.0280577
0.0277277
0.0274789
0.0272898
0.0271481
0.0270462
0.0269787
0.0269423
0.0448077
0.0357441
0.0312811
0.0296003
0.028726
0.0281691
0.0277741
0.0274789
0.0272535
0.0270812
0.0269515
0.0268578
0.0267955
0.0267618
0.0396127
0.0332549
0.0303701
0.0291238
0.0284045
0.0279177
0.0275609
0.0272898
0.0270812
0.0269209
0.0267999
0.0267122
0.0266537
0.0266219
0.0384153
0.0320121
0.0298338
0.0288061
0.0281758
0.0277331
0.0274021
0.0271481
0.0269515
0.0267999
0.0266851
0.0266016
0.0265459
0.0265156
0.0358039
0.031234
0.0294965
0.0285961
0.0280179
0.0276025
0.0272885
0.0270461
0.0268578
0.0267122
0.0266016
0.0265211
0.0264672
0.0264379
0.0501197
0.0352143
0.0309205
0.0293173
0.028471
0.0279184
0.0275179
0.0272139
0.0269787
0.0267955
0.0266537
0.0265459
0.0264672
0.0264146
0.0263859
0.0495436
0.034891
0.0307797
0.0292323
0.0284081
0.0278666
0.027473
0.0271739
0.0269423
0.0267618
0.0266219
0.0265156
0.0264379
0.0263859
0.0263576
0.0319461
0.0320028
0.030941
0.0321498
0.0308789
0.0305646
0.0305204
0.0304998
0.0310459
0.0328595
0.030545
0.0302342
0.0299752
0.0297859
0.0297122
0.0296609
0.031824
0.0305972
0.0301812
0.0297716
0.0294331
0.0291564
0.0289732
0.0288782
0.0288293
0.0305663
0.0302776
0.0298431
0.0294049
0.029015
0.0287063
0.0284721
0.0283139
0.0282228
0.028179
0.0305669
0.0301491
0.0296603
0.02916
0.0287364
0.0283969
0.0281399
0.0279505
0.0278202
0.0277408
0.0277028
0.0318242
0.0302778
0.0296603
0.0290806
0.0285957
0.0282212
0.027935
0.0277195
0.0275605
0.0274495
0.02738
0.0273464
0.031046
0.0305972
0.0298431
0.02916
0.0285957
0.0281632
0.0278372
0.0275897
0.0274025
0.0272638
0.0271659
0.0271038
0.0270736
0.0328595
0.0301812
0.0294049
0.0287364
0.0282212
0.0278372
0.0275477
0.0273271
0.0271595
0.0270347
0.0269461
0.0268893
0.0268616
0.030941
0.030545
0.0297716
0.0290151
0.0283969
0.027935
0.0275897
0.0273271
0.0271258
0.026972
0.026857
0.0267749
0.026722
0.0266962
0.0321498
0.0302342
0.0294331
0.0287063
0.0281399
0.0277195
0.0274025
0.0271596
0.026972
0.0268281
0.0267199
0.0266425
0.0265926
0.0265681
0.0308789
0.0299753
0.0291564
0.0284721
0.0279505
0.0275605
0.0272638
0.0270347
0.026857
0.0267199
0.0266167
0.0265426
0.0264947
0.0264712
0.0305646
0.0297859
0.0289732
0.0283139
0.0278202
0.0274495
0.0271659
0.0269461
0.0267749
0.0266425
0.0265426
0.0264708
0.0264244
0.0264016
0.0319461
0.0305204
0.0297122
0.0288782
0.0282228
0.0277408
0.02738
0.0271038
0.0268893
0.026722
0.0265926
0.0264947
0.0264244
0.0263788
0.0263564
0.0320028
0.0304998
0.0296609
0.0288293
0.028179
0.0277028
0.0273464
0.0270736
0.0268616
0.0266962
0.0265681
0.0264712
0.0264016
0.0263564
0.0263342
0.028303
0.0283171
0.0283825
0.0287638
0.0289811
0.0288645
0.0287575
0.028717
0.0283894
0.0292324
0.0287762
0.0286998
0.0286072
0.0285705
0.0285426
0.0285177
0.0285999
0.0287906
0.0286922
0.0285747
0.0284413
0.0282999
0.0282108
0.0281573
0.0281277
0.0289409
0.0287251
0.0286032
0.0284277
0.0282401
0.0280776
0.0279404
0.0278422
0.0277812
0.0277505
0.0289417
0.0286813
0.0285324
0.0283158
0.0280957
0.0278969
0.0277337
0.0276045
0.0275114
0.0274525
0.0274234
0.0286
0.0287253
0.0285324
0.0282789
0.0280184
0.0277892
0.0275961
0.0274403
0.0273195
0.0272323
0.0271765
0.0271491
0.0283894
0.0287907
0.0286033
0.0283158
0.0280185
0.0277524
0.0275279
0.0273436
0.0271967
0.0270839
0.0270024
0.0269499
0.0269241
0.0292324
0.0286922
0.0284277
0.0280957
0.0277892
0.0275279
0.0273117
0.0271365
0.0269981
0.0268921
0.0268156
0.026766
0.0267416
0.0283825
0.0287762
0.0285748
0.0282401
0.0278969
0.0275961
0.0273436
0.0271365
0.0269699
0.0268385
0.0267381
0.0266655
0.0266183
0.0265952
0.0287638
0.0286998
0.0284414
0.0280777
0.0277337
0.0274403
0.0271967
0.0269981
0.0268385
0.0267128
0.0266167
0.0265471
0.0265019
0.0264796
0.0289811
0.0286072
0.0282999
0.0279404
0.0276045
0.0273195
0.0270839
0.0268921
0.0267381
0.0266167
0.0265238
0.0264565
0.0264127
0.0263911
0.0288645
0.0285705
0.0282108
0.0278422
0.0275115
0.0272323
0.0270024
0.0268156
0.0266655
0.0265471
0.0264565
0.0263908
0.026348
0.0263269
0.028303
0.0287575
0.0285426
0.0281574
0.0277812
0.0274525
0.0271765
0.0269499
0.026766
0.0266183
0.0265019
0.0264127
0.026348
0.0263059
0.0262851
0.0283171
0.028717
0.0285177
0.0281277
0.0277505
0.0274234
0.0271491
0.0269241
0.0267416
0.0265952
0.0264796
0.0263911
0.0263269
0.0262851
0.0262645
0.0269629
0.0269722
0.0270813
0.0273057
0.0276245
0.0276203
0.0275668
0.027544
0.0270961
0.0275182
0.0275445
0.0275326
0.0275057
0.0275097
0.0275106
0.0275079
0.0272366
0.0275497
0.0275375
0.0275342
0.02751
0.0274627
0.0274303
0.0274073
0.0273942
0.0276568
0.027554
0.0275506
0.0275063
0.0274465
0.0273874
0.0273283
0.027281
0.0272479
0.0272304
0.0276573
0.0275363
0.0275351
0.027479
0.0273968
0.0273089
0.0272268
0.0271547
0.0270993
0.0270621
0.0270432
0.0272366
0.0275541
0.0275351
0.0274693
0.0273686
0.0272583
0.0271519
0.0270574
0.0269787
0.0269193
0.02688
0.0268603
0.0270962
0.0275497
0.0275507
0.0274791
0.0273686
0.0272405
0.0271128
0.0269961
0.0268962
0.0268154
0.0267551
0.0267153
0.0266954
0.0275182
0.0275375
0.0275063
0.0273968
0.0272584
0.0271128
0.0269754
0.0268542
0.0267528
0.0266721
0.0266121
0.0265726
0.0265529
0.0270813
0.0275445
0.0275342
0.0274465
0.0273089
0.0271519
0.0269961
0.0268542
0.0267319
0.0266307
0.0265508
0.0264918
0.0264528
0.0264335
0.0273058
0.0275327
0.02751
0.0273874
0.0272268
0.0270574
0.0268962
0.0267528
0.0266307
0.0265306
0.0264518
0.0263937
0.0263555
0.0263365
0.0276245
0.0275057
0.0274627
0.0273283
0.0271547
0.0269787
0.0268154
0.0266721
0.0265508
0.0264518
0.0263741
0.0263169
0.0262793
0.0262606
0.0276203
0.0275097
0.0274303
0.027281
0.0270993
0.0269193
0.0267551
0.0266121
0.0264918
0.0263937
0.0263169
0.0262604
0.0262232
0.0262048
0.0269629
0.0275668
0.0275106
0.0274073
0.0272479
0.0270621
0.02688
0.0267153
0.0265726
0.0264528
0.0263555
0.0262793
0.0262232
0.0261864
0.0261681
0.0269722
0.027544
0.0275079
0.0273942
0.0272304
0.0270432
0.0268603
0.0266954
0.0265529
0.0264335
0.0263365
0.0262606
0.0262048
0.0261681
0.0261499
0.0262674
0.0262735
0.0263313
0.0264744
0.0266693
0.0267043
0.0266917
0.0266881
0.0263556
0.0265779
0.0266624
0.0266789
0.0266853
0.0266993
0.0267094
0.0267148
0.0264434
0.0266661
0.0266882
0.0267235
0.0267467
0.0267516
0.0267528
0.0267497
0.0267468
0.0267066
0.0266871
0.0267302
0.0267494
0.0267574
0.0267566
0.026746
0.0267331
0.0267213
0.0267143
0.0267069
0.0266832
0.0267404
0.0267635
0.0267604
0.0267423
0.0267154
0.0266852
0.0266589
0.0266398
0.0266296
0.0264434
0.0266872
0.0267403
0.0267683
0.0267607
0.0267291
0.0266856
0.026639
0.0265956
0.0265605
0.0265362
0.0265237
0.0263557
0.0266661
0.0267303
0.0267635
0.0267607
0.026724
0.0266682
0.0266065
0.0265475
0.0264962
0.0264561
0.0264288
0.026415
0.0265779
0.0266882
0.0267494
0.0267604
0.0267291
0.0266683
0.0265951
0.0265218
0.0264553
0.0263994
0.0263565
0.0263276
0.026313
0.0263313
0.0266624
0.0267235
0.0267574
0.0267423
0.0266856
0.0266065
0.0265218
0.0264412
0.0263704
0.0263119
0.0262675
0.0262377
0.0262227
0.0264744
0.0266789
0.0267467
0.0267566
0.0267154
0.026639
0.0265475
0.0264553
0.0263704
0.0262969
0.0262371
0.0261919
0.0261616
0.0261465
0.0266693
0.0266853
0.0267516
0.026746
0.0266852
0.0265956
0.0264962
0.0263995
0.0263119
0.0262371
0.0261765
0.0261309
0.0261005
0.0260852
0.0267043
0.0266993
0.0267528
0.0267331
0.0266589
0.0265605
0.0264561
0.0263565
0.0262675
0.0261919
0.0261309
0.0260851
0.0260546
0.0260394
0.0262674
0.0266917
0.0267094
0.0267497
0.0267213
0.0266398
0.0265362
0.0264288
0.0263276
0.0262377
0.0261616
0.0261005
0.0260546
0.0260241
0.0260088
0.0262735
0.0266881
0.0267148
0.0267468
0.0267143
0.0266296
0.0265237
0.026415
0.026313
0.0262227
0.0261465
0.0260852
0.0260394
0.0260088
0.0259936
0.0258001
0.0258036
0.0258245
0.0259073
0.0260021
0.0260393
0.0260392
0.0260419
0.0258449
0.0259704
0.0260206
0.0260445
0.0260638
0.0260821
0.0260933
0.0260994
0.0258953
0.0260242
0.0260555
0.0260977
0.0261344
0.0261597
0.0261773
0.0261857
0.0261889
0.0260366
0.0260476
0.0260988
0.0261401
0.0261763
0.0262026
0.0262175
0.0262248
0.0262269
0.026227
0.0260368
0.0260521
0.0261177
0.026169
0.0262034
0.0262234
0.02623
0.0262275
0.0262216
0.0262157
0.0262121
0.0258953
0.0260477
0.0261177
0.0261795
0.0262174
0.026232
0.0262298
0.0262172
0.0262002
0.0261841
0.0261718
0.0261653
0.0258449
0.0260242
0.0260988
0.026169
0.0262174
0.0262345
0.0262273
0.0262059
0.0261787
0.0261514
0.0261283
0.0261118
0.0261032
0.0259704
0.0260555
0.0261402
0.0262034
0.026232
0.0262273
0.0262014
0.0261658
0.0261284
0.0260942
0.0260664
0.0260471
0.0260372
0.0258246
0.0260206
0.0260977
0.0261763
0.0262234
0.0262298
0.0262059
0.0261658
0.0261202
0.0260758
0.0260369
0.0260061
0.025985
0.0259742
0.0259073
0.0260445
0.0261344
0.0262026
0.02623
0.0262172
0.0261787
0.0261284
0.0260758
0.0260268
0.0259848
0.025952
0.0259297
0.0259183
0.0260021
0.0260638
0.0261597
0.0262175
0.0262275
0.0262002
0.0261514
0.0260942
0.0260369
0.0259848
0.0259408
0.0259067
0.0258836
0.0258719
0.0260393
0.0260821
0.0261774
0.0262248
0.0262216
0.0261841
0.0261283
0.0260664
0.0260061
0.025952
0.0259067
0.0258719
0.0258482
0.0258363
0.0258001
0.0260392
0.0260933
0.0261858
0.0262269
0.0262157
0.0261718
0.0261118
0.0260471
0.025985
0.0259297
0.0258836
0.0258482
0.0258243
0.0258123
0.0258036
0.0260419
0.0260994
0.0261889
0.026227
0.0262121
0.0261653
0.0261032
0.0260372
0.0259742
0.0259183
0.0258719
0.0258363
0.0258123
0.0258002
0.0254272
0.0254307
0.0254336
0.0254799
0.02551
0.0255394
0.0255418
0.0255454
0.0254495
0.0255245
0.0255346
0.0255551
0.0255747
0.0255933
0.025604
0.0256099
0.0254772
0.0255383
0.0255665
0.0256037
0.0256389
0.0256677
0.0256902
0.0257034
0.0257094
0.02554
0.0255576
0.0256026
0.0256459
0.0256885
0.0257238
0.0257492
0.025766
0.0257753
0.0257793
0.0255401
0.0255641
0.0256212
0.0256763
0.0257235
0.02576
0.0257837
0.0257969
0.0258035
0.0258061
0.0258068
0.0254772
0.0255576
0.0256212
0.0256876
0.0257422
0.0257794
0.0258005
0.025809
0.0258096
0.0258068
0.0258033
0.0258011
0.0254495
0.0255383
0.0256026
0.0256763
0.0257422
0.0257857
0.0258069
0.0258118
0.0258068
0.0257972
0.0257871
0.025779
0.0257747
0.0255245
0.0255665
0.0256459
0.0257235
0.0257794
0.0258069
0.025812
0.0258033
0.0257878
0.0257706
0.0257552
0.0257439
0.025738
0.0254336
0.0255346
0.0256037
0.0256885
0.02576
0.0258005
0.0258118
0.0258033
0.0257841
0.0257609
0.0257382
0.0257191
0.0257054
0.0256984
0.0254799
0.0255551
0.0256389
0.0257238
0.0257837
0.025809
0.0258068
0.0257878
0.0257609
0.0257321
0.0257055
0.0256838
0.0256685
0.0256607
0.02551
0.0255747
0.0256677
0.0257492
0.0257969
0.0258096
0.0257972
0.0257706
0.0257382
0.0257055
0.0256762
0.0256527
0.0256363
0.0256279
0.0255394
0.0255933
0.0256902
0.025766
0.0258035
0.0258068
0.0257871
0.0257552
0.0257191
0.0256838
0.0256527
0.0256279
0.0256107
0.025602
0.0254271
0.0255418
0.025604
0.0257034
0.0257753
0.0258061
0.0258033
0.025779
0.0257439
0.0257054
0.0256685
0.0256363
0.0256107
0.0255931
0.0255842
0.0254307
0.0255454
0.0256099
0.0257094
0.0257793
0.0258068
0.0258011
0.0257747
0.025738
0.0256984
0.0256607
0.0256279
0.025602
0.0255842
0.0255751
0.0251061
0.0251097
0.0251083
0.0251328
0.0251246
0.0251451
0.0251476
0.0251506
0.0251203
0.0251661
0.0251483
0.0251627
0.0251781
0.0251938
0.0252031
0.0252084
0.0251352
0.0251521
0.0251738
0.0252027
0.0252315
0.0252567
0.0252778
0.0252912
0.0252977
0.0251498
0.0251659
0.0252013
0.0252387
0.0252777
0.0253121
0.0253389
0.0253583
0.02537
0.0253755
0.0251498
0.0251716
0.0252165
0.0252652
0.0253117
0.0253514
0.0253809
0.0254008
0.0254134
0.0254204
0.0254235
0.0251352
0.0251659
0.0252165
0.0252751
0.0253301
0.0253741
0.025405
0.0254242
0.0254347
0.0254398
0.0254418
0.0254424
0.0251203
0.0251521
0.0252013
0.0252652
0.0253301
0.0253816
0.0254157
0.0254348
0.0254432
0.0254451
0.0254438
0.0254417
0.0254403
0.0251661
0.0251738
0.0252387
0.0253117
0.0253741
0.0254157
0.0254378
0.0254458
0.025445
0.0254399
0.0254337
0.0254285
0.0254255
0.0251083
0.0251483
0.0252027
0.0252777
0.0253514
0.025405
0.0254348
0.0254458
0.0254445
0.0254366
0.0254261
0.0254162
0.0254085
0.0254044
0.0251328
0.0251627
0.0252315
0.0253121
0.0253809
0.0254242
0.0254432
0.025445
0.0254366
0.0254232
0.0254088
0.025396
0.0253867
0.0253817
0.0251246
0.0251781
0.0252567
0.0253389
0.0254008
0.0254347
0.0254451
0.0254399
0.0254261
0.0254088
0.0253915
0.0253768
0.0253661
0.0253606
0.0251451
0.0251938
0.0252778
0.0253583
0.0254134
0.0254398
0.0254438
0.0254337
0.0254162
0.025396
0.0253768
0.0253606
0.0253491
0.0253432
0.025106
0.0251476
0.0252031
0.0252912
0.02537
0.0254204
0.0254418
0.0254417
0.0254285
0.0254085
0.0253867
0.0253661
0.0253491
0.0253371
0.0253309
0.0251096
0.0251507
0.0252084
0.0252977
0.0253755
0.0254235
0.0254424
0.0254403
0.0254255
0.0254044
0.0253817
0.0253606
0.0253432
0.0253309
0.0253246
0.0248177
0.0248207
0.0248211
0.0248322
0.0248026
0.0248159
0.0248179
0.02482
0.0248297
0.0248582
0.0248232
0.0248325
0.0248433
0.024855
0.0248623
0.0248665
0.024838
0.024827
0.0248427
0.0248639
0.0248855
0.0249051
0.0249222
0.0249337
0.0249395
0.0248241
0.0248369
0.0248631
0.0248925
0.0249241
0.0249532
0.0249769
0.0249948
0.0250061
0.0250116
0.0248241
0.0248414
0.0248748
0.0249138
0.0249534
0.0249892
0.0250177
0.0250384
0.0250525
0.025061
0.0250649
0.024838
0.0248369
0.0248747
0.0249217
0.0249694
0.0250109
0.0250429
0.0250654
0.0250799
0.0250888
0.0250937
0.0250958
0.0248297
0.024827
0.0248631
0.0249137
0.0249694
0.0250182
0.0250548
0.0250793
0.0250941
0.0251022
0.0251061
0.0251077
0.0251082
0.0248582
0.0248428
0.0248925
0.0249534
0.0250109
0.0250548
0.0250835
0.0250999
0.0251077
0.0251102
0.02511
0.0251089
0.0251081
0.0248211
0.0248232
0.0248639
0.0249241
0.0249892
0.0250429
0.0250793
0.0250999
0.0251091
0.0251111
0.025109
0.0251055
0.0251023
0.0251004
0.0248322
0.0248325
0.0248855
0.0249532
0.0250177
0.0250654
0.0250941
0.0251077
0.0251111
0.0251083
0.0251027
0.0250967
0.0250918
0.0250892
0.0248026
0.0248433
0.0249051
0.0249769
0.0250384
0.0250799
0.0251022
0.0251102
0.025109
0.0251027
0.0250945
0.0250866
0.0250805
0.0250772
0.0248159
0.024855
0.0249222
0.0249948
0.0250525
0.0250888
0.0251061
0.02511
0.0251055
0.0250967
0.0250866
0.0250773
0.0250704
0.0250667
0.0248176
0.0248179
0.0248623
0.0249337
0.0250061
0.025061
0.0250937
0.0251077
0.0251089
0.0251023
0.0250918
0.0250805
0.0250704
0.0250629
0.025059
0.0248206
0.02482
0.0248665
0.0249395
0.0250116
0.0250649
0.0250958
0.0251082
0.025108
0.0251004
0.0250891
0.0250772
0.0250667
0.025059
0.0250549
0.0245484
0.0245507
0.0245534
0.0245571
0.0245159
0.0245239
0.0245252
0.0245264
0.0245601
0.024578
0.0245328
0.0245386
0.0245457
0.0245537
0.0245589
0.024562
0.0245654
0.0245371
0.0245481
0.0245628
0.0245781
0.0245923
0.0246051
0.0246139
0.0246185
0.0245351
0.0245445
0.0245632
0.0245851
0.0246089
0.0246313
0.0246502
0.0246649
0.0246745
0.0246792
0.0245351
0.0245481
0.0245722
0.0246015
0.0246326
0.0246617
0.0246858
0.0247042
0.0247172
0.0247253
0.0247292
0.0245654
0.0245445
0.0245721
0.0246076
0.0246456
0.0246804
0.0247089
0.0247302
0.0247451
0.0247549
0.0247606
0.0247633
0.0245601
0.0245371
0.0245632
0.0246015
0.0246456
0.0246868
0.0247201
0.0247445
0.024761
0.0247716
0.0247779
0.0247813
0.0247827
0.024578
0.0245481
0.0245851
0.0246326
0.0246804
0.0247201
0.024749
0.0247681
0.0247798
0.0247862
0.0247894
0.0247908
0.0247912
0.0245534
0.0245329
0.0245628
0.0246089
0.0246617
0.0247089
0.0247445
0.0247681
0.0247822
0.0247895
0.0247924
0.0247931
0.0247927
0.0247923
0.0245571
0.0245386
0.0245781
0.0246313
0.0246858
0.0247302
0.024761
0.0247798
0.0247895
0.0247932
0.0247933
0.0247919
0.0247902
0.0247891
0.0245159
0.0245457
0.0245924
0.0246502
0.0247042
0.0247451
0.0247716
0.0247862
0.0247924
0.0247933
0.0247913
0.0247883
0.0247856
0.024784
0.0245239
0.0245537
0.0246051
0.0246649
0.0247172
0.0247548
0.0247779
0.0247894
0.0247931
0.0247919
0.0247883
0.0247841
0.0247806
0.0247787
0.0245483
0.0245252
0.0245589
0.0246139
0.0246744
0.0247253
0.0247606
0.0247813
0.0247908
0.0247927
0.0247902
0.0247856
0.0247806
0.0247767
0.0247745
0.0245506
0.0245264
0.024562
0.0246185
0.0246792
0.0247292
0.0247633
0.0247827
0.0247912
0.0247923
0.0247891
0.024784
0.0247787
0.0247745
0.0247722
0.0242886
0.0242901
0.0242947
0.0242963
0.0242466
0.0242511
0.0242517
0.0242523
0.0243006
0.0243123
0.0242607
0.024264
0.0242682
0.0242733
0.0242766
0.0242787
0.0243047
0.0242657
0.0242731
0.0242829
0.0242931
0.0243027
0.0243114
0.0243176
0.024321
0.0242652
0.0242718
0.0242848
0.0243001
0.024317
0.0243332
0.0243471
0.0243581
0.0243654
0.0243691
0.0242652
0.0242749
0.0242918
0.0243129
0.0243357
0.0243576
0.0243764
0.0243911
0.0244018
0.0244086
0.0244119
0.0243047
0.0242719
0.0242918
0.0243177
0.024346
0.0243731
0.0243961
0.024414
0.0244271
0.0244361
0.0244416
0.0244442
0.0243006
0.0242657
0.0242848
0.0243129
0.024346
0.0243784
0.0244058
0.0244271
0.0244425
0.0244531
0.0244598
0.0244638
0.0244656
0.0243123
0.0242731
0.0243002
0.0243357
0.0243731
0.0244058
0.0244314
0.0244497
0.0244621
0.0244699
0.0244746
0.0244771
0.0244782
0.0242947
0.0242608
0.0242829
0.024317
0.0243576
0.0243961
0.0244271
0.0244497
0.0244648
0.0244743
0.0244797
0.0244826
0.0244839
0.0244844
0.0242963
0.024264
0.0242931
0.0243332
0.0243764
0.024414
0.0244425
0.0244621
0.0244743
0.0244812
0.0244846
0.0244859
0.0244863
0.0244862
0.0242466
0.0242682
0.0243027
0.0243471
0.0243911
0.0244271
0.0244531
0.0244699
0.0244797
0.0244846
0.0244864
0.0244865
0.0244861
0.0244856
0.0242511
0.0242733
0.0243114
0.0243581
0.0244018
0.0244361
0.0244598
0.0244746
0.0244826
0.0244859
0.0244865
0.0244858
0.0244847
0.024484
0.0242885
0.0242517
0.0242766
0.0243176
0.0243654
0.0244086
0.0244416
0.0244638
0.0244771
0.0244839
0.0244863
0.0244861
0.0244847
0.0244832
0.0244823
0.0242901
0.0242523
0.0242787
0.024321
0.0243691
0.0244119
0.0244442
0.0244656
0.0244782
0.0244844
0.0244862
0.0244856
0.024484
0.0244823
0.0244813
0.024032
0.0240329
0.024039
0.0240392
0.0239848
0.023987
0.023987
0.0239871
0.0240451
0.0240531
0.0239973
0.0239987
0.0240007
0.0240033
0.024005
0.0240062
0.0240489
0.0240036
0.024008
0.0240138
0.0240199
0.0240257
0.0240311
0.024035
0.0240371
0.0240049
0.0240093
0.0240177
0.0240276
0.0240386
0.0240493
0.0240586
0.0240661
0.0240712
0.0240738
0.0240049
0.024012
0.0240236
0.0240378
0.0240534
0.0240686
0.024082
0.0240927
0.0241006
0.0241058
0.0241083
0.024049
0.0240093
0.0240236
0.0240416
0.0240616
0.0240811
0.0240982
0.0241119
0.0241222
0.0241295
0.0241341
0.0241362
0.0240451
0.0240036
0.0240177
0.0240378
0.0240616
0.0240854
0.0241063
0.0241232
0.024136
0.0241451
0.0241512
0.0241549
0.0241566
0.0240531
0.024008
0.0240276
0.0240534
0.0240811
0.0241063
0.024127
0.0241426
0.0241537
0.0241613
0.0241662
0.024169
0.0241703
0.0240391
0.0239973
0.0240138
0.0240386
0.0240686
0.0240982
0.0241232
0.0241426
0.0241565
0.024166
0.0241721
0.0241758
0.0241778
0.0241787
0.0240393
0.0239987
0.0240199
0.0240493
0.024082
0.0241119
0.024136
0.0241537
0.024166
0.0241739
0.0241787
0.0241814
0.0241828
0.0241833
0.0239848
0.0240007
0.0240257
0.0240586
0.0240927
0.0241222
0.0241451
0.0241613
0.0241721
0.0241787
0.0241824
0.0241843
0.0241852
0.0241854
0.023987
0.0240033
0.0240311
0.0240661
0.0241006
0.0241295
0.0241512
0.0241662
0.0241758
0.0241814
0.0241843
0.0241856
0.024186
0.0241861
0.0240319
0.023987
0.024005
0.024035
0.0240712
0.0241058
0.0241341
0.0241549
0.024169
0.0241778
0.0241828
0.0241852
0.024186
0.0241862
0.0241861
0.0240329
0.0239871
0.0240062
0.0240371
0.0240738
0.0241083
0.0241362
0.0241566
0.0241703
0.0241787
0.0241833
0.0241854
0.0241861
0.0241861
0.024186
0.0237751
0.0237756
0.0237837
0.0237828
0.0237258
0.0237261
0.0237253
0.0237249
0.0237907
0.0237964
0.0237379
0.0237373
0.0237373
0.0237378
0.0237381
0.0237384
0.0237949
0.0237459
0.0237475
0.02375
0.0237527
0.0237552
0.0237577
0.0237595
0.0237606
0.02375
0.0237521
0.0237565
0.0237617
0.0237676
0.0237735
0.0237788
0.0237831
0.0237861
0.0237876
0.02375
0.0237547
0.0237619
0.0237703
0.0237795
0.0237888
0.0237971
0.023804
0.0238091
0.0238125
0.0238142
0.0237949
0.0237521
0.0237619
0.0237735
0.0237862
0.0237988
0.0238102
0.0238196
0.0238268
0.0238319
0.0238352
0.0238368
0.0237907
0.0237459
0.0237565
0.0237703
0.0237862
0.0238023
0.0238169
0.023829
0.0238384
0.0238454
0.0238501
0.0238531
0.0238545
0.0237964
0.0237475
0.0237617
0.0237795
0.0237988
0.0238169
0.0238322
0.0238442
0.0238531
0.0238594
0.0238636
0.0238662
0.0238674
0.0237837
0.0237379
0.02375
0.0237676
0.0237888
0.0238102
0.023829
0.0238442
0.0238556
0.0238638
0.0238695
0.0238731
0.0238753
0.0238763
0.0237828
0.0237373
0.0237527
0.0237735
0.0237972
0.0238196
0.0238384
0.0238531
0.0238638
0.0238713
0.0238763
0.0238794
0.0238812
0.023882
0.0237258
0.0237374
0.0237552
0.0237788
0.023804
0.0238268
0.0238454
0.0238594
0.0238695
0.0238763
0.0238807
0.0238833
0.0238848
0.0238854
0.0237262
0.0237378
0.0237577
0.0237831
0.0238091
0.0238319
0.0238501
0.0238636
0.0238731
0.0238794
0.0238833
0.0238856
0.0238868
0.0238874
0.0237751
0.0237252
0.0237381
0.0237595
0.0237861
0.0238125
0.0238352
0.0238531
0.0238662
0.0238753
0.0238812
0.0238848
0.0238868
0.0238879
0.0238883
0.0237757
0.0237249
0.0237384
0.0237606
0.0237876
0.0238142
0.0238368
0.0238545
0.0238674
0.0238763
0.023882
0.0238854
0.0238874
0.0238883
0.0238887
0.0235164
0.0235168
0.0235281
0.0235254
0.0234672
0.0234658
0.0234638
0.0234628
0.0235369
0.0235405
0.0234799
0.0234773
0.0234754
0.0234738
0.0234726
0.0234721
0.0235412
0.0234903
0.0234892
0.0234886
0.0234881
0.0234877
0.0234875
0.0234874
0.0234875
0.0234995
0.0234982
0.0234986
0.0234992
0.0235005
0.0235021
0.0235037
0.023505
0.023506
0.0235066
0.0234995
0.0235011
0.0235041
0.023507
0.0235105
0.0235143
0.023518
0.0235211
0.0235236
0.0235252
0.023526
0.0235412
0.0234983
0.0235041
0.02351
0.0235162
0.0235225
0.0235284
0.0235335
0.0235376
0.0235406
0.0235425
0.0235434
0.023537
0.0234903
0.0234986
0.0235071
0.0235162
0.0235254
0.0235339
0.0235412
0.0235472
0.0235516
0.0235548
0.0235568
0.0235578
0.0235405
0.0234892
0.0234992
0.0235105
0.0235225
0.0235339
0.0235439
0.023552
0.0235582
0.0235628
0.0235659
0.0235679
0.0235688
0.0235281
0.0234799
0.0234887
0.0235005
0.0235143
0.0235284
0.0235413
0.023552
0.0235604
0.0235667
0.0235712
0.0235743
0.0235761
0.023577
0.0235255
0.0234773
0.0234881
0.0235021
0.023518
0.0235336
0.0235472
0.0235582
0.0235667
0.0235729
0.0235773
0.0235802
0.0235819
0.0235828
0.0234672
0.0234754
0.0234877
0.0235037
0.0235212
0.0235376
0.0235516
0.0235628
0.0235712
0.0235773
0.0235815
0.0235842
0.0235859
0.0235866
0.0234659
0.0234739
0.0234875
0.0235051
0.0235236
0.0235406
0.0235548
0.0235659
0.0235743
0.0235802
0.0235842
0.0235868
0.0235884
0.0235891
0.0235166
0.0234637
0.0234726
0.0234874
0.023506
0.0235252
0.0235425
0.0235568
0.0235679
0.0235761
0.0235819
0.0235859
0.0235884
0.0235898
0.0235905
0.0235169
0.0234628
0.0234721
0.0234875
0.0235066
0.023526
0.0235434
0.0235578
0.0235688
0.023577
0.0235828
0.0235866
0.0235891
0.0235905
0.0235912
0.0232557
0.0232557
0.0232716
0.0232669
0.0232084
0.0232051
0.0232012
0.0231995
0.0232828
0.0232846
0.0232224
0.0232177
0.0232137
0.0232098
0.0232068
0.0232054
0.0232874
0.0232361
0.023232
0.0232282
0.0232246
0.0232212
0.0232184
0.0232163
0.0232153
0.0232554
0.0232473
0.023243
0.0232387
0.0232352
0.0232326
0.0232307
0.0232293
0.0232283
0.0232279
0.0232554
0.0232509
0.023249
0.0232464
0.0232439
0.0232424
0.0232417
0.0232414
0.0232413
0.0232412
0.0232412
0.0232874
0.0232473
0.023249
0.0232493
0.023249
0.0232492
0.02325
0.0232511
0.0232521
0.0232529
0.0232535
0.0232538
0.0232829
0.0232361
0.023243
0.0232464
0.023249
0.0232516
0.0232545
0.0232573
0.0232597
0.0232617
0.0232632
0.0232642
0.0232647
0.0232846
0.023232
0.0232387
0.0232439
0.0232492
0.0232545
0.0232594
0.0232636
0.0232671
0.0232698
0.0232717
0.0232729
0.0232735
0.0232716
0.0232225
0.0232283
0.0232352
0.0232425
0.02325
0.0232573
0.0232637
0.0232689
0.0232731
0.0232762
0.0232784
0.0232798
0.0232805
0.0232669
0.0232177
0.0232246
0.0232326
0.0232418
0.0232511
0.0232597
0.0232671
0.0232731
0.0232777
0.0232811
0.0232835
0.023285
0.0232857
0.0232084
0.0232137
0.0232212
0.0232307
0.0232414
0.0232521
0.0232617
0.0232698
0.0232762
0.0232811
0.0232847
0.0232872
0.0232887
0.0232894
0.0232051
0.0232099
0.0232184
0.0232293
0.0232413
0.0232529
0.0232632
0.0232717
0.0232784
0.0232835
0.0232872
0.0232897
0.0232912
0.0232919
0.0232557
0.0232012
0.0232068
0.0232163
0.0232283
0.0232412
0.0232535
0.0232642
0.0232729
0.0232798
0.023285
0.0232887
0.0232912
0.0232928
0.0232935
0.0232557
0.0231995
0.0232054
0.0232154
0.0232279
0.0232412
0.0232538
0.0232647
0.0232735
0.0232805
0.0232857
0.0232894
0.0232919
0.0232935
0.0232942
0.0229922
0.0229917
0.0230139
0.0230073
0.0229498
0.0229441
0.0229372
0.0229342
0.0230284
0.0230289
0.0229658
0.0229584
0.0229516
0.0229451
0.0229396
0.0229371
0.0230345
0.0229832
0.0229758
0.0229681
0.0229609
0.0229544
0.0229488
0.0229445
0.0229425
0.0230234
0.0229994
0.0229898
0.0229792
0.0229703
0.0229633
0.0229578
0.0229537
0.0229509
0.0229495
0.0230234
0.0230046
0.0229964
0.022987
0.022978
0.0229711
0.0229661
0.0229625
0.0229601
0.0229584
0.0229577
0.0230345
0.0229994
0.0229964
0.02299
0.0229827
0.0229767
0.0229726
0.0229699
0.0229681
0.022967
0.0229663
0.022966
0.0230284
0.0229833
0.0229898
0.022987
0.0229827
0.0229788
0.0229762
0.0229748
0.022974
0.0229738
0.0229737
0.0229737
0.0229737
0.023029
0.0229758
0.0229792
0.022978
0.0229767
0.0229762
0.0229765
0.0229772
0.0229781
0.0229789
0.0229797
0.0229802
0.0229804
0.023014
0.0229659
0.0229682
0.0229703
0.0229711
0.0229726
0.0229748
0.0229772
0.0229795
0.0229817
0.0229834
0.0229847
0.0229856
0.022986
0.0230074
0.0229585
0.022961
0.0229633
0.0229662
0.0229699
0.0229741
0.0229781
0.0229817
0.0229847
0.022987
0.0229887
0.0229899
0.0229904
0.0229499
0.0229517
0.0229544
0.0229579
0.0229626
0.0229681
0.0229738
0.0229789
0.0229834
0.022987
0.0229898
0.0229918
0.0229931
0.0229938
0.0229441
0.0229451
0.0229488
0.0229538
0.0229601
0.022967
0.0229737
0.0229797
0.0229847
0.0229887
0.0229918
0.022994
0.0229954
0.0229961
0.0229923
0.0229372
0.0229396
0.0229445
0.0229509
0.0229584
0.0229663
0.0229737
0.0229802
0.0229856
0.0229899
0.0229931
0.0229954
0.0229969
0.0229976
0.0229917
0.0229342
0.0229371
0.0229425
0.0229495
0.0229577
0.022966
0.0229737
0.0229805
0.022986
0.0229904
0.0229938
0.0229961
0.0229976
0.0229984
0.022726
0.0227244
0.022755
0.0227467
0.0226932
0.0226841
0.0226718
0.0226663
0.0227732
0.0227741
0.0227108
0.0226998
0.0226891
0.0226789
0.02267
0.0226662
0.0227813
0.0227327
0.0227207
0.0227074
0.0226957
0.0226856
0.0226771
0.0226703
0.0226672
0.0228246
0.0227527
0.0227381
0.0227189
0.0227037
0.0226921
0.0226832
0.0226766
0.0226719
0.0226696
0.0228245
0.0227603
0.0227446
0.0227266
0.0227101
0.0226978
0.0226888
0.0226823
0.0226779
0.0226749
0.0226735
0.0227813
0.0227528
0.0227446
0.0227296
0.0227144
0.0227023
0.0226937
0.0226877
0.0226836
0.0226809
0.0226792
0.0226785
0.0227732
0.0227327
0.0227381
0.0227266
0.0227144
0.0227041
0.0226966
0.0226914
0.0226881
0.022686
0.0226847
0.022684
0.0226836
0.0227741
0.0227207
0.022719
0.0227101
0.0227024
0.0226966
0.0226928
0.0226905
0.0226894
0.0226888
0.0226886
0.0226885
0.0226885
0.0227551
0.0227109
0.0227074
0.0227038
0.0226978
0.0226937
0.0226915
0.0226906
0.0226905
0.022691
0.0226916
0.0226922
0.0226927
0.0226929
0.0227468
0.0226998
0.0226957
0.0226921
0.0226889
0.0226877
0.0226881
0.0226894
0.022691
0.0226927
0.0226941
0.0226953
0.0226961
0.0226966
0.0226933
0.0226891
0.0226856
0.0226832
0.0226824
0.0226836
0.022686
0.0226888
0.0226916
0.0226941
0.0226962
0.0226978
0.0226989
0.0226995
0.0226841
0.0226789
0.0226772
0.0226766
0.0226779
0.0226809
0.0226847
0.0226886
0.0226922
0.0226953
0.0226978
0.0226997
0.022701
0.0227016
0.022726
0.0226718
0.02267
0.0226704
0.0226719
0.022675
0.0226792
0.022684
0.0226885
0.0226927
0.0226961
0.0226989
0.022701
0.0227023
0.022703
0.0227245
0.0226663
0.0226662
0.0226672
0.0226697
0.0226736
0.0226785
0.0226836
0.0226885
0.0226929
0.0226966
0.0226995
0.0227016
0.022703
0.0227037
0.0224558
0.0224529
0.0224942
0.0224847
0.0224454
0.0224276
0.0224046
0.0223946
0.0225162
0.0225226
0.0224594
0.0224429
0.0224263
0.0224109
0.022397
0.0223916
0.022527
0.0224855
0.0224671
0.0224443
0.022426
0.0224112
0.0224013
0.0223919
0.0223876
0.0227094
0.0225139
0.0224839
0.022455
0.0224328
0.0224166
0.0224045
0.0223961
0.0223897
0.0223867
0.0227093
0.0225344
0.0224909
0.0224614
0.0224372
0.0224197
0.0224073
0.0223985
0.0223929
0.0223891
0.0223874
0.0225271
0.0225139
0.0224909
0.0224639
0.0224405