/*--------------------------------*- C++ -*----------------------------------*\
| =========                 |                                                 |
| \\      /  F ield         | OpenFOAM: The Open Source CFD Toolbox           |
|  \\    /   O peration     | Version:  2.1.1                                 |
|   \\  /    A nd           | Web:      www.OpenFOAM.org                      |
|    \\/     M anipulation  |                                                 |
\*---------------------------------------------------------------------------*/
FoamFile
{
    version     2.0;
    format      ascii;
    class       volScalarField;
    location    "0.004";
    object      p;
}
// * * * * * * * * * * * * * * * * * * * * * * * * * * * * * * * * * * * * * //

dimensions      [0 2 -2 0 0 0 0];

internalField   nonuniform List<scalar> 
10266
(
0.0544649
0.054869
0.0562432
0.0519503
0.0519799
0.0518638
0.0520557
0.0604846
0.0548562
0.0517453
0.0517397
0.0517842
0.0517375
0.0518475
0.0519811
0.0624505
0.0550053
0.0518888
0.0518958
0.051862
0.0518889
0.0518204
0.0518107
0.0518862
0.0519875
0.0602874
0.0571112
0.0517989
0.0518014
0.0518096
0.051812
0.0518245
0.0518494
0.051794
0.0518049
0.0518491
0.0520783
0.0727884
0.0518593
0.0518606
0.051851
0.0518552
0.051841
0.0518425
0.0518525
0.051844
0.0518582
0.0516921
0.0520737
0.0704875
0.0518248
0.0518263
0.0518273
0.0518307
0.0518306
0.0518372
0.0518297
0.0518351
0.0518454
0.0518582
0.0518491
0.0645483
0.0518511
0.0518515
0.0518479
0.0518491
0.0518434
0.0518452
0.0518418
0.0518436
0.0518352
0.0518443
0.0518052
0.0519882
0.0618831
0.0518385
0.0518394
0.0518382
0.0518404
0.051837
0.0518412
0.0518342
0.0518419
0.0518301
0.0518529
0.0517946
0.051887
0.0630155
0.0549682
0.0518519
0.0518523
0.0518497
0.0518504
0.0518456
0.0518475
0.0518414
0.0518455
0.0518377
0.0518432
0.0518502
0.0518116
0.0519821
0.0600639
0.0518477
0.0518483
0.0518461
0.0518474
0.0518426
0.0518457
0.0518375
0.0518439
0.0518313
0.0518418
0.0518255
0.0518216
0.0518487
0.0624084
0.0518551
0.0518554
0.0518526
0.0518535
0.0518478
0.0518508
0.0518411
0.0518498
0.0518318
0.0518563
0.0518132
0.0518903
0.0517388
0.0520572
0.0679383
0.051854
0.0518545
0.0518517
0.0518529
0.0518467
0.0518504
0.0518392
0.0518489
0.0518286
0.0518523
0.0518111
0.0518635
0.0517857
0.0518653
0.0637705
0.0518575
0.0518579
0.0518548
0.0518559
0.0518492
0.0518533
0.0518407
0.0518528
0.0518278
0.0518621
0.051803
0.0518976
0.0517412
0.0519815
0.0635472
0.0518574
0.0518578
0.0518547
0.051856
0.051849
0.0518534
0.0518402
0.0518527
0.0518267
0.0518613
0.0518009
0.0518909
0.0517472
0.0519523
0.0628898
0.0533987
0.053803
0.0551772
0.0508857
0.0509158
0.0507988
0.0509902
0.0594193
0.0537905
0.0506792
0.0506792
0.0507183
0.0506713
0.0507813
0.050915
0.0613848
0.0539393
0.0508232
0.0508264
0.0507964
0.0508234
0.0507548
0.050745
0.0508205
0.0509217
0.0592217
0.0560453
0.0507308
0.0507311
0.0507421
0.0507451
0.0507586
0.050783
0.0507278
0.0507388
0.0507826
0.0510084
0.0716956
0.0507935
0.0507945
0.0507851
0.0507894
0.0507748
0.0507767
0.0507868
0.050778
0.0507921
0.0506263
0.0510112
0.0694216
0.0507575
0.050759
0.0507603
0.0507638
0.0507641
0.0507705
0.0507633
0.050769
0.0507793
0.0507924
0.0507834
0.0634829
0.0507837
0.0507842
0.0507808
0.050782
0.0507766
0.0507786
0.0507756
0.0507773
0.0507692
0.0507785
0.0507392
0.0509224
0.0608175
0.0507703
0.0507713
0.0507703
0.0507727
0.0507697
0.0507741
0.0507673
0.0507757
0.0507636
0.0507873
0.0507284
0.0508213
0.0619498
0.0539022
0.0507834
0.0507838
0.0507814
0.0507823
0.0507779
0.0507802
0.0507744
0.0507789
0.0507711
0.0507774
0.0507839
0.050746
0.0509161
0.0589983
0.0507785
0.0507792
0.0507772
0.0507789
0.0507745
0.0507781
0.0507702
0.0507771
0.0507649
0.0507757
0.0507597
0.050756
0.0507826
0.061343
0.0507855
0.0507859
0.0507834
0.0507846
0.0507793
0.0507828
0.0507736
0.0507828
0.0507649
0.0507907
0.0507464
0.0508248
0.0506726
0.0509918
0.066873
0.0507839
0.0507846
0.0507821
0.0507837
0.0507779
0.0507822
0.0507715
0.0507818
0.0507618
0.0507866
0.0507437
0.0507981
0.0507199
0.0508005
0.0627053
0.0507872
0.0507878
0.050785
0.0507865
0.0507802
0.0507849
0.0507728
0.0507857
0.0507607
0.0507962
0.0507327
0.0508282
0.0506809
0.0509176
0.0624818
0.050787
0.0507876
0.0507848
0.0507864
0.0507799
0.0507849
0.0507722
0.0507856
0.0507596
0.0507957
0.050733
0.0508254
0.0506812
0.0508877
0.0618242
0.0523328
0.0527369
0.054111
0.0498191
0.0498479
0.0497326
0.0499242
0.0583537
0.0527247
0.0496113
0.0496039
0.0496502
0.0496048
0.049715
0.0498487
0.0603189
0.0528732
0.0497586
0.0497655
0.0497316
0.0497577
0.049689
0.0496791
0.0497545
0.0498557
0.0581558
0.0549793
0.0496644
0.0496694
0.049676
0.0496783
0.0496924
0.0497166
0.0496613
0.0496725
0.0497167
0.049945
0.0706474
0.0497281
0.0497295
0.0497194
0.0497236
0.0497086
0.0497106
0.049721
0.049712
0.0497262
0.0495604
0.0499426
0.0683561
0.04969
0.0496916
0.0496934
0.0496967
0.0496976
0.0497038
0.0496968
0.0497028
0.0497131
0.0497262
0.0497169
0.0624171
0.0497167
0.0497172
0.0497136
0.0497149
0.0497097
0.0497118
0.0497093
0.0497109
0.0497029
0.0497124
0.0496729
0.0498564
0.0597516
0.0497024
0.0497034
0.0497026
0.0497051
0.0497024
0.0497072
0.0497004
0.0497093
0.0496972
0.0497217
0.049662
0.0497554
0.0608839
0.052836
0.0497151
0.0497155
0.0497133
0.0497144
0.0497104
0.0497129
0.0497075
0.0497122
0.0497043
0.0497116
0.0497176
0.0496802
0.0498498
0.0579324
0.0497096
0.0497104
0.0497087
0.0497107
0.0497066
0.0497105
0.049703
0.0497102
0.0496985
0.0497097
0.0496935
0.0496903
0.0497163
0.0602774
0.0497162
0.0497167
0.0497145
0.049716
0.0497111
0.0497149
0.049706
0.049716
0.0496979
0.0497249
0.0496796
0.0497592
0.0496062
0.0499259
0.0658074
0.0497143
0.0497151
0.0497128
0.0497147
0.0497094
0.0497141
0.0497038
0.0497148
0.0496949
0.049721
0.0496777
0.0497334
0.0496519
0.0497344
0.0616395
0.0497174
0.0497181
0.0497155
0.0497173
0.0497115
0.0497166
0.0497049
0.0497187
0.0496934
0.0497313
0.0496712
0.0497674
0.0496056
0.0498498
0.0614158
0.0497171
0.0497178
0.0497152
0.0497172
0.0497111
0.0497166
0.0497043
0.0497186
0.0496922
0.0497304
0.0496666
0.0497607
0.0496133
0.0498212
0.0607581
0.0512667
0.0516706
0.0530447
0.0487543
0.0487841
0.0486671
0.0488582
0.0572878
0.0516584
0.0485454
0.0485477
0.0485847
0.0485382
0.0486485
0.0487822
0.0592527
0.0518068
0.0486923
0.048696
0.0486655
0.0486917
0.0486229
0.0486129
0.0486884
0.0487895
0.0570897
0.0539131
0.048596
0.0485944
0.048608
0.0486113
0.0486259
0.04865
0.0485947
0.0486062
0.0486501
0.0488763
0.0695673
0.0486618
0.0486619
0.0486531
0.0486573
0.0486423
0.0486442
0.0486549
0.0486458
0.0486599
0.0484943
0.0488784
0.0672903
0.0486224
0.0486241
0.0486262
0.0486294
0.0486311
0.0486373
0.0486304
0.0486364
0.0486469
0.0486602
0.0486508
0.0613513
0.0486497
0.0486501
0.0486467
0.048648
0.0486428
0.0486451
0.0486431
0.0486446
0.0486365
0.0486462
0.0486066
0.0487904
0.0586856
0.0486345
0.0486356
0.048635
0.0486376
0.0486353
0.0486401
0.0486332
0.0486428
0.0486305
0.0486556
0.0485955
0.0486893
0.0598177
0.0517699
0.0486468
0.0486473
0.0486453
0.0486465
0.0486428
0.0486455
0.0486404
0.0486453
0.048638
0.048645
0.048651
0.0486141
0.0487834
0.0568664
0.0486409
0.0486419
0.0486404
0.0486425
0.0486388
0.0486429
0.0486359
0.0486434
0.048632
0.0486434
0.0486271
0.0486243
0.0486499
0.0592116
0.0486471
0.0486478
0.0486458
0.0486474
0.048643
0.048647
0.0486386
0.0486491
0.0486307
0.0486587
0.0486127
0.0486932
0.0485397
0.0488601
0.0647416
0.0486451
0.0486459
0.0486439
0.048646
0.0486411
0.0486461
0.0486363
0.048648
0.0486277
0.0486548
0.0486096
0.0486674
0.0485865
0.0486691
0.0605734
0.048648
0.0486486
0.0486463
0.0486483
0.0486429
0.0486484
0.0486372
0.0486518
0.0486258
0.0486636
0.0485959
0.048698
0.0485498
0.0487862
0.0603497
0.0486476
0.0486483
0.048646
0.0486481
0.0486425
0.0486483
0.0486365
0.0486516
0.0486246
0.0486642
0.0485983
0.0486946
0.0485476
0.0487565
0.0596919
0.0502001
0.0506039
0.0519782
0.0476862
0.0477142
0.0475998
0.0477916
0.0562215
0.0505919
0.0474767
0.0474674
0.0475155
0.0474714
0.0475819
0.0477156
0.0581863
0.0507405
0.0476272
0.0476326
0.0476
0.0476256
0.0475567
0.0475467
0.0476221
0.0477233
0.0560236
0.0528471
0.0475304
0.0475393
0.0475429
0.0475447
0.0475595
0.0475834
0.0475282
0.0475398
0.0475839
0.047812
0.0685133
0.0475964
0.0475986
0.0475877
0.0475911
0.0475759
0.0475777
0.0475886
0.0475797
0.0475938
0.0474283
0.0478103
0.0662246
0.0475551
0.0475571
0.0475592
0.0475623
0.0475644
0.0475707
0.0475636
0.04757
0.0475806
0.0475939
0.0475842
0.0602853
0.0475826
0.047583
0.0475798
0.047581
0.047576
0.0475781
0.0475763
0.0475782
0.04757
0.0475799
0.0475402
0.0477242
0.0576196
0.0475667
0.0475679
0.0475676
0.0475702
0.0475682
0.047573
0.0475668
0.0475764
0.047564
0.0475895
0.0475289
0.0476232
0.0587515
0.0507036
0.0475785
0.0475791
0.0475774
0.0475786
0.0475753
0.047578
0.0475735
0.0475787
0.0475713
0.0475786
0.0475844
0.0475479
0.0477169
0.0558002
0.0475725
0.0475735
0.0475722
0.0475745
0.0475711
0.0475754
0.0475688
0.0475768
0.0475653
0.0475771
0.0475607
0.0475581
0.0475833
0.0581455
0.0475782
0.0475789
0.0475771
0.0475789
0.0475749
0.0475792
0.0475712
0.0475822
0.0475635
0.0475926
0.0475461
0.0476272
0.0474729
0.0477935
0.0636752
0.0475761
0.047577
0.0475751
0.0475774
0.0475729
0.0475782
0.0475688
0.0475812
0.0475608
0.0475896
0.0475445
0.047602
0.0475173
0.0476018
0.0595068
0.0475786
0.0475794
0.0475773
0.0475795
0.0475746
0.0475802
0.0475694
0.0475848
0.0475589
0.0476006
0.0475409
0.0476343
0.0474699
0.0477164
0.0592829
0.0475784
0.0475791
0.0475769
0.0475792
0.047574
0.0475801
0.0475687
0.0475848
0.0475575
0.0475991
0.0475328
0.0476298
0.0474789
0.0476885
0.0586251
0.0491332
0.0495372
0.0509117
0.0466203
0.0466484
0.0465338
0.0467254
0.0551553
0.0495255
0.0464101
0.046402
0.0464489
0.0464048
0.0465153
0.0466491
0.0571201
0.0496744
0.046561
0.0465658
0.0465338
0.0465593
0.0464903
0.0464805
0.0465559
0.0466571
0.0549576
0.0517811
0.0464629
0.0464713
0.0464756
0.0464777
0.046493
0.0465168
0.0464617
0.0464733
0.0465174
0.0467442
0.0674384
0.0465297
0.0465318
0.0465212
0.0465247
0.0465094
0.0465113
0.0465224
0.0465132
0.0465273
0.046362
0.0467451
0.0651587
0.0464873
0.0464894
0.0464918
0.046495
0.0464976
0.0465039
0.0464968
0.0465033
0.0465142
0.0465276
0.046518
0.0592193
0.0465154
0.0465159
0.0465127
0.046514
0.0465091
0.0465114
0.0465094
0.0465118
0.0465034
0.0465136
0.0464737
0.046658
0.0565534
0.0464988
0.0465002
0.0464999
0.0465028
0.046501
0.0465062
0.0464999
0.0465098
0.0464973
0.0465232
0.0464624
0.0465569
0.0576852
0.0496372
0.0465104
0.0465111
0.0465095
0.0465108
0.0465078
0.0465108
0.0465064
0.046512
0.0465045
0.0465122
0.0465177
0.0464817
0.0466504
0.0547339
0.0465042
0.0465053
0.046504
0.0465066
0.0465034
0.0465082
0.0465016
0.0465101
0.0464985
0.0465107
0.0464942
0.0464918
0.0465168
0.0570793
0.0465094
0.0465102
0.0465086
0.0465105
0.0465069
0.0465116
0.0465035
0.0465153
0.0464962
0.0465263
0.0464792
0.046561
0.0464063
0.0467272
0.0626088
0.0465071
0.0465081
0.0465064
0.046509
0.0465047
0.0465106
0.0465012
0.0465145
0.0464935
0.0465235
0.0464774
0.046536
0.0464506
0.0465357
0.0584402
0.0465093
0.0465102
0.0465083
0.0465108
0.0465062
0.0465123
0.0465015
0.0465178
0.0464914
0.0465342
0.0464731
0.0465675
0.0464043
0.0466505
0.0582164
0.0465093
0.04651
0.046508
0.0465105
0.0465056
0.0465123
0.0465008
0.046518
0.0464901
0.0465328
0.0464655
0.0465638
0.0464123
0.0466225
0.0575585
0.0480665
0.048471
0.0498456
0.0455561
0.0455861
0.045469
0.0456596
0.0540891
0.0484592
0.045345
0.0453479
0.0453847
0.0453385
0.0454489
0.0455826
0.0560537
0.0486078
0.0454935
0.0454977
0.0454672
0.0454929
0.0454239
0.0454141
0.0454895
0.0455907
0.0538912
0.0507145
0.0453942
0.0453923
0.0454064
0.0454104
0.0454265
0.0454501
0.045395
0.0454068
0.045451
0.0456787
0.0663781
0.0454622
0.0454618
0.0454536
0.0454579
0.0454427
0.0454448
0.0454559
0.0454468
0.0454608
0.0452956
0.0456779
0.0640925
0.0454192
0.0454211
0.0454239
0.0454277
0.0454305
0.0454372
0.0454299
0.0454367
0.0454479
0.0454611
0.0454514
0.0581529
0.0454482
0.0454489
0.0454455
0.0454472
0.045442
0.0454449
0.0454425
0.0454455
0.0454367
0.0454472
0.0454071
0.0455916
0.055487
0.0454307
0.0454323
0.045432
0.0454354
0.0454335
0.0454392
0.045433
0.0454431
0.0454304
0.0454568
0.0453958
0.0454905
0.0566187
0.0485707
0.0454425
0.0454434
0.0454416
0.0454435
0.0454403
0.045444
0.0454391
0.0454455
0.0454376
0.0454458
0.045451
0.0454153
0.0455838
0.0536675
0.0454358
0.0454372
0.0454357
0.045439
0.0454354
0.0454411
0.0454342
0.0454433
0.0454316
0.0454442
0.0454276
0.0454255
0.0454502
0.056013
0.0454406
0.0454417
0.0454399
0.0454427
0.0454387
0.0454443
0.0454358
0.0454485
0.0454289
0.0454597
0.045412
0.0454946
0.0453397
0.0456613
0.0615426
0.0454381
0.0454395
0.0454376
0.045441
0.0454363
0.0454432
0.0454333
0.0454477
0.045426
0.0454564
0.0454088
0.0454694
0.0453858
0.0454705
0.057374
0.04544
0.0454414
0.0454392
0.0454425
0.0454376
0.0454448
0.0454334
0.045451
0.0454234
0.0454652
0.0453959
0.0454991
0.045349
0.0455874
0.0571504
0.0454402
0.0454412
0.0454389
0.0454424
0.0454371
0.0454449
0.0454328
0.0454511
0.0454221
0.0454655
0.045397
0.0454966
0.045347
0.0455583
0.0564926
0.0470002
0.0474047
0.0487792
0.0444898
0.0445197
0.0444027
0.0445933
0.0530229
0.047393
0.0442783
0.0442806
0.0443179
0.0442719
0.0443823
0.044516
0.0549872
0.0475412
0.0444271
0.0444317
0.0444009
0.0444265
0.0443575
0.0443477
0.044423
0.0445242
0.0528247
0.0496479
0.0443272
0.0443256
0.0443394
0.0443434
0.0443599
0.0443833
0.0443283
0.0443402
0.0443843
0.0446115
0.0653074
0.0443955
0.0443952
0.044387
0.0443914
0.044376
0.0443784
0.0443894
0.0443804
0.0443942
0.0442291
0.0446119
0.0630259
0.0443516
0.0443536
0.0443564
0.0443605
0.0443633
0.0443704
0.0443629
0.04437
0.0443814
0.0443946
0.0443848
0.0570865
0.0443811
0.044382
0.0443784
0.0443805
0.044375
0.0443784
0.0443755
0.0443791
0.0443699
0.0443808
0.0443405
0.0445252
0.0544205
0.0443626
0.0443644
0.044364
0.0443679
0.0443658
0.0443722
0.0443658
0.0443763
0.0443634
0.0443904
0.0443291
0.0444241
0.0555521
0.0475041
0.0443748
0.0443759
0.044374
0.0443764
0.0443728
0.0443773
0.0443718
0.0443791
0.0443707
0.0443794
0.0443842
0.044349
0.0445172
0.052601
0.0443672
0.0443689
0.0443672
0.0443712
0.0443672
0.0443739
0.0443665
0.0443766
0.0443644
0.0443777
0.0443609
0.0443592
0.0443837
0.0549466
0.0443721
0.0443736
0.0443717
0.044375
0.0443706
0.0443773
0.0443682
0.044382
0.0443617
0.0443934
0.0443452
0.0444284
0.0442731
0.0445947
0.0604762
0.0443692
0.044371
0.0443688
0.0443729
0.0443677
0.0443759
0.0443653
0.0443809
0.0443586
0.0443905
0.044343
0.0444036
0.0443174
0.0444034
0.0563075
0.044371
0.0443727
0.0443704
0.0443744
0.044369
0.0443775
0.0443654
0.0443841
0.044356
0.0444007
0.0443375
0.044435
0.0442723
0.0445185
0.0560839
0.0443711
0.0443725
0.0443701
0.0443743
0.0443684
0.0443776
0.0443647
0.0443843
0.0443545
0.0443993
0.0443306
0.0444312
0.0442793
0.0444908
0.0554261
0.0459337
0.0463379
0.0477124
0.0434216
0.04345
0.0433351
0.0435264
0.0519565
0.0463265
0.0432101
0.0432036
0.043249
0.0432051
0.0433157
0.0434494
0.0539207
0.0464749
0.0433618
0.0433664
0.0433348
0.0433602
0.0432909
0.0432813
0.0433564
0.0434578
0.0517582
0.0485815
0.0432612
0.0432686
0.0432743
0.0432767
0.0432933
0.0433166
0.0432616
0.0432736
0.0433177
0.0435455
0.0642443
0.0433296
0.0433315
0.0433213
0.043325
0.0433093
0.043312
0.0433228
0.0433139
0.0433277
0.0431627
0.0435448
0.0619596
0.0432844
0.0432869
0.0432893
0.0432935
0.043296
0.0433036
0.0432958
0.0433034
0.0433149
0.0433281
0.0433182
0.0560201
0.0433141
0.0433151
0.0433114
0.0433139
0.0433081
0.043312
0.0433086
0.0433128
0.0433032
0.0433144
0.0432739
0.0434588
0.0533541
0.0432945
0.0432965
0.043296
0.0433004
0.043298
0.0433051
0.0432984
0.0433095
0.0432963
0.0433239
0.0432623
0.0433576
0.0544856
0.0464377
0.0433073
0.0433087
0.0433065
0.0433094
0.0433054
0.0433106
0.0433046
0.0433127
0.0433037
0.043313
0.0433175
0.0432826
0.0434506
0.0515346
0.0432986
0.0433005
0.0432987
0.0433032
0.0432989
0.0433065
0.0432985
0.0433097
0.0432971
0.0433111
0.0432943
0.0432927
0.0433171
0.0538802
0.043304
0.0433057
0.0433036
0.0433074
0.0433026
0.0433102
0.0433005
0.0433154
0.0432944
0.0433268
0.0432781
0.043362
0.0432065
0.0435283
0.0594097
0.0433004
0.0433024
0.0433
0.0433048
0.0432992
0.0433085
0.0432971
0.043314
0.043291
0.0433239
0.0432759
0.0433371
0.0432509
0.0433373
0.0552411
0.0433023
0.0433042
0.0433017
0.0433065
0.0433006
0.0433103
0.0432973
0.0433174
0.0432884
0.043334
0.0432701
0.0433683
0.0432062
0.0434524
0.0550174
0.043302
0.0433039
0.0433012
0.0433063
0.0432998
0.0433102
0.0432965
0.0433174
0.0432869
0.0433328
0.0432635
0.0433649
0.0432125
0.0434245
0.0543595
0.044867
0.0452712
0.0466458
0.0423552
0.0423835
0.0422686
0.0424599
0.0508899
0.0452599
0.0421435
0.042137
0.0421823
0.0421384
0.0422491
0.0423827
0.0528542
0.0454085
0.0422953
0.0422998
0.0422683
0.0422937
0.0422243
0.0422148
0.0422899
0.0423913
0.0506918
0.0475152
0.0421942
0.0422017
0.0422074
0.0422098
0.0422266
0.0422498
0.0421948
0.042207
0.0422511
0.0424784
0.0631748
0.0422628
0.042265
0.0422547
0.0422585
0.0422427
0.0422454
0.0422562
0.0422473
0.0422611
0.0420963
0.0424786
0.0608934
0.0422169
0.0422196
0.0422219
0.0422264
0.0422287
0.0422368
0.0422286
0.0422367
0.0422482
0.0422616
0.0422517
0.0549538
0.0422471
0.0422483
0.0422446
0.0422472
0.0422413
0.0422454
0.0422417
0.0422465
0.0422364
0.0422479
0.0422072
0.0423923
0.0522876
0.0422265
0.0422286
0.042228
0.0422328
0.0422301
0.0422379
0.0422309
0.0422427
0.0422291
0.0422574
0.0421955
0.0422911
0.053419
0.0453712
0.0422399
0.0422414
0.0422391
0.0422423
0.042238
0.0422437
0.0422373
0.0422461
0.0422368
0.0422465
0.0422507
0.0422161
0.042384
0.0504682
0.0422302
0.0422322
0.0422303
0.0422352
0.0422307
0.0422391
0.0422306
0.0422428
0.0422296
0.0422444
0.0422276
0.0422261
0.0422505
0.0528139
0.0422361
0.0422378
0.0422355
0.0422399
0.0422347
0.0422431
0.0422326
0.0422488
0.042227
0.0422601
0.0422109
0.0422955
0.0421398
0.0424623
0.0583435
0.0422318
0.0422339
0.0422313
0.0422368
0.0422308
0.0422411
0.0422289
0.0422471
0.0422232
0.0422568
0.0422077
0.0422705
0.0421856
0.0422718
0.054175
0.0422338
0.0422359
0.0422333
0.0422386
0.0422323
0.042243
0.0422293
0.0422507
0.0422206
0.0422654
0.0421954
0.0423006
0.0421479
0.0423884
0.0539513
0.0422331
0.0422353
0.0422324
0.0422382
0.0422314
0.0422428
0.0422283
0.0422506
0.0422191
0.0422658
0.0421958
0.0422976
0.0421468
0.0423595
0.0532934
0.0438007
0.044205
0.0455796
0.0412902
0.0413197
0.0412029
0.0413936
0.0498234
0.0441931
0.041078
0.0410802
0.0411173
0.0410719
0.0411825
0.0413161
0.0517876
0.044342
0.0412276
0.0412312
0.0412014
0.041227
0.0411576
0.0411482
0.0412233
0.0413248
0.0496253
0.0464488
0.0411264
0.0411261
0.0411392
0.0411427
0.0411598
0.0411831
0.041128
0.0411403
0.0411845
0.0414122
0.062111
0.0411954
0.041196
0.0411872
0.0411916
0.0411759
0.0411786
0.0411896
0.0411808
0.0411945
0.0410298
0.0414116
0.059827
0.0411493
0.0411518
0.0411543
0.0411592
0.0411613
0.0411699
0.0411614
0.0411699
0.0411814
0.041195
0.041185
0.0538872
0.0411801
0.0411814
0.0411776
0.0411804
0.0411743
0.0411787
0.0411748
0.0411799
0.0411696
0.0411813
0.0411405
0.0413258
0.0512211
0.0411586
0.0411607
0.04116
0.0411651
0.0411623
0.0411705
0.0411633
0.0411758
0.0411618
0.0411908
0.0411287
0.0412246
0.0523523
0.0443046
0.0411724
0.041174
0.0411716
0.0411751
0.0411706
0.0411767
0.0411702
0.0411793
0.0411699
0.0411797
0.0411839
0.0411496
0.0413173
0.0494016
0.0411618
0.0411639
0.041162
0.0411674
0.0411627
0.0411717
0.0411628
0.0411758
0.0411621
0.0411778
0.0411608
0.0411596
0.0411839
0.0517474
0.041168
0.0411699
0.0411675
0.0411723
0.0411668
0.041176
0.0411649
0.041182
0.0411597
0.0411935
0.041144
0.0412291
0.0410735
0.0413955
0.0572771
0.0411632
0.0411655
0.0411628
0.0411688
0.0411626
0.0411736
0.0411609
0.0411802
0.0411557
0.0411904
0.0411415
0.0412044
0.041118
0.041205
0.0531086
0.0411654
0.0411676
0.0411649
0.0411708
0.0411641
0.0411757
0.0411613
0.041184
0.0411532
0.0412
0.0411349
0.0412363
0.0410734
0.0413203
0.0528848
0.0411643
0.0411667
0.0411638
0.0411701
0.041163
0.0411754
0.0411602
0.0411839
0.0411516
0.0411994
0.0411294
0.0412319
0.0410795
0.0412921
0.0522268
0.0427345
0.0431389
0.0445134
0.0402225
0.0402511
0.040136
0.0403269
0.0487568
0.0431266
0.0400106
0.040004
0.0400496
0.0400054
0.0401159
0.0402495
0.050721
0.0432752
0.0401617
0.0401675
0.040135
0.0401604
0.0400909
0.0400816
0.0401567
0.0402582
0.0485586
0.0453822
0.0400603
0.0400667
0.0400732
0.0400758
0.040093
0.0401163
0.0400611
0.0400737
0.0401177
0.0403455
0.0610433
0.0401287
0.0401305
0.0401205
0.0401247
0.0401091
0.0401117
0.040123
0.0401141
0.0401278
0.0399631
0.0403451
0.0587604
0.0400819
0.0400844
0.0400868
0.0400919
0.0400938
0.0401031
0.0400942
0.0401032
0.0401145
0.0401284
0.0401182
0.0528206
0.0401131
0.0401144
0.0401105
0.0401135
0.0401073
0.040112
0.040108
0.0401131
0.0401027
0.0401146
0.0400738
0.0402592
0.0501544
0.0400905
0.0400927
0.040092
0.0400975
0.0400949
0.0401045
0.0400954
0.0401089
0.0400945
0.0401243
0.0400618
0.040158
0.0512856
0.0432378
0.0401049
0.0401066
0.0401041
0.0401079
0.0401033
0.0401097
0.040102
0.0401122
0.040103
0.0401129
0.0401172
0.040083
0.0402506
0.048335
0.0400935
0.0400958
0.0400939
0.0400996
0.0400948
0.0401043
0.0400948
0.0401088
0.0400946
0.0401111
0.040094
0.040093
0.0401173
0.0506807
0.0401
0.0401021
0.0400996
0.0401048
0.040099
0.0401088
0.0400974
0.0401152
0.0400925
0.0401267
0.0400769
0.0401624
0.0400065
0.0403294
0.0562105
0.0400947
0.0400972
0.0400945
0.0401009
0.0400944
0.0401062
0.040093
0.0401132
0.0400881
0.0401233
0.0400737
0.0401376
0.0400524
0.040139
0.0520422
0.0400971
0.0400994
0.0400966
0.040103
0.040096
0.0401085
0.0400935
0.0401171
0.0400856
0.0401319
0.0400614
0.0401678
0.0400144
0.0402556
0.0518184
0.0400957
0.0400983
0.0400954
0.0401022
0.0400948
0.040108
0.0400922
0.0401168
0.040084
0.0401324
0.0400619
0.0401646
0.0400134
0.0402267
0.0511604
0.0416684
0.0420726
0.0434471
0.0391575
0.0391872
0.0390702
0.0392605
0.0476903
0.04206
0.0389454
0.0389475
0.0389848
0.0389389
0.0390494
0.0391829
0.0496544
0.0422084
0.0390938
0.0390988
0.0390679
0.0390935
0.0390242
0.0390149
0.0390901
0.0391916
0.047492
0.0443153
0.0389924
0.0389908
0.0390049
0.0390087
0.0390262
0.0390497
0.0389942
0.039007
0.0390509
0.0392781
0.0599733
0.0390609
0.039061
0.0390527
0.0390576
0.0390422
0.0390447
0.0390565
0.0390474
0.0390612
0.0388964
0.0392791
0.0576938
0.0390142
0.0390165
0.0390191
0.0390247
0.0390263
0.0390362
0.0390268
0.0390364
0.0390475
0.0390618
0.0390514
0.0517539
0.0390459
0.0390473
0.0390432
0.0390464
0.0390401
0.0390447
0.039041
0.0390464
0.0390359
0.0390479
0.0390071
0.0391927
0.0490877
0.0390226
0.0390249
0.0390242
0.0390299
0.0390267
0.0390357
0.039028
0.0390421
0.0390272
0.0390578
0.0389948
0.0390914
0.0502188
0.042171
0.0390375
0.0390391
0.0390366
0.0390406
0.0390358
0.0390426
0.0390365
0.0390457
0.0390361
0.0390459
0.0390505
0.0390164
0.0391841
0.0472683
0.0390255
0.0390278
0.0390259
0.0390319
0.039027
0.0390371
0.0390275
0.039042
0.0390272
0.0390445
0.0390271
0.0390263
0.0390506
0.0496141
0.0390321
0.0390342
0.0390317
0.0390372
0.0390313
0.0390416
0.03903
0.0390483
0.0390253
0.03906
0.03901
0.0390958
0.0389401
0.0392624
0.0551439
0.0390264
0.039029
0.0390262
0.0390331
0.0390264
0.0390388
0.0390252
0.0390461
0.0390207
0.0390568
0.0390075
0.0390711
0.0389847
0.039072
0.0509755
0.0390289
0.0390313
0.0390285
0.0390352
0.0390281
0.0390411
0.0390257
0.0390501
0.0390184
0.0390664
0.0390007
0.0391028
0.0389404
0.0391873
0.0507517
0.0390275
0.0390301
0.0390271
0.0390343
0.0390267
0.0390405
0.0390243
0.0390497
0.0390167
0.0390658
0.0389954
0.0390986
0.0389461
0.0391592
0.0500936
0.0406022
0.0410063
0.0423806
0.0380906
0.0381203
0.0380034
0.0381936
0.0466237
0.0409935
0.037879
0.0378811
0.0379183
0.0378724
0.0379828
0.0381165
0.048588
0.0411421
0.0380268
0.0380318
0.0380009
0.0380265
0.0379574
0.0379483
0.0380236
0.0381254
0.0464255
0.0432489
0.0379257
0.0379238
0.0379381
0.0379419
0.0379593
0.0379831
0.0379273
0.0379404
0.0379844
0.0382156
0.0589243
0.0379937
0.0379938
0.0379855
0.0379905
0.0379755
0.0379775
0.03799
0.0379807
0.0379948
0.0378298
0.0382088
0.0566266
0.037947
0.0379492
0.0379518
0.0379575
0.0379589
0.0379694
0.0379595
0.0379696
0.0379804
0.0379952
0.0379842
0.0506871
0.0379787
0.03798
0.0379759
0.0379792
0.037973
0.0379778
0.0379741
0.0379796
0.037969
0.0379812
0.0379402
0.0381263
0.048021
0.0379549
0.0379572
0.0379565
0.0379624
0.0379594
0.0379697
0.0379603
0.0379752
0.0379598
0.0379912
0.0379277
0.0380249
0.0491519
0.0411045
0.0379699
0.0379716
0.0379691
0.0379733
0.0379684
0.0379755
0.0379682
0.0379785
0.0379692
0.0379789
0.0379837
0.0379498
0.0381176
0.0462018
0.0379574
0.0379598
0.0379579
0.0379641
0.0379591
0.0379696
0.0379596
0.0379749
0.0379596
0.0379778
0.0379602
0.0379597
0.037984
0.0485475
0.0379642
0.0379664
0.0379639
0.0379696
0.0379636
0.0379743
0.0379624
0.0379812
0.0379581
0.0379931
0.037943
0.038029
0.0378734
0.0381958
0.0540772
0.0379582
0.0379608
0.0379581
0.0379652
0.0379584
0.0379712
0.0379574
0.037979
0.0379532
0.0379897
0.0379398
0.0380042
0.0379188
0.0380057
0.0499088
0.0379608
0.0379633
0.0379605
0.0379675
0.0379602
0.0379737
0.037958
0.037983
0.037951
0.0379984
0.0379278
0.0380345
0.0378804
0.0381221
0.049685
0.0379594
0.0379619
0.037959
0.0379664
0.0379587
0.0379729
0.0379565
0.0379825
0.0379492
0.0379985
0.0379279
0.0380311
0.0378799
0.0380935
0.049027
0.0395356
0.0399396
0.0413139
0.0370219
0.0370504
0.0369355
0.0371262
0.045557
0.0399273
0.0368114
0.0368045
0.0368503
0.0368059
0.0369164
0.0370505
0.0475219
0.0400763
0.0369603
0.0369658
0.0369338
0.0369594
0.0368906
0.0368817
0.0369574
0.0370595
0.0453594
0.0421822
0.0368601
0.0368665
0.0368728
0.0368752
0.0368925
0.0369166
0.0368604
0.0368738
0.0369163
0.0371358
0.0577979
0.036927
0.0369288
0.0369188
0.0369234
0.0369085
0.0369102
0.0369235
0.0369141
0.036928
0.036763
0.0371539
0.0555618
0.0368802
0.0368825
0.0368847
0.0368905
0.0368914
0.0369027
0.036892
0.0369028
0.0369131
0.0369291
0.0369182
0.049621
0.0369114
0.0369126
0.0369085
0.0369119
0.0369058
0.0369106
0.0369072
0.0369128
0.0369021
0.0369145
0.0368734
0.0370603
0.0469545
0.0368873
0.0368896
0.0368888
0.0368949
0.0368915
0.0369019
0.036893
0.0369083
0.0368921
0.0369248
0.0368606
0.0369585
0.0480852
0.0400384
0.0369024
0.036904
0.0369014
0.0369058
0.0369008
0.0369082
0.0369013
0.0369115
0.0369022
0.0369118
0.0369169
0.0368832
0.0370514
0.0451355
0.0368895
0.0368919
0.03689
0.0368964
0.0368913
0.0369022
0.036892
0.0369077
0.0368921
0.036911
0.0368931
0.036893
0.0369174
0.0474808
0.0368964
0.0368985
0.036896
0.0369019
0.0368959
0.0369069
0.0368949
0.0369141
0.0368909
0.0369262
0.0368761
0.0369621
0.0368067
0.0371288
0.0530105
0.0368901
0.0368927
0.03689
0.0368973
0.0368905
0.0369037
0.0368897
0.0369117
0.0368859
0.036923
0.0368736
0.0369373
0.0368511
0.0369385
0.0488421
0.0368927
0.0368953
0.0368924
0.0368997
0.0368923
0.0369062
0.0368904
0.0369158
0.0368839
0.0369329
0.0368668
0.0369679
0.0368075
0.0370536
0.048618
0.0368913
0.0368938
0.0368908
0.0368985
0.0368908
0.0369053
0.0368888
0.0369151
0.0368819
0.0369315
0.0368613
0.0369648
0.0368126
0.037026
0.0479601
0.0384688
0.038873
0.0402474
0.0359556
0.035985
0.0358688
0.0360589
0.0444905
0.0388613
0.0357463
0.0357481
0.0357856
0.0357397
0.0358502
0.035985
0.0464563
0.0390111
0.0358917
0.0358961
0.035866
0.0358919
0.0358237
0.0358152
0.0358915
0.0359946
0.044294
0.0411181
0.0357926
0.0357911
0.0358051
0.0358084
0.0358257
0.0358501
0.0357934
0.0358075
0.0358528
0.0361025
0.0568871
0.0358588
0.0358593
0.0358508
0.035856
0.0358414
0.0358431
0.035857
0.0358478
0.035863
0.0356973
0.0360572
0.0544909
0.0358129
0.0358152
0.0358175
0.0358234
0.0358239
0.0358356
0.0358241
0.0358358
0.0358452
0.0358618
0.0358478
0.0485533
0.0358438
0.0358451
0.035841
0.0358445
0.0358384
0.0358433
0.03584
0.0358459
0.0358349
0.0358476
0.0358061
0.0359949
0.0458883
0.0358197
0.035822
0.0358212
0.0358274
0.0358239
0.0358347
0.0358251
0.0358411
0.0358242
0.0358582
0.0357932
0.0358923
0.0470186
0.0389727
0.0358347
0.0358363
0.0358338
0.0358382
0.0358333
0.0358408
0.035834
0.0358443
0.0358352
0.0358446
0.0358501
0.0358167
0.0359858
0.0440696
0.0358216
0.035824
0.0358221
0.0358286
0.0358236
0.0358347
0.0358243
0.0358404
0.0358245
0.0358439
0.035826
0.0358262
0.0358509
0.0464141
0.0358285
0.0358306
0.0358281
0.0358342
0.0358281
0.0358394
0.0358274
0.0358468
0.0358236
0.035859
0.0358091
0.0358949
0.0357408
0.0360612
0.0519438
0.035822
0.0358246
0.0358219
0.0358294
0.0358226
0.035836
0.035822
0.0358443
0.0358184
0.0358556
0.0358066
0.0358701
0.0357847
0.0358718
0.0477754
0.0358247
0.0358272
0.0358244
0.0358318
0.0358244
0.0358386
0.0358227
0.0358483
0.0358165
0.0358655
0.0357993
0.0359002
0.0357415
0.0359867
0.0475511
0.035823
0.0358256
0.0358226
0.0358305
0.0358228
0.0358376
0.0358211
0.0358475
0.0358144
0.0358638
0.0357934
0.0358981
0.0357463
0.0359595
0.0468934
0.0374032
0.0378072
0.0391816
0.034887
0.0349152
0.0348009
0.0349907
0.0434245
0.0377964
0.0346798
0.0346754
0.0347191
0.0346736
0.0347844
0.0349206
0.0453921
0.0379478
0.0348236
0.0348282
0.0347979
0.0348237
0.0347567
0.0347486
0.0348262
0.0349309
0.0432294
0.0400509
0.0347269
0.0347309
0.0347394
0.0347417
0.0347586
0.0347834
0.034726
0.0347399
0.0347784
0.0349688
0.0554964
0.0347912
0.0347927
0.0347832
0.0347884
0.034774
0.0347757
0.0347904
0.0347807
0.0347946
0.0346299
0.0350493
0.0534339
0.034746
0.0347485
0.0347504
0.0347563
0.0347563
0.0347681
0.0347554
0.0347684
0.0347762
0.034798
0.0347868
0.0474913
0.0347761
0.0347773
0.0347734
0.0347769
0.034771
0.0347758
0.0347728
0.0347786
0.0347675
0.0347812
0.0347393
0.034931
0.0448229
0.034752
0.0347545
0.0347537
0.03476
0.0347564
0.0347674
0.0347578
0.0347737
0.0347558
0.0347914
0.0347254
0.0348266
0.0459525
0.0379083
0.0347669
0.0347686
0.0347661
0.0347707
0.0347658
0.0347734
0.0347667
0.0347768
0.0347679
0.0347771
0.0347832
0.03475
0.0349215
0.0430047
0.0347535
0.0347562
0.0347542
0.0347609
0.0347559
0.0347672
0.0347568
0.034773
0.0347567
0.0347766