/*--------------------------------*- C++ -*----------------------------------*\
| =========                 |                                                 |
| \\      /  F ield         | OpenFOAM: The Open Source CFD Toolbox           |
|  \\    /   O peration     | Version:  2.1.1                                 |
|   \\  /    A nd           | Web:      www.OpenFOAM.org                      |
|    \\/     M anipulation  |                                                 |
\*---------------------------------------------------------------------------*/
FoamFile
{
    version     2.0;
    format      ascii;
    class       surfaceScalarField;
    location    "0.004";
    object      phi;
}
// * * * * * * * * * * * * * * * * * * * * * * * * * * * * * * * * * * * * * //

dimensions      [0 3 -1 0 0 0 0];

internalField   nonuniform List<scalar> 
29335
(
-5.8794e-13
-1.43268e-11
5.65018e-11
-4.15875e-11
1.4074e-12
-2.03513e-12
-1.41759e-11
4.9756e-11
-3.49524e-11
1.96612e-12
-8.44696e-12
1.52062e-11
-8.72536e-12
1.98226e-13
-2.30721e-13
8.72098e-10
6.19534e-11
6.27945e-11
-6.1962e-11
-6.28078e-11
-8.7205e-10
2.9065e-14
-1.10723e-13
8.78461e-10
6.46885e-11
6.60434e-11
-6.45424e-11
-6.59589e-11
-8.78412e-10
8.50935e-13
-2.87091e-13
9.74307e-10
5.7475e-11
4.00838e-11
-5.73906e-11
-4.07611e-11
-9.74248e-10
5.77873e-11
-3.2324e-13
7.61833e-10
4.26862e-11
4.82995e-11
-4.23492e-11
-4.82023e-11
4.4451e-11
-5.66504e-11
-4.48935e-11
-7.61786e-10
6.49464e-12
1.23849e-11
-1.35084e-11
1.16686e-10
-6.42694e-11
-2.54138e-12
-8.48009e-13
-9.65668e-12
4.23819e-11
-2.93359e-11
-2.69446e-13
-6.18726e-15
1.1257e-09
-1.12566e-09
-5.99223e-13
1.79535e-13
1.13982e-09
-1.13978e-09
-7.46124e-13
-1.8965e-13
1.18682e-09
-1.18677e-09
-1.96039e-12
8.3648e-13
1.16277e-09
-1.16272e-09
8.28369e-13
-1.34193e-12
9.01545e-10
4.65814e-11
5.50207e-11
-4.79185e-11
-5.51697e-11
-9.01506e-10
6.5016e-11
-2.37331e-13
7.22017e-10
5.79208e-11
6.15994e-11
-5.74744e-11
-6.08482e-11
4.4695e-11
-6.45945e-11
-4.52824e-11
-7.21983e-10
1.62866e-11
1.40265e-11
-1.44377e-11
1.02184e-10
-5.30431e-11
-1.87273e-12
-3.10513e-12
-1.12984e-11
5.15921e-11
-3.53158e-11
2.30132e-13
-2.87797e-13
1.12892e-09
-1.12887e-09
6.11986e-13
-2.50552e-13
1.13724e-09
-1.13719e-09
6.81223e-13
-3.08908e-13
1.15475e-09
-1.1547e-09
1.78534e-12
-3.1651e-13
1.16976e-09
-1.16971e-09
4.69347e-13
-7.5347e-14
1.15658e-09
-1.15653e-09
-7.39777e-13
9.20269e-13
1.1316e-09
-1.13154e-09
1.63566e-12
-1.23555e-12
8.81912e-10
4.69743e-11
5.88996e-11
-4.81557e-11
-5.8897e-11
-8.81872e-10
5.83577e-11
-3.07635e-13
7.46658e-10
5.84235e-11
6.28062e-11
-5.792e-11
-6.18926e-11
4.3784e-11
-5.72131e-11
-4.44418e-11
-7.46618e-10
1.14421e-11
6.02579e-12
-1.43665e-11
1.27796e-10
-7.25395e-11
2.65332e-12
-1.23313e-11
2.34891e-11
-1.38111e-11
-1.34785e-13
-1.73204e-13
1.13048e-09
-1.13046e-09
-2.85455e-13
-1.16145e-13
1.13483e-09
-1.13481e-09
-3.229e-13
-2.8997e-13
1.14049e-09
-1.14047e-09
-5.45821e-13
-1.20361e-13
1.14432e-09
-1.1443e-09
-1.22699e-13
-5.27325e-13
1.14705e-09
-1.14702e-09
9.42936e-13
-1.81172e-13
1.15507e-09
-1.15503e-09
-2.00978e-13
-1.33082e-13
1.14603e-09
-1.14599e-09
-1.62973e-12
1.07356e-12
1.13597e-09
-1.13592e-09
1.30533e-12
-1.75251e-12
8.80922e-10
4.52409e-11
5.28078e-11
-4.62842e-11
-5.29854e-11
-8.80883e-10
4.32782e-11
1.00612e-12
7.19389e-10
5.67712e-11
5.05467e-11
-5.62834e-11
-5.07671e-11
3.38248e-11
-4.23322e-11
-3.47814e-11
-7.19347e-10
1.06788e-11
4.51517e-11
-1.25523e-11
9.71038e-14
-2.88746e-13
1.13538e-09
-1.13537e-09
2.3799e-13
-2.69866e-13
1.1374e-09
-1.13739e-09
2.10112e-13
-2.79658e-13
1.13959e-09
-1.13957e-09
2.95577e-13
-2.22725e-13
1.13941e-09
-1.1394e-09
-1.26143e-14
-2.45942e-13
1.13676e-09
-1.13673e-09
-1.51585e-13
-7.2338e-14
1.13451e-09
-1.13448e-09
2.96251e-14
-3.46592e-13
1.13635e-09
-1.13632e-09
1.23745e-12
-1.78636e-13
1.14395e-09
-1.1439e-09
-9.78228e-13
4.16688e-13
1.13179e-09
-1.13175e-09
-1.01414e-12
9.7694e-13
1.12273e-09
-1.12266e-09
5.05603e-11
-1.31043e-12
7.20131e-10
3.37323e-11
4.32753e-11
-3.46868e-11
-4.2312e-11
5.67884e-11
-5.07856e-11
-5.63055e-11
-7.201e-10
1.8896e-11
4.72582e-11
-1.5593e-11
-3.85382e-14
-2.36485e-13
1.1385e-09
-1.13852e-09
-6.43433e-14
-2.26083e-13
1.13915e-09
-1.13917e-09
-8.03953e-14
-2.49509e-13
1.13986e-09
-1.13987e-09
-8.73499e-14
-2.06251e-13
1.13915e-09
-1.13916e-09
-8.81542e-14
-2.45188e-13
1.13647e-09
-1.13647e-09
-8.12396e-15
-1.58624e-13
1.13222e-09
-1.13221e-09
-3.0533e-13
-7.45729e-14
1.12759e-09
-1.12756e-09
-4.02393e-13
-1.06049e-13
1.12365e-09
-1.12362e-09
-4.21007e-13
3.98617e-13
1.12705e-09
-1.12702e-09
1.75148e-12
-1.2433e-12
1.13235e-09
-1.1323e-09
5.29576e-11
1.62499e-12
8.81418e-10
4.52676e-11
-5.31335e-11
-4.63117e-11
-8.8138e-10
-6.88439e-12
1.01917e-11
3.10778e-13
9.06165e-11
-4.12767e-11
4.51159e-14
-2.63008e-13
1.14033e-09
-1.14035e-09
9.4374e-14
-2.54152e-13
1.14032e-09
-1.14034e-09
1.11731e-13
-2.48445e-13
1.14022e-09
-1.14023e-09
1.36384e-13
-2.19998e-13
1.13924e-09
-1.13925e-09
9.95305e-14
-1.99488e-13
1.13707e-09
-1.13707e-09
9.52159e-14
-1.56153e-13
1.13388e-09
-1.13388e-09
1.15537e-13
-9.59117e-14
1.12983e-09
-1.12983e-09
1.03058e-13
-1.18475e-13
1.12493e-09
-1.1249e-09
1.75968e-13
3.00923e-13
1.12405e-09
-1.12402e-09
-1.07693e-12
-3.55655e-14
1.14433e-09
-1.14429e-09
3.03842e-13
1.9605e-13
1.13619e-09
-1.13614e-09
6.28074e-11
-1.63814e-12
7.46704e-10
4.3765e-11
5.83514e-11
-4.44257e-11
-5.72076e-11
5.84219e-11
-6.18927e-11
-5.79194e-11
-7.46662e-10
5.81775e-12
1.08257e-11
-4.47513e-12
1.07334e-10
-5.66942e-11
9.61392e-15
-2.25895e-13
1.14176e-09
-1.14181e-09
2.44805e-14
-2.20734e-13
1.14149e-09
-1.14153e-09
4.00062e-14
-2.18545e-13
1.14103e-09
-1.14107e-09
5.69873e-14
-2.00436e-13
1.13992e-09
-1.13996e-09
7.07278e-14
-1.83859e-13
1.13806e-09
-1.13809e-09
9.05274e-14
-1.58496e-13
1.13574e-09
-1.13576e-09
9.29789e-14
-9.39078e-14
1.13311e-09
-1.13312e-09
7.12514e-14
-9.80237e-14
1.13001e-09
-1.13e-09
3.43935e-13
9.36367e-16
1.12779e-09
-1.12776e-09
1.28483e-13
1.46546e-13
1.13656e-09
-1.13653e-09
1.23308e-12
-9.51358e-13
1.14615e-09
-1.14611e-09
5.89e-11
7.34541e-13
8.81921e-10
4.69689e-11
-5.88969e-11
-4.81516e-11
-8.81881e-10
5.54383e-12
1.26676e-11
-6.96429e-12
9.10746e-11
-4.34215e-11
-2.9126e-12
-4.89419e-12
2.65415e-11
-1.87347e-11
3.78628e-14
-2.09553e-13
1.14298e-09
-1.14304e-09
7.8897e-14
-2.06001e-13
1.14263e-09
-1.14269e-09
1.08185e-13
-1.95081e-13
1.14203e-09
-1.14209e-09
1.36319e-13
-1.84166e-13
1.14092e-09
-1.14096e-09
1.44295e-13
-1.53501e-13
1.13941e-09
-1.13945e-09
1.56475e-13
-1.46125e-13
1.13768e-09
-1.1377e-09
1.5373e-13
-7.46183e-14
1.13579e-09
-1.1358e-09
1.55722e-13
-1.02313e-13
1.13395e-09
-1.13394e-09
6.94624e-14
8.08713e-14
1.13231e-09
-1.13231e-09
1.77996e-13
4.82261e-15
1.13458e-09
-1.13455e-09
-9.24723e-13
1.14706e-13
1.15509e-09
-1.15505e-09
2.33257e-13
-4.76846e-13
1.13155e-09
-1.1315e-09
6.1598e-11
-8.32006e-13
7.21977e-10
4.47019e-11
6.50185e-11
-4.52877e-11
-6.45967e-11
5.79183e-11
-6.08489e-11
-5.74744e-11
-7.21942e-10
1.14127e-11
7.98715e-12
-8.41873e-12
1.19742e-10
-6.91243e-11
2.78288e-14
-1.67572e-13
1.14419e-09
-1.14427e-09
6.08362e-14
-1.66514e-13
1.14384e-09
-1.14391e-09
9.27434e-14
-1.57867e-13
1.14318e-09
-1.14325e-09
1.24105e-13
-1.55945e-13
1.14212e-09
-1.14218e-09
1.50834e-13
-1.27289e-13
1.14087e-09
-1.14092e-09
1.81484e-13
-1.38903e-13
1.13942e-09
-1.13946e-09
1.97394e-13
-6.15758e-14
1.13807e-09
-1.1381e-09
2.42737e-13
-1.40067e-13
1.13709e-09
-1.1371e-09
2.43325e-13
7.93633e-14
1.13649e-09
-1.13649e-09
5.2685e-13
-3.02665e-13
1.13677e-09
-1.13675e-09
7.06429e-14
5.40724e-13
1.14701e-09
-1.14698e-09
1.33662e-12
-1.79286e-12
1.15647e-09
-1.15642e-09
5.50193e-11
1.95597e-12
9.0145e-10
4.65739e-11
-5.51698e-11
-4.79129e-11
-9.01413e-10
5.83186e-12
1.00286e-11
-7.01311e-12
9.05061e-11
-4.43337e-11
3.9968e-14
-1.31998e-13
1.1454e-09
-1.14548e-09
8.24551e-14
-1.3147e-13
1.14504e-09
-1.14512e-09
1.21522e-13
-1.22341e-13
1.14432e-09
-1.1444e-09
1.54359e-13
-1.23386e-13
1.1434e-09
-1.14347e-09
1.83067e-13
-9.59152e-14
1.14219e-09
-1.14225e-09
1.98791e-13
-1.11457e-13
1.14092e-09
-1.14097e-09
2.17948e-13
-4.43804e-14
1.13992e-09
-1.13996e-09
2.03969e-13
-1.15976e-13
1.13923e-09
-1.13924e-09
2.20594e-13
7.20678e-14
1.13912e-09
-1.13913e-09
1.17648e-13
-2.1648e-13
1.13933e-09
-1.13932e-09
3.13379e-13
3.1794e-13
1.14416e-09
-1.14414e-09
-8.40159e-13
-6.87169e-13
1.16953e-09
-1.16948e-09
3.20128e-13
7.41607e-13
1.16249e-09
-1.16244e-09
4.82982e-11
-8.51776e-13
7.61676e-10
4.44629e-11
5.77919e-11
-4.49053e-11
-5.66561e-11
4.26828e-11
-4.82008e-11
-4.23466e-11
-7.61632e-10
3.43554e-12
6.93836e-12
6.21207e-11
-2.41955e-11
3.76112e-14
-8.59451e-14
1.14664e-09
-1.14673e-09
7.86737e-14
-8.66394e-14
1.14621e-09
-1.1463e-09
1.20464e-13
-8.09866e-14
1.14545e-09
-1.14554e-09
1.55867e-13
-8.51164e-14
1.14443e-09
-1.1445e-09
1.93269e-13
-6.4977e-14
1.1432e-09
-1.14327e-09
2.17005e-13
-8.27595e-14
1.14203e-09
-1.14208e-09
2.46616e-13
-2.92423e-14
1.14101e-09
-1.14106e-09
2.46432e-13
-9.93192e-14
1.1402e-09
-1.14021e-09
2.7708e-13
5.72252e-14
1.13979e-09
-1.13981e-09
2.87265e-13
-2.43263e-13
1.13947e-09
-1.13946e-09
3.0608e-13
2.79267e-13
1.14027e-09
-1.14026e-09
1.87572e-13
-6.17867e-13
1.1544e-09
-1.15435e-09
2.86544e-13
5.9348e-13
1.18629e-09
-1.18625e-09
4.00743e-11
-3.25041e-14
9.73818e-10
5.74314e-11
-4.07501e-11
-5.73453e-11
-9.7376e-10
-7.68643e-12
-1.02237e-12
9.09922e-11
-4.22101e-11
4.25959e-14
-4.20084e-14
1.14786e-09
-1.14795e-09
8.61799e-14
-4.33501e-14
1.14729e-09
-1.14738e-09
1.30837e-13
-4.09249e-14
1.14631e-09
-1.1464e-09
1.65627e-13
-4.33123e-14
1.14509e-09
-1.14517e-09
2.05295e-13
-3.25352e-14
1.14385e-09
-1.14392e-09
2.19664e-13
-4.17133e-14
1.14263e-09
-1.14269e-09
2.5237e-13
-1.42961e-14
1.14148e-09
-1.14152e-09
2.26854e-13
-4.98055e-14
1.14029e-09
-1.14031e-09
2.6843e-13
3.11715e-14
1.1391e-09
-1.13911e-09
1.15415e-13
-1.02962e-13
1.1373e-09
-1.13729e-09
2.48847e-13
1.29868e-13
1.13465e-09
-1.13464e-09
-1.81158e-13
-2.35289e-13
1.1369e-09
-1.13685e-09
1.082e-13
2.63518e-13
1.13919e-09
-1.13915e-09
6.59738e-11
-2.03874e-13
8.77712e-10
6.4611e-11
-6.58881e-11
-6.44668e-11
-8.77662e-10
4.37017e-12
1.30342e-11
-1.51391e-12
1.02022e-10
-5.19387e-11
4.04817e-14
1.1488e-09
-1.14889e-09
8.45166e-14
1.14789e-09
-1.14798e-09
1.30231e-13
1.14667e-09
-1.14676e-09
1.66383e-13
1.14543e-09
-1.14551e-09
2.09204e-13
1.1442e-09
-1.14428e-09
2.25511e-13
1.14298e-09
-1.14304e-09
2.61831e-13
1.14175e-09
-1.1418e-09
2.36783e-13
1.14031e-09
-1.14034e-09
2.86275e-13
1.13846e-09
-1.13848e-09
1.71965e-13
1.13532e-09
-1.13531e-09
2.87312e-13
1.13036e-09
-1.13034e-09
5.24933e-15
1.12874e-09
-1.12869e-09
2.27385e-13
1.12541e-09
-1.12537e-09
6.27359e-11
8.71781e-10
6.19501e-11
-6.27513e-11
-6.19642e-11
-8.71728e-10
-9.52348e-13
1.43381e-11
1.08322e-12
9.67877e-11
-4.85205e-11
-4.15884e-11
-5.88051e-13
-1.43279e-11
5.65026e-11
-3.49536e-11
1.40748e-12
-2.0349e-12
-1.41765e-11
4.97575e-11
-8.7257e-12
1.96608e-12
-8.44713e-12
1.52067e-11
2.00438e-13
-2.1956e-13
8.72138e-10
6.19557e-11
6.27965e-11
-6.19658e-11
-6.28111e-11
3.14069e-14
-1.02696e-13
8.78502e-10
6.4691e-11
6.60469e-11
-6.45456e-11
-6.5961e-11
8.54404e-13
-2.78152e-13
9.74354e-10
5.7477e-11
4.00862e-11
-5.73926e-11
-4.07619e-11
5.77912e-11
-3.17008e-13
7.61868e-10
4.26881e-11
4.83013e-11
-4.23505e-11
-4.82036e-11
4.4453e-11
-5.66505e-11
-4.48941e-11
-6.4272e-11
6.4938e-12
1.23865e-11
-1.3507e-11
1.1669e-10
-2.93369e-11
-2.54178e-12
-8.478e-13
-9.65677e-12
4.23833e-11
-2.78198e-13
2.3584e-14
1.12573e-09
-6.02519e-13
1.80621e-13
1.13986e-09
-7.58332e-13
-1.5985e-13
1.18686e-09
-1.97252e-12
8.56307e-13
1.16281e-09
8.23696e-13
-1.3327e-12
9.01575e-10
4.65815e-11
5.50214e-11
-4.79221e-11
-5.51747e-11
6.50177e-11
-2.28684e-13
7.22044e-10
5.79218e-11
6.16011e-11
-5.74782e-11
-6.0851e-11
4.46959e-11
-6.4597e-11
-4.52841e-11
-5.30451e-11
1.62861e-11
1.40269e-11
-1.44376e-11
1.02188e-10
-3.53169e-11
-1.87317e-12
-3.10478e-12
-1.12988e-11
5.15936e-11
2.34778e-13
-2.51641e-13
1.12896e-09
6.10167e-13
-2.26491e-13
1.13727e-09
6.85784e-13
-2.75328e-13
1.15479e-09
1.79034e-12
-2.87222e-13
1.1698e-09
4.72293e-13
-5.30544e-14
1.15662e-09
-7.3804e-13
9.42381e-13
1.13164e-09
1.63895e-12
-1.22516e-12
8.81944e-10
4.69755e-11
5.89009e-11
-4.81581e-11
-5.88998e-11
5.83623e-11
-3.01373e-13
7.4669e-10
5.84258e-11
6.28095e-11
-5.79226e-11
-6.18942e-11
4.3786e-11
-5.72132e-11
-4.44427e-11
-7.25425e-11
1.14435e-11
6.02715e-12
-1.43665e-11
1.27801e-10
-1.38116e-11
2.65359e-12
-1.23317e-11
2.34897e-11
-1.39971e-13
-1.2551e-13
1.13049e-09
-3.0457e-13
-6.2529e-14
1.13483e-09
-3.41975e-13
-2.50137e-13
1.1405e-09
-5.75012e-13
-7.24541e-14
1.14434e-09
-1.3738e-13
-5.20769e-13
1.14708e-09
9.33989e-13
-1.55672e-13
1.1551e-09
-2.15799e-13
-1.06803e-13
1.14607e-09
-1.63971e-12
1.08591e-12
1.13601e-09
1.30271e-12
-1.74781e-12
8.80951e-10
4.52419e-11
5.281e-11
-4.62867e-11
-5.29874e-11
4.32874e-11
1.00262e-12
7.19413e-10
5.67732e-11
5.05478e-11
-5.6286e-11
-5.07701e-11
3.38296e-11
-4.23267e-11
-3.47805e-11
-1.2534e-11
1.06693e-11
4.5152e-11
9.80781e-14
-2.39325e-13
1.13539e-09
2.40042e-13
-2.20952e-13
1.13742e-09
2.09206e-13
-2.33328e-13
1.1396e-09
2.98288e-13
-1.78091e-13
1.13943e-09
-3.15776e-14
-2.04686e-13
1.13678e-09
-1.70691e-13
-3.85258e-14
1.13454e-09
1.55275e-14
-3.18957e-13
1.13638e-09
1.22726e-12
-1.5855e-13
1.14398e-09
-9.87296e-13
4.32454e-13
1.13183e-09
-1.01781e-12
9.85629e-13
1.12277e-09
5.05642e-11
-1.30574e-12
7.2016e-10
3.37309e-11
4.32708e-11
-3.46884e-11
-4.23181e-11
5.67917e-11
-5.07858e-11
-5.63068e-11
-1.5592e-11
1.88969e-11
4.726e-11
-4.66417e-14
-1.97358e-13
1.1385e-09
-7.97419e-14
-1.87547e-13
1.13915e-09
-1.02655e-13
-2.02023e-13
1.13985e-09
-1.10691e-13
-1.71282e-13
1.13915e-09
-1.13113e-13
-2.00744e-13
1.13647e-09
-3.14065e-14
-1.23288e-13
1.13222e-09
-3.33642e-13
-3.34325e-14
1.12761e-09
-4.24112e-13
-8.73309e-14
1.12367e-09
-4.37882e-13
4.19494e-13
1.12708e-09
1.74564e-12
-1.23378e-12
1.13238e-09
5.29595e-11
1.63396e-12
8.81446e-10
4.52684e-11
-5.31353e-11
-4.63138e-11
-4.12792e-11
-6.88478e-12
1.01917e-11
3.10461e-13
9.06209e-11
3.96494e-14
-2.0879e-13
1.1403e-09
8.32474e-14
-2.0147e-13
1.14029e-09
9.50425e-14
-1.96291e-13
1.1402e-09
1.13834e-13
-1.73246e-13
1.13922e-09
7.26049e-14
-1.53745e-13
1.13706e-09
6.77673e-14
-1.20225e-13
1.13388e-09
9.20543e-14
-6.15728e-14
1.12983e-09
8.69053e-14
-9.57166e-14
1.12494e-09
1.55251e-13
3.2906e-13
1.12407e-09
-1.08901e-12
-2.26279e-14
1.14437e-09
2.98401e-13
2.10446e-13
1.13622e-09
6.28112e-11
-1.64092e-12
7.46734e-10
4.37671e-11
5.83551e-11
-4.44261e-11
-5.72074e-11
5.84249e-11
-6.18943e-11
-5.79212e-11
-5.66961e-11
5.81669e-12
1.0827e-11
-4.47445e-12
1.07338e-10
2.3276e-15
-1.7496e-13
1.14172e-09
9.46749e-15
-1.7129e-13
1.14145e-09
1.90045e-14
-1.69658e-13
1.14099e-09
2.92545e-14
-1.5587e-13
1.13989e-09
4.04488e-14
-1.41034e-13
1.13804e-09
5.50453e-14
-1.21123e-13
1.13573e-09
5.8082e-14
-5.942e-14
1.13311e-09
2.81414e-14
-7.06961e-14
1.13001e-09
3.15645e-13
2.61067e-14
1.1278e-09
1.01581e-13
1.65658e-13
1.13658e-09
1.22328e-12
-9.43268e-13
1.14618e-09
5.89021e-11
7.32182e-13
8.81952e-10
4.69703e-11
-5.88992e-11
-4.81537e-11
-4.34225e-11
5.54357e-12
1.26682e-11
-6.96442e-12
9.10772e-11
-1.87354e-11
-2.91243e-12
-4.8946e-12
2.65425e-11
3.04581e-14
-1.63929e-13
1.14294e-09
6.33405e-14
-1.6147e-13
1.14259e-09
8.51638e-14
-1.51327e-13
1.14199e-09
1.06422e-13
-1.43808e-13
1.14088e-09
1.09918e-13
-1.14907e-13
1.13938e-09
1.18616e-13
-1.12149e-13
1.13766e-09
1.17482e-13
-4.48246e-14
1.13577e-09
1.20132e-13
-7.5047e-14
1.13395e-09
3.5552e-14
1.05337e-13
1.13232e-09
1.52655e-13
2.46053e-14
1.1346e-09
-9.46241e-13
1.28668e-13
1.15511e-09
2.26107e-13
-4.80659e-13
1.13159e-09
6.16002e-11
-8.29406e-13
7.22004e-10
4.47033e-11
6.50211e-11
-4.52894e-11
-6.45988e-11
5.79201e-11
-6.08511e-11
-5.74764e-11
-6.91269e-11
1.14136e-11
7.98744e-12
-8.41917e-12
1.19746e-10
1.9019e-14
-1.28651e-13
1.14413e-09
4.27382e-14
-1.28545e-13
1.14378e-09
6.63611e-14
-1.20729e-13
1.14312e-09
9.02767e-14
-1.21136e-13
1.14208e-09
1.11817e-13
-9.39357e-14
1.14082e-09
1.38587e-13
-1.09129e-13
1.13939e-09
1.51747e-13
-3.42352e-14
1.13805e-09
1.98189e-13
-1.16998e-13
1.13708e-09
2.01772e-13
1.02472e-13
1.13649e-09
5.19262e-13
-3.05923e-13
1.13679e-09
4.8421e-14
5.68888e-13
1.14704e-09
1.32855e-12
-1.79913e-12
1.15651e-09
5.50202e-11
1.9662e-12
9.01479e-10
4.65742e-11
-5.51734e-11
-4.7916e-11
-4.4335e-11
5.83242e-12
1.0028e-11
-7.01453e-12
9.0509e-11
3.12905e-14
-1.02027e-13
1.14534e-09
6.40429e-14
-1.02442e-13
1.14498e-09
9.42157e-14
-9.38625e-14
1.14427e-09
1.19418e-13
-9.61134e-14
1.14335e-09
1.42585e-13
-6.99566e-14
1.14215e-09
1.54556e-13
-8.80759e-14
1.14089e-09
1.71503e-13
-2.35588e-14
1.13989e-09
1.72264e-13
-9.90449e-14
1.13921e-09
1.75743e-13
9.40237e-14
1.13912e-09
6.90081e-14
-2.15941e-13
1.13935e-09
2.83777e-13
3.35933e-13
1.14418e-09
-8.6038e-13
-6.92425e-13
1.16956e-09
3.12739e-13
7.52985e-13
1.16253e-09
4.83001e-11
-8.56909e-13
7.61712e-10
4.44655e-11
5.77963e-11
-4.49058e-11
-5.66553e-11
4.26848e-11
-4.82027e-11
-4.23482e-11
-2.41962e-11
3.43482e-12
6.93981e-12
6.21224e-11
2.81211e-14
-6.55485e-14
1.14657e-09
5.89964e-14
-6.66357e-14
1.14614e-09
9.17672e-14
-6.1309e-14
1.14539e-09
1.18774e-13
-6.60027e-14
1.14437e-09
1.49868e-13
-4.66592e-14
1.14314e-09
1.69035e-13
-6.66662e-14
1.14199e-09
1.94946e-13
-1.44346e-14
1.14098e-09
2.08755e-13
-8.94764e-14
1.14017e-09
2.30096e-13
7.37713e-14
1.13979e-09
2.47085e-13
-2.45773e-13
1.13949e-09
2.72106e-13
2.9894e-13
1.14029e-09
1.56884e-13
-6.15047e-13
1.15444e-09
2.74659e-13
5.97931e-13
1.18633e-09
4.00758e-11
-3.37795e-14
9.73864e-10
5.74311e-11
-4.07515e-11
-5.7349e-11
-4.22114e-11
-7.68588e-12
-1.02205e-12
9.09954e-11
3.32434e-14
-3.26615e-14
1.14779e-09
6.65923e-14
-3.32905e-14
1.14722e-09
1.02003e-13
-3.08178e-14
1.14625e-09
1.28063e-13
-3.35209e-14
1.14503e-09
1.6126e-13
-2.31976e-14
1.14379e-09
1.70428e-13
-3.40937e-14
1.14259e-09
1.99842e-13
-7.4537e-15
1.14144e-09
1.86345e-13
-4.56151e-14
1.14026e-09
2.19705e-13
3.96478e-14
1.1391e-09
6.19134e-14
-1.04052e-13
1.13732e-09
2.2506e-13
1.35434e-13
1.13465e-09
-1.81393e-13
-2.38844e-13
1.13693e-09
1.01998e-13
2.7365e-13
1.13923e-09
6.5977e-11
-2.04317e-13
8.77752e-10
6.46139e-11
-6.589e-11
-6.44685e-11
-5.19404e-11
4.37004e-12
1.30348e-11
-1.51325e-12
1.02026e-10
3.17035e-14
1.14872e-09
6.47002e-14
1.14782e-09
1.01174e-13
1.1466e-09
1.27905e-13
1.14537e-09
1.63516e-13
1.14414e-09
1.74349e-13
1.14294e-09
2.07589e-13
1.14171e-09
1.96143e-13
1.14028e-09
2.37088e-13
1.13846e-09
1.25104e-13
1.13533e-09
2.52232e-13
1.13037e-09
-2.24103e-14
1.12878e-09
2.18753e-13
1.12545e-09
6.27392e-11
8.71821e-10
6.19532e-11
-6.27532e-11
-6.19662e-11
-4.8522e-11
-9.52319e-13
1.43391e-11
1.08338e-12
9.67909e-11
-4.15896e-11
-5.8757e-13
-1.43281e-11
5.65041e-11
-3.49546e-11
1.40711e-12
-2.03432e-12
-1.4177e-11
4.97588e-11
-8.72585e-12
1.96617e-12
-8.44744e-12
1.52071e-11
2.04215e-13
-2.07081e-13
8.72171e-10
6.19554e-11
6.27966e-11
-6.19698e-11
-6.28147e-11
3.14824e-14
-8.66102e-14
8.78532e-10
6.46924e-11
6.60493e-11
-6.45483e-11
-6.59634e-11
8.57047e-13
-2.69333e-13
9.74391e-10
5.74778e-11
4.00875e-11
-5.73953e-11
-4.07628e-11
5.77941e-11
-3.10936e-13
7.61897e-10
4.2689e-11
4.83028e-11
-4.23519e-11
-4.82049e-11
4.44544e-11
-5.66509e-11
-4.48947e-11
-6.42745e-11
6.49397e-12
1.23871e-11
-1.35064e-11
1.16694e-10
-2.93382e-11
-2.54206e-12
-8.47814e-13
-9.65683e-12
4.23849e-11
-2.78567e-13
4.53102e-14
1.12575e-09
-6.11749e-13
2.29621e-13
1.13988e-09
-7.69037e-13
-1.39033e-13
1.18688e-09
-1.9825e-12
8.71898e-13
1.16284e-09
8.20787e-13
-1.32583e-12
9.01598e-10
4.65814e-11
5.50217e-11
-4.79248e-11
-5.51786e-11
6.50195e-11
-2.22333e-13
7.22067e-10
5.79222e-11
6.16017e-11
-5.74808e-11
-6.08533e-11
4.46968e-11
-6.45987e-11
-4.52854e-11
-5.30468e-11
1.62859e-11
1.40274e-11
-1.44376e-11
1.02191e-10
-3.53183e-11
-1.87332e-12
-3.10474e-12
-1.1299e-11
5.15953e-11
2.3383e-13
-2.24425e-13
1.12899e-09
6.12238e-13
-1.83166e-13
1.1373e-09
6.90098e-13
-2.50403e-13
1.15483e-09
1.79523e-12
-2.64855e-13
1.16983e-09
4.76049e-13
-3.95202e-14
1.15665e-09
-7.35848e-13
9.58671e-13
1.13167e-09
1.64162e-12
-1.21887e-12
8.81968e-10
4.69767e-11
5.89027e-11
-4.81597e-11
-5.89015e-11
5.8365e-11
-2.97348e-13
7.46713e-10
5.84277e-11
6.28121e-11
-5.79239e-11
-6.18952e-11
4.3788e-11
-5.72137e-11
-4.44437e-11
-7.2545e-11
1.14441e-11
6.02749e-12
-1.43663e-11
1.27805e-10
-1.38121e-11
2.65359e-12
-1.23319e-11
2.34904e-11
-1.48034e-13
-8.56608e-14
1.13049e-09
-3.15633e-13
-2.70033e-14
1.13484e-09
-3.56852e-13
-2.19901e-13
1.14051e-09
-5.97129e-13
-3.37106e-14
1.14435e-09
-1.50151e-13
-5.05492e-13
1.1471e-09
9.26496e-13
-1.37517e-13
1.15512e-09
-2.29108e-13
-8.68625e-14
1.14609e-09
-1.64894e-12
1.09437e-12
1.13603e-09
1.29671e-12
-1.7443e-12
8.80971e-10
4.52428e-11
5.28116e-11
-4.62884e-11
-5.29888e-11
4.32836e-11
1.00592e-12
7.19436e-10
5.67754e-11
5.05506e-11
-5.62871e-11
-5.07705e-11
3.38289e-11
-4.23321e-11
-3.47827e-11
-1.25452e-11
1.06754e-11
4.51539e-11
1.00223e-13
-2.02626e-13
1.13541e-09
2.4192e-13
-1.83958e-13
1.13743e-09
2.09005e-13
-1.98799e-13
1.13962e-09
3.01385e-13
-1.44493e-13
1.13945e-09
-4.30063e-14
-1.74917e-13
1.13679e-09
-1.85396e-13
-1.50829e-14
1.13456e-09
3.60825e-15
-2.98662e-13
1.1364e-09
1.21952e-12
-1.44068e-13
1.144e-09
-9.94431e-13
4.44603e-13
1.13185e-09
-1.01184e-12
9.9202e-13
1.1228e-09
5.0566e-11
-1.30257e-12
7.2018e-10
3.37335e-11
4.32759e-11
-3.4688e-11
-4.23154e-11
5.67939e-11
-5.07864e-11
-5.63073e-11
-1.55937e-11
1.88978e-11
4.72618e-11
-5.48834e-14
-1.49265e-13
1.1385e-09
-9.50365e-14
-1.40195e-13
1.13915e-09
-1.19624e-13
-1.76233e-13
1.13985e-09
-1.29457e-13
-1.37033e-13
1.13915e-09
-1.30273e-13
-1.72024e-13
1.13647e-09
-4.68738e-14
-9.75934e-14
1.13222e-09
-3.5572e-13
2.56581e-15
1.12761e-09
-4.40353e-13
-7.62798e-14
1.12369e-09
-4.49947e-13
4.35495e-13
1.1271e-09
1.74471e-12
-1.22757e-12
1.13241e-09
5.29614e-11
1.6417e-12
8.81467e-10
4.52697e-11
-5.31365e-11
-4.63154e-11
-4.12803e-11
-6.88503e-12
1.01919e-11
3.10603e-13
9.06238e-11
3.85896e-14
-1.69069e-13
1.14028e-09
7.99489e-14
-1.62832e-13
1.14027e-09
8.41831e-14
-1.58167e-13
1.14018e-09
9.8625e-14
-1.39053e-13
1.13921e-09
5.15998e-14
-1.19885e-13
1.13706e-09
4.53608e-14
-9.33132e-14
1.13389e-09
7.49713e-14
-3.60793e-14
1.12984e-09
7.10357e-14
-7.87192e-14
1.12495e-09
1.39692e-13
3.49846e-13
1.12409e-09
-1.09806e-12
-1.2982e-14
1.14439e-09
2.94708e-13
2.22412e-13
1.13625e-09
6.28143e-11
-1.64419e-12
7.46755e-10
4.37689e-11
5.83581e-11
-4.44259e-11
-5.72073e-11
5.8427e-11
-6.1895e-11
-5.79223e-11
-5.66979e-11
5.8171e-12
1.08279e-11
-4.47411e-12
1.07341e-10
-5.95304e-15
-1.35544e-13
1.14169e-09
-2.88965e-15
-1.33793e-13
1.14142e-09
2.42944e-15
-1.34048e-13
1.14096e-09
8.89981e-15
-1.22962e-13
1.13987e-09
1.90164e-14
-1.09658e-13
1.13802e-09
2.85895e-14
-9.27968e-14
1.13572e-09
3.25416e-14
-3.34536e-14
1.1331e-09
-7.48023e-15
-4.79972e-14
1.13002e-09
2.93843e-13
3.99607e-14
1.12781e-09
7.98472e-14
1.79754e-13
1.1366e-09
1.2158e-12
-9.3655e-13
1.1462e-09
5.89036e-11
7.30025e-13
8.81975e-10
4.69714e-11
-5.89015e-11
-4.81556e-11
-4.34234e-11
5.54372e-12
1.26688e-11
-6.96445e-12
9.10796e-11
-1.87362e-11
-2.91249e-12
-4.89468e-12
2.65433e-11
2.53171e-14
-1.30386e-13
1.14291e-09
5.20814e-14
-1.29173e-13
1.14256e-09
6.82847e-14
-1.19446e-13
1.14196e-09
8.4425e-14
-1.14144e-13
1.14086e-09
8.42715e-14
-8.62474e-14
1.13936e-09
9.06795e-14
-8.62034e-14
1.13765e-09
9.04059e-14
-2.34643e-14
1.13576e-09
9.41028e-14
-5.45225e-14
1.13395e-09
1.2271e-14
1.22453e-13
1.13232e-09
1.34217e-13
3.64974e-14
1.13462e-09
-9.62862e-13
1.41059e-13
1.15513e-09
2.20802e-13
-4.84012e-13
1.13163e-09
6.16022e-11
-8.26033e-13
7.22024e-10
4.4704e-11
6.50228e-11
-4.52907e-11
-6.46009e-11
5.79212e-11
-6.08529e-11
-5.74787e-11
-6.91293e-11
1.14146e-11
7.98793e-12
-8.41979e-12
1.19749e-10
1.25219e-14
-1.00484e-13
1.14408e-09
2.93737e-14
-1.01098e-13
1.14373e-09
4.73061e-14
-9.34915e-14
1.14308e-09
6.61509e-14
-9.52337e-14
1.14204e-09
8.35422e-14
-6.90263e-14
1.14079e-09
1.07377e-13
-8.68199e-14
1.13937e-09
1.17486e-13
-1.38834e-14
1.13803e-09
1.75423e-13
-1.0343e-13
1.13707e-09
1.7075e-13
1.23475e-13
1.13649e-09
5.03519e-13
-3.08739e-13
1.1368e-09
3.4468e-14
5.91231e-13
1.14706e-09
1.32234e-12
-1.80441e-12
1.15654e-09
5.50208e-11
1.97597e-12
9.01502e-10
4.65744e-11
-5.51772e-11
-4.79189e-11
-4.43359e-11
5.83282e-12
1.00276e-11
-7.01521e-12
9.05111e-11
2.50771e-14
-8.05192e-14
1.14529e-09
5.10166e-14
-8.12085e-14
1.14493e-09
7.49945e-14
-7.26465e-14
1.14422e-09
9.44754e-14
-7.5778e-14
1.14331e-09
1.13081e-13
-5.05521e-14
1.14211e-09
1.21447e-13
-7.07421e-14
1.14087e-09
1.3688e-13
-8.43683e-15
1.13987e-09
1.34649e-13
-8.92397e-14
1.1392e-09
1.41974e-13
1.13298e-13
1.13913e-09
3.10737e-14
-2.15623e-13
1.13937e-09
2.61282e-13
3.51448e-13
1.14419e-09
-8.76201e-13
-6.97247e-13
1.1696e-09
3.05528e-13
7.63358e-13
1.16257e-09
4.83013e-11
-8.60124e-13
7.6174e-10
4.44671e-11
5.77994e-11
-4.49063e-11
-5.66555e-11
4.26856e-11
-4.82042e-11
-4.23497e-11
-2.41971e-11
3.43485e-12
6.94016e-12
6.21244e-11
2.16314e-14
-5.08754e-14
1.14651e-09
4.5447e-14
-5.19064e-14
1.14609e-09
7.14754e-14
-4.68121e-14
1.14534e-09
9.24086e-14
-5.18753e-14
1.14433e-09
1.18223e-13
-3.31636e-14
1.1431e-09
1.33046e-13
-5.48942e-14
1.14196e-09
1.5643e-13
-3.71497e-15
1.14095e-09
1.72751e-13
-8.5162e-14
1.14015e-09
1.94926e-13
8.99488e-14
1.1398e-09
2.15869e-13
-2.47018e-13
1.1395e-09
2.46724e-13
3.10844e-13
1.1403e-09
1.34578e-13
-6.1684e-13
1.15447e-09
2.64252e-13
6.07526e-13
1.18636e-09
4.00768e-11
-3.36528e-14
9.739e-10
5.74309e-11
-4.07527e-11
-5.73523e-11
-4.22127e-11
-7.687e-12
-1.02099e-12
9.09979e-11
2.69799e-14
-2.61131e-14
1.14774e-09
5.31871e-14
-2.58145e-14
1.14717e-09
8.18213e-14
-2.34662e-14
1.14619e-09
1.01416e-13
-2.63406e-14
1.14499e-09
1.29116e-13
-1.65931e-14
1.14375e-09
1.32759e-13
-2.8624e-14
1.14256e-09
1.61178e-13
-1.97616e-15
1.14141e-09
1.39428e-13
-4.3502e-14
1.14024e-09
1.82956e-13
4.86455e-14
1.1391e-09
2.63997e-14
-1.05465e-13
1.13733e-09
1.80626e-13
1.45892e-13
1.13467e-09
-2.31501e-13
-2.37468e-13
1.13696e-09
8.5721e-14
2.74514e-13
1.13925e-09
6.59786e-11
-2.0705e-13
8.7778e-10
6.46153e-11
-6.58922e-11
-6.44711e-11
-5.19418e-11
4.3701e-12
1.30351e-11
-1.51299e-12
1.02028e-10
2.65479e-14
1.14866e-09
5.11509e-14
1.14776e-09
8.06336e-14
1.14655e-09
1.00577e-13
1.14532e-09
1.30508e-13
1.1441e-09
1.35811e-13
1.14291e-09
1.68084e-13
1.14168e-09
1.47764e-13
1.14026e-09
2.00636e-13
1.13846e-09
8.47766e-14
1.13534e-09
2.24627e-13
1.13038e-09
-4.37204e-14
1.1288e-09
2.09322e-13
1.12546e-09
6.2741e-11
8.71849e-10
6.1955e-11
-6.27555e-11
-6.19681e-11
-4.85229e-11
-9.52749e-13
1.43397e-11
1.08407e-12
9.67931e-11
-4.15911e-11
-5.8744e-13
-1.4328e-11
5.65061e-11
-3.49558e-11
1.40685e-12
-2.03427e-12
-1.41772e-11
4.97604e-11
-8.72599e-12
1.96618e-12
-8.44762e-12
1.52074e-11
2.04286e-13
-2.02723e-13
8.72202e-10
6.1956e-11
6.27972e-11
-6.19714e-11
-6.28164e-11
3.3048e-14
-8.77939e-14
8.78561e-10
6.46937e-11
6.60505e-11
-6.45495e-11
-6.59649e-11
8.61008e-13
-2.62674e-13
9.74421e-10
5.74778e-11
4.00883e-11
-5.73984e-11
-4.07638e-11
5.77973e-11
-3.06806e-13
7.6192e-10
4.26899e-11
4.8304e-11
-4.23527e-11
-4.82058e-11
4.44564e-11
-5.66502e-11
-4.48945e-11
-6.42766e-11
6.49481e-12
1.23879e-11
-1.35062e-11
1.16697e-10
-2.93392e-11
-2.54219e-12
-8.47778e-13
-9.65722e-12
4.23863e-11
-2.89229e-13
6.21686e-14
1.12578e-09
-6.1161e-13
2.02086e-13
1.13991e-09
-7.76687e-13
-1.21194e-13
1.1869e-09
-1.98972e-12
8.83068e-13
1.16287e-09
8.20073e-13
-1.32379e-12
9.01614e-10
4.65819e-11
5.50226e-11
-4.79263e-11
-5.51802e-11
6.50215e-11
-2.20025e-13
7.22082e-10
5.79238e-11
6.1603e-11
-5.74814e-11
-6.08546e-11
4.46982e-11
-6.45995e-11
-4.5286e-11
-5.30482e-11
1.62862e-11
1.40277e-11
-1.44379e-11
1.02193e-10
-3.53193e-11
-1.87337e-12
-3.10471e-12
-1.12991e-11
5.15965e-11
2.35862e-13
-2.04249e-13
1.12902e-09
6.10022e-13
-1.94203e-13
1.13732e-09
6.94278e-13
-2.31518e-13
1.15485e-09
1.80024e-12
-2.47866e-13
1.16986e-09
4.78456e-13
-2.78976e-14
1.15668e-09
-7.35534e-13
9.6949e-13
1.1317e-09
1.64251e-12
-1.21632e-12
8.81986e-10
4.69784e-11
5.89049e-11
-4.81604e-11
-5.8902e-11
5.83669e-11
-2.94652e-13
7.46727e-10
5.84296e-11
6.28146e-11
-5.79245e-11
-6.18956e-11
4.37889e-11
-5.72145e-11
-4.44447e-11
-7.25468e-11
1.14449e-11
6.0274e-12
-1.43664e-11
1.27807e-10
-1.38124e-11
2.65371e-12
-1.23321e-11
2.34908e-11
-1.52146e-13
-5.37748e-14
1.13049e-09
-3.30136e-13
-9.77424e-15
1.13484e-09
-3.70085e-13
-1.96736e-13
1.14051e-09
-6.13084e-13
-1.40041e-14
1.14436e-09
-1.60162e-13
-4.9565e-13
1.14712e-09
9.19823e-13
-1.25693e-13
1.15513e-09
-2.41347e-13
-7.29962e-14
1.14611e-09
-1.65712e-12
1.10054e-12
1.13605e-09
1.2929e-12
-1.74093e-12
8.80986e-10
4.52433e-11
5.28124e-11
-4.62901e-11
-5.29903e-11
4.32883e-11
1.00653e-12
7.19448e-10
5.67761e-11
5.05509e-11
-5.62889e-11
-5.07726e-11
3.38309e-11
-4.23294e-11
-3.47828e-11
-1.25363e-11
1.06711e-11
4.51542e-11
1.04314e-13
-1.75815e-13
1.13542e-09
2.43041e-13
-1.56668e-13
1.13744e-09
2.09715e-13
-1.73959e-13
1.13963e-09
3.02793e-13
-1.19762e-13
1.13946e-09
-5.10495e-14
-1.53987e-13
1.1368e-09
-1.9696e-13
4.45338e-15
1.13457e-09
-3.88498e-15
-2.83694e-13
1.13642e-09
1.21319e-12
-1.33194e-13
1.14402e-09
-1.0002e-12
4.54118e-13
1.13187e-09
-1.01382e-12
9.97647e-13
1.12282e-09
5.05679e-11
-1.29827e-12
7.20198e-10
3.37329e-11
4.32737e-11
-3.46901e-11
-4.23193e-11
5.67957e-11
-5.07864e-11
-5.63083e-11
-1.5593e-11
1.88982e-11
4.72625e-11
-6.10764e-14
-1.13835e-13
1.13849e-09
-1.07342e-13
-1.05713e-13
1.13914e-09
-1.34963e-13
-1.46343e-13
1.13985e-09
-1.48395e-13
-1.07119e-13
1.13915e-09
-1.44526e-13
-1.63595e-13
1.13647e-09
-5.69331e-14
-8.4686e-14
1.13222e-09
-3.69619e-13
1.98812e-14
1.12762e-09
-4.52133e-13
-6.27196e-14
1.1237e-09
-4.59802e-13
4.4753e-13
1.12711e-09
1.74123e-12
-1.2223e-12
1.13243e-09
5.29627e-11
1.64873e-12
8.81482e-10
4.52701e-11
-5.31377e-11
-4.63172e-11
-4.12802e-11
-6.88572e-12
1.01926e-11
3.11154e-13
9.06247e-11
3.88554e-14
-1.40764e-13
1.14027e-09