/*--------------------------------*- C++ -*----------------------------------*\
| =========                 |                                                 |
| \\      /  F ield         | OpenFOAM: The Open Source CFD Toolbox           |
|  \\    /   O peration     | Version:  2.1.1                                 |
|   \\  /    A nd           | Web:      www.OpenFOAM.org                      |
|    \\/     M anipulation  |                                                 |
\*---------------------------------------------------------------------------*/
FoamFile
{
    version     2.0;
    format      ascii;
    class       volVectorField;
    location    "0.004";
    object      U;
}
// * * * * * * * * * * * * * * * * * * * * * * * * * * * * * * * * * * * * * //

dimensions      [0 1 -1 0 0 0 0];

internalField   nonuniform List<vector> 
10266
(
(-7.03924e-07 -0.00497865 0.0217209)
(-0.000706021 -0.00468107 0.0197443)
(-0.00150357 -0.00127508 0.0104458)
(-3.6618e-05 -0.000260801 0.0882006)
(9.33749e-05 -0.000268164 0.0888706)
(-0.000116072 -0.000172618 0.0937309)
(0.000341918 -0.000494566 0.0751934)
(0.00143346 -0.00588825 0.0290443)
(0.00047017 -0.00324385 0.0180603)
(-9.52148e-06 0.000184991 0.112817)
(-5.56146e-05 0.000221117 0.113288)
(-3.57124e-05 0.000101235 0.116135)
(-0.000150709 0.000384592 0.113414)
(-0.000188997 -0.000278246 0.0885686)
(0.000391177 -0.000336235 0.0720223)
(0.00185242 -0.00881965 0.0308993)
(-0.00045498 -0.00451578 0.0192891)
(-4.71211e-06 -0.000161766 0.112303)
(6.12875e-05 -0.000157777 0.112562)
(3.92691e-05 -0.000118376 0.113494)
(0.000127893 -0.000145439 0.114767)
(0.000178791 4.83387e-05 0.114023)
(-9.38922e-05 0.000266773 0.11212)
(-2.97243e-05 -0.000370008 0.087576)
(0.000400868 -0.000396449 0.073703)
(0.000609222 -0.00602805 0.0313662)
(-0.00185445 -0.00423057 0.014929)
(-7.75034e-06 6.76882e-05 0.111956)
(-1.74756e-05 7.15461e-05 0.112108)
(-3.06634e-05 2.64992e-05 0.112318)
(-3.39276e-05 4.61144e-05 0.112611)
(-6.61158e-05 -6.66367e-05 0.113136)
(5.39193e-05 -4.10893e-05 0.114261)
(0.000100699 8.77031e-05 0.113534)
(-0.000131876 0.000307229 0.112345)
(-0.000230017 -0.000347116 0.0886965)
(0.000587362 -0.000468756 0.0704981)
(-0.0116401 0.00240603 0.0164906)
(2.15231e-07 -8.98195e-05 0.112159)
(2.40805e-05 -8.49917e-05 0.112243)
(2.07009e-05 -7.19711e-05 0.112319)
(3.26917e-05 -6.12282e-05 0.112292)
(2.26825e-05 -4.4329e-05 0.112193)
(-2.13567e-05 -8.9413e-06 0.112224)
(9.557e-07 -9.90695e-05 0.112675)
(3.64767e-06 -4.4261e-05 0.113776)
(0.000291214 5.29275e-05 0.113554)
(-0.000566856 0.000567291 0.11249)
(0.000466822 -0.000587686 0.0705334)
(-0.00860844 0.00416753 0.018886)
(-3.46382e-06 4.62477e-07 0.112308)
(-1.10707e-06 6.46649e-07 0.112339)
(-6.68713e-06 -1.14998e-05 0.112366)
(-1.91211e-06 -7.58104e-06 0.112331)
(-8.58535e-06 -2.4692e-05 0.112202)
(4.7395e-07 -1.55424e-05 0.112004)
(1.08135e-06 5.06019e-06 0.111815)
(-4.99656e-05 -6.12369e-06 0.111787)
(-1.94671e-05 1.90304e-05 0.112648)
(-5.35633e-05 -0.000291918 0.113567)
(0.000347347 0.000228909 0.0886936)
(-0.000615553 -0.00141438 0.0271275)
(5.74888e-07 -5.89727e-05 0.112387)
(1.24098e-05 -5.65644e-05 0.11239)
(1.25655e-05 -5.19996e-05 0.112384)
(1.97656e-05 -4.52532e-05 0.112345)
(1.69204e-05 -3.79038e-05 0.112255)
(1.39365e-05 -2.77676e-05 0.112118)
(1.40205e-05 -2.13958e-05 0.11193)
(1.97779e-05 -2.0217e-05 0.111678)
(5.6031e-06 4.95045e-05 0.111797)
(4.40233e-05 -4.18241e-06 0.113792)
(-0.000307905 0.000131781 0.112354)
(0.000396142 -0.000401136 0.0737053)
(0.00141645 -0.00215763 0.029629)
(-9.55751e-07 -2.38093e-05 0.112454)
(5.75696e-06 -2.34419e-05 0.112444)
(4.47535e-06 -2.50039e-05 0.112423)
(1.19263e-05 -2.32068e-05 0.112376)
(8.71311e-06 -2.32493e-05 0.112301)
(1.73803e-05 -2.0425e-05 0.112205)
(1.05769e-05 -1.11056e-05 0.112092)
(2.09218e-05 -1.44927e-05 0.111935)
(-5.57826e-06 -1.65301e-06 0.111824)
(9.87725e-05 -1.43594e-06 0.112684)
(-8.81641e-05 -0.000101485 0.113539)
(0.00036987 2.95348e-05 0.087576)
(0.000428379 -0.00447216 0.0268401)
(0.00042588 -0.00252119 0.016618)
(9.79259e-07 -4.43008e-05 0.112509)
(1.12545e-05 -4.29884e-05 0.112495)
(1.28275e-05 -4.01407e-05 0.112468)
(2.14509e-05 -3.64858e-05 0.112422)
(1.95636e-05 -3.10024e-05 0.112358)
(2.5888e-05 -2.6379e-05 0.112283)
(1.99489e-05 -1.80194e-05 0.112206)
(2.72801e-05 -1.4392e-05 0.112121)
(1.5012e-05 -1.12295e-06 0.112008)
(8.55537e-06 2.08821e-05 0.112227)
(4.05604e-05 -5.46826e-05 0.114262)
(-0.000267363 9.31457e-05 0.112117)
(0.000335773 -0.00039168 0.0720199)
(0.00157945 -0.00269696 0.0314668)
(3.78125e-07 -2.49454e-05 0.112564)
(9.89845e-06 -2.47391e-05 0.112549)
(1.09663e-05 -2.3768e-05 0.11252)
(2.10507e-05 -2.31619e-05 0.112476)
(1.88207e-05 -1.9463e-05 0.112421)
(3.03621e-05 -2.00467e-05 0.112359)
(2.27494e-05 -9.41529e-06 0.112302)
(3.74138e-05 -1.74456e-05 0.112256)
(2.41479e-05 7.84828e-06 0.112203)
(4.39316e-05 -2.33525e-05 0.112193)
(6.58999e-05 6.56111e-05 0.113133)
(-4.88357e-05 -0.000179429 0.114018)
(0.00027757 0.000188782 0.0885644)
(-0.000176187 -0.00433717 0.0269572)
(1.19728e-06 -3.02774e-05 0.112617)
(1.24277e-05 -2.9671e-05 0.112601)
(1.43997e-05 -2.7656e-05 0.112571)
(2.57422e-05 -2.64962e-05 0.112529)
(2.2679e-05 -2.18695e-05 0.112477)
(3.59331e-05 -2.21903e-05 0.112423)
(2.26845e-05 -1.27653e-05 0.112376)
(4.47257e-05 -2.04805e-05 0.112344)
(6.90276e-06 9.65064e-07 0.112329)
(6.10725e-05 -3.36483e-05 0.112288)
(-4.65811e-05 3.31757e-05 0.112604)
(0.000144985 -0.000128688 0.114757)
(-0.000385206 0.000150142 0.113402)
(0.000494266 -0.000342069 0.0751853)
(-0.00657574 -0.00230312 0.0221064)
(9.04733e-07 -1.60201e-05 0.112671)
(1.25174e-05 -1.59187e-05 0.112653)
(1.41422e-05 -1.48114e-05 0.112619)
(2.6837e-05 -1.49838e-05 0.112574)
(2.31373e-05 -1.16394e-05 0.112522)
(3.94759e-05 -1.34848e-05 0.112468)
(2.45259e-05 -5.16989e-06 0.112422)
(5.13976e-05 -1.32431e-05 0.112383)
(1.07129e-05 5.96817e-06 0.112363)
(7.17605e-05 -2.13841e-05 0.112314)
(-2.70552e-05 3.00574e-05 0.112309)
(0.000118079 -3.9806e-05 0.113479)
(-0.000101362 3.5276e-05 0.116114)
(0.000172482 0.000116057 0.0937155)
(-0.00668518 0.00298153 0.0250891)
(1.26956e-06 -1.46735e-05 0.112721)
(1.3636e-05 -1.44603e-05 0.112696)
(1.53358e-05 -1.34953e-05 0.112654)
(2.89125e-05 -1.34182e-05 0.112603)
(2.41787e-05 -1.09865e-05 0.11255)
(4.2411e-05 -1.22127e-05 0.112495)
(2.28971e-05 -6.73448e-06 0.112443)
(5.60098e-05 -1.33711e-05 0.112389)
(-1.32983e-06 2.1409e-07 0.112337)
(8.495e-05 -2.50692e-05 0.112239)
(-7.18463e-05 1.65965e-05 0.1121)
(0.000157508 -6.20234e-05 0.112547)
(-0.000221341 5.49307e-05 0.113265)
(0.000267825 -9.40162e-05 0.0888536)
(0.00152441 -0.00108358 0.0320773)
(8.58169e-07 -1.72844e-06 0.112754)
(1.36951e-05 -1.86769e-06 0.112721)
(1.51823e-05 -1.74144e-06 0.112672)
(2.93449e-05 -1.86246e-06 0.112618)
(2.43446e-05 -1.1793e-06 0.112564)
(4.37444e-05 -1.6682e-06 0.112508)
(2.33262e-05 1.65694e-07 0.112453)
(5.84532e-05 -1.29072e-06 0.112387)
(-1.27975e-06 2.63699e-06 0.112306)
(8.96283e-05 -9.78079e-07 0.112157)
(-6.79827e-05 6.89966e-06 0.111951)
(0.000161668 3.97192e-06 0.112296)
(-0.000185336 8.78791e-06 0.112806)
(0.000260113 3.56736e-05 0.0881931)
(0.0014785 0.000151045 0.029345)
(-5.96464e-07 -0.00497876 0.0217211)
(-0.00070594 -0.0046811 0.0197448)
(-0.00150361 -0.001275 0.0104462)
(-3.61347e-05 -0.000259345 0.0882052)
(9.35575e-05 -0.000267492 0.0888752)
(-0.000115953 -0.000171689 0.0937361)
(0.000342501 -0.000494173 0.0751976)
(0.00143372 -0.00588808 0.0290453)
(0.00047041 -0.00324399 0.0180608)
(-1.04414e-05 0.00018672 0.112821)
(-5.61108e-05 0.000222917 0.113292)
(-3.65788e-05 0.00010227 0.116139)
(-0.000152507 0.000385967 0.113419)
(-0.000189718 -0.000277397 0.0885721)
(0.00039084 -0.000336079 0.0720255)
(0.00185234 -0.00881954 0.0309003)
(-0.000454845 -0.00451581 0.0192896)
(-4.1583e-06 -0.000156737 0.112308)
(6.10617e-05 -0.000152354 0.112567)
(3.91686e-05 -0.000114557 0.113498)
(0.000128437 -0.000141422 0.114772)
(0.00017878 5.00778e-05 0.114027)
(-9.37597e-05 0.000269072 0.112125)
(-2.97818e-05 -0.000369156 0.0875797)
(0.000401506 -0.000396266 0.0737067)
(0.000609605 -0.00602835 0.0313673)
(-0.0018547 -0.00423066 0.0149293)
(-8.26701e-06 7.27197e-05 0.111957)
(-1.92098e-05 7.60019e-05 0.112109)
(-3.29613e-05 3.15051e-05 0.11232)
(-3.78214e-05 5.0033e-05 0.112613)
(-6.85046e-05 -6.25278e-05 0.113139)
(5.34734e-05 -3.80424e-05 0.114265)
(9.90249e-05 8.92851e-05 0.113539)
(-0.000133229 0.000308683 0.11235)
(-0.000231031 -0.000346983 0.0887001)
(0.000587932 -0.000469134 0.0705015)
(-0.0116397 0.00240421 0.0164943)
(2.22111e-07 -8.61355e-05 0.112161)
(2.38388e-05 -8.11309e-05 0.112245)
(2.00918e-05 -6.80495e-05 0.112321)
(3.23271e-05 -5.70825e-05 0.112294)
(2.17192e-05 -3.94093e-05 0.112196)
(-2.37552e-05 -4.96823e-06 0.112228)
(-7.56383e-07 -9.64584e-05 0.112679)
(2.75179e-06 -4.23333e-05 0.11378)
(0.000289363 5.40156e-05 0.113558)
(-0.000567529 0.000567706 0.112496)
(0.000467176 -0.000587443 0.0705364)
(-0.0086086 0.00416777 0.0188869)
(-3.86406e-06 1.06404e-05 0.112308)
(-2.64719e-06 1.04566e-05 0.112339)
(-8.73598e-06 -2.57642e-06 0.112365)
(-4.79907e-06 6.57455e-07 0.112331)
(-1.11486e-05 -1.83985e-05 0.112203)
(-2.30754e-06 -1.01125e-05 0.112005)
(-2.66362e-06 9.70503e-06 0.111818)
(-5.2853e-05 -2.66871e-06 0.111789)
(-2.21008e-05 2.14671e-05 0.112651)
(-5.46712e-05 -0.000290233 0.113571)
(0.000347038 0.000229899 0.0886971)
(-0.000615729 -0.0014145 0.0271292)
(2.13841e-07 -5.11928e-05 0.112385)
(1.09301e-05 -4.89705e-05 0.112388)
(1.04008e-05 -4.45419e-05 0.112383)
(1.67825e-05 -3.85462e-05 0.112344)
(1.31565e-05 -3.13826e-05 0.112255)
(9.88829e-06 -2.30631e-05 0.112119)
(1.0321e-05 -1.68114e-05 0.111931)
(1.66669e-05 -1.72256e-05 0.11168)
(1.9804e-06 5.23582e-05 0.111799)
(4.20899e-05 -3.31481e-06 0.113796)
(-0.000309311 0.000133106 0.112359)
(0.000396087 -0.000401609 0.073709)
(0.00141688 -0.00215726 0.0296299)
(-1.54972e-06 -1.56586e-05 0.112449)
(3.88993e-06 -1.55392e-05 0.11244)
(1.54091e-06 -1.7285e-05 0.112419)
(8.11702e-06 -1.6245e-05 0.112373)
(4.16077e-06 -1.66805e-05 0.112299)
(1.26753e-05 -1.47369e-05 0.112204)
(5.12365e-06 -5.83159e-06 0.112091)
(1.62987e-05 -1.0904e-05 0.111935)
(-1.03539e-05 1.96451e-06 0.111827)
(9.61091e-05 2.42647e-07 0.112687)
(-8.97648e-05 -9.98798e-05 0.113543)
(0.000369149 2.95578e-05 0.0875798)
(0.000428539 -0.00447217 0.0268407)
(0.000425843 -0.00252142 0.0166186)
(3.68769e-07 -3.70428e-05 0.112503)
(9.34295e-06 -3.59116e-05 0.11249)
(9.72348e-06 -3.321e-05 0.112463)
(1.73246e-05 -3.01012e-05 0.112418)
(1.45358e-05 -2.4985e-05 0.112355)
(2.05475e-05 -2.11638e-05 0.112281)
(1.41502e-05 -1.34544e-05 0.112205)
(2.25066e-05 -1.03286e-05 0.112122)
(9.48129e-06 1.48694e-06 0.112009)
(4.59622e-06 2.32513e-05 0.112231)
(3.74902e-05 -5.43249e-05 0.114265)
(-0.00026955 9.29308e-05 0.112122)
(0.000335844 -0.000391584 0.0720231)
(0.00157935 -0.00269703 0.0314679)
(-3.97361e-07 -1.81343e-05 0.112556)
(7.704e-06 -1.80783e-05 0.112542)
(7.34027e-06 -1.73128e-05 0.112513)
(1.63304e-05 -1.72145e-05 0.112471)
(1.31012e-05 -1.38572e-05 0.112416)
(2.4204e-05 -1.51227e-05 0.112355)
(1.61417e-05 -4.95664e-06 0.112299)
(3.08239e-05 -1.37047e-05 0.112256)
(1.7681e-05 1.03485e-05 0.112204)
(3.90374e-05 -2.24495e-05 0.112195)
(6.17047e-05 6.7914e-05 0.113137)
(-5.06382e-05 -0.000179526 0.114023)
(0.00027698 0.000189308 0.0885679)
(-0.000176736 -0.00433761 0.0269579)
(4.40694e-07 -2.48752e-05 0.112608)
(1.01608e-05 -2.44166e-05 0.112593)
(1.05832e-05 -2.25455e-05 0.112564)
(2.07667e-05 -2.167e-05 0.112522)
(1.66271e-05 -1.73278e-05 0.112472)
(2.94422e-05 -1.81512e-05 0.112418)
(1.56924e-05 -9.07751e-06 0.112373)
(3.79806e-05 -1.74811e-05 0.112343)
(-1.47115e-06 3.66131e-06 0.112329)
(5.69218e-05 -3.33908e-05 0.11229)
(-5.0567e-05 3.68672e-05 0.112607)
(0.000140904 -0.000129384 0.114762)
(-0.000386643 0.000151754 0.113406)
(0.000493587 -0.000343035 0.0751893)
(-0.00657587 -0.00230256 0.0221068)
(9.86861e-08 -1.18321e-05 0.112661)
(1.00312e-05 -1.18632e-05 0.112643)
(1.00877e-05 -1.08628e-05 0.11261)
(2.15471e-05 -1.12415e-05 0.112566)
(1.66298e-05 -8.11392e-06 0.112515)
(3.24616e-05 -1.03867e-05 0.112463)
(1.68716e-05 -2.31885e-06 0.112418)
(4.38019e-05 -1.11929e-05 0.112382)
(1.4936e-06 7.96752e-06 0.112363)
(6.78559e-05 -2.08352e-05 0.112316)
(-3.21803e-05 3.23391e-05 0.112311)
(0.000114226 -3.97323e-05 0.113484)
(-0.000102485 3.61378e-05 0.116119)
(0.00017093 0.000115924 0.0937206)
(-0.00668504 0.0029816 0.0250899)
(4.54292e-07 -1.22741e-05 0.11271)
(1.11293e-05 -1.20681e-05 0.112686)
(1.12056e-05 -1.11672e-05 0.112645)
(2.35135e-05 -1.11655e-05 0.112595)
(1.74816e-05 -8.84338e-06 0.112542)
(3.52446e-05 -1.03739e-05 0.11249)
(1.48556e-05 -4.99637e-06 0.112439)
(4.84113e-05 -1.22201e-05 0.112386)
(-1.1221e-05 1.75568e-06 0.112336)
(8.11169e-05 -2.48946e-05 0.11224)
(-7.63337e-05 1.83172e-05 0.112101)
(0.000152062 -6.16363e-05 0.112552)
(-0.000223033 5.56206e-05 0.113269)
(0.000267379 -9.39675e-05 0.0888583)
(0.00152484 -0.0010834 0.0320783)
(2.04521e-07 -1.06085e-06 0.112743)
(1.11374e-05 -1.04101e-06 0.112711)
(1.09883e-05 -8.88569e-07 0.112663)
(2.38703e-05 -1.09062e-06 0.11261)
(1.74227e-05 -4.08391e-07 0.112557)
(3.63247e-05 -1.06073e-06 0.112503)
(1.49842e-05 7.27899e-07 0.112448)
(5.06654e-05 -9.41635e-07 0.112384)
(-1.14927e-05 3.00295e-06 0.112306)
(8.59437e-05 -9.04063e-07 0.112158)
(-7.29036e-05 7.37078e-06 0.111953)
(0.000156854 3.61336e-06 0.1123)
(-0.000186779 9.92335e-06 0.11281)
(0.000259118 3.54141e-05 0.0881981)
(0.001479 0.000150876 0.0293459)
(-3.79615e-07 -0.00497873 0.0217217)
(-0.000705688 -0.00468113 0.0197453)
(-0.00150376 -0.00127493 0.0104464)
(-3.56521e-05 -0.000257685 0.0882089)
(9.37359e-05 -0.000266458 0.0888789)
(-0.000115987 -0.000170533 0.0937403)
(0.000343049 -0.00049359 0.0752008)
(0.00143375 -0.00588825 0.0290464)
(0.000470567 -0.00324414 0.0180616)
(-1.09585e-05 0.000188066 0.112824)
(-5.64995e-05 0.000223953 0.113296)
(-3.76068e-05 0.000102961 0.116143)
(-0.000154072 0.000387049 0.113422)
(-0.000190282 -0.000276716 0.0885748)
(0.000390717 -0.000335904 0.072028)
(0.00185237 -0.00881949 0.0309013)
(-0.000454828 -0.00451583 0.0192903)
(-3.96192e-06 -0.000152734 0.112311)
(6.07931e-05 -0.000148737 0.11257)
(3.92806e-05 -0.00011176 0.113502)
(0.000128935 -0.000138162 0.114776)
(0.00017885 5.14807e-05 0.114031)
(-9.35481e-05 0.000270751 0.112129)
(-2.9811e-05 -0.000368681 0.0875827)
(0.000401967 -0.000396225 0.0737095)
(0.00060964 -0.0060285 0.0313684)
(-0.00185469 -0.00423076 0.0149298)
(-9.12091e-06 7.64597e-05 0.111958)
(-2.08447e-05 7.96765e-05 0.11211)
(-3.43981e-05 3.53984e-05 0.112321)
(-4.08038e-05 5.30009e-05 0.112615)
(-7.05966e-05 -5.93635e-05 0.113142)
(5.30546e-05 -3.5683e-05 0.114268)
(9.75816e-05 9.03375e-05 0.113542)
(-0.000134526 0.000309739 0.112353)
(-0.000232054 -0.000346877 0.0887027)
(0.000587408 -0.00046933 0.0705039)
(-0.0116407 0.00240538 0.0164928)
(3.85077e-07 -8.31547e-05 0.112163)
(2.3743e-05 -7.75837e-05 0.112247)
(1.95273e-05 -6.51574e-05 0.112323)
(3.20881e-05 -5.39529e-05 0.112296)
(2.11143e-05 -3.59763e-05 0.112198)
(-2.56712e-05 -2.11331e-06 0.11223)
(-2.1687e-06 -9.44255e-05 0.112682)
(2.03111e-06 -4.09532e-05 0.113783)
(0.000287944 5.48625e-05 0.113562)
(-0.000567895 0.000568223 0.1125)
(0.00046813 -0.000587535 0.0705389)
(-0.00860893 0.00416798 0.0188877)
(-4.20361e-06 1.83649e-05 0.112308)
(-4.40678e-06 1.78541e-05 0.112339)
(-1.06152e-05 4.52579e-06 0.112365)
(-7.22824e-06 7.2058e-06 0.112332)
(-1.35074e-05 -1.33885e-05 0.112203)
(-4.14364e-06 -5.85074e-06 0.112006)
(-5.61028e-06 1.31616e-05 0.11182)
(-5.53828e-05 -2.6555e-08 0.111792)
(-2.41497e-05 2.34531e-05 0.112654)
(-5.54648e-05 -0.000288932 0.113575)
(0.000347338 0.000230684 0.0886998)
(-0.000615842 -0.00141444 0.02713)
(8.58702e-08 -4.5814e-05 0.112382)
(1.02242e-05 -4.36118e-05 0.112386)
(8.99945e-06 -3.88761e-05 0.112381)
(1.44616e-05 -3.35969e-05 0.112343)
(1.02759e-05 -2.63002e-05 0.112255)
(6.4268e-06 -1.93678e-05 0.112119)
(7.28636e-06 -1.34595e-05 0.111932)
(1.44682e-05 -1.50658e-05 0.111682)
(-7.96323e-07 5.47739e-05 0.111802)
(4.05564e-05 -2.8313e-06 0.113799)
(-0.000310383 0.000134221 0.112362)
(0.000396146 -0.000402169 0.0737117)
(0.00141721 -0.00215738 0.0296308)
(-1.98261e-06 -8.73364e-06 0.112445)
(2.41071e-06 -8.92017e-06 0.112436)
(-7.49899e-07 -1.12187e-05 0.112416)
(5.11305e-06 -1.06649e-05 0.112371)
(5.56811e-07 -1.15819e-05 0.112297)
(9.12034e-06 -1.02582e-05 0.112203)
(6.50108e-07 -1.50882e-06 0.112091)
(1.28341e-05 -7.92374e-06 0.111936)
(-1.40822e-05 4.69398e-06 0.111828)
(9.39464e-05 1.51257e-06 0.11269)
(-9.08828e-05 -9.85472e-05 0.113546)
(0.000368454 2.95213e-05 0.0875826)
(0.000428698 -0.00447233 0.0268413)
(0.000425836 -0.00252146 0.0166191)
(-4.36207e-08 -3.12984e-05 0.112498)
(7.77921e-06 -3.03819e-05 0.112486)
(7.28443e-06 -2.77934e-05 0.112459)
(1.40394e-05 -2.51145e-05 0.112415)
(1.05589e-05 -2.02494e-05 0.112352)
(1.63097e-05 -1.69597e-05 0.112279)
(9.61714e-06 -1.00016e-05 0.112204)
(1.87088e-05 -6.83632e-06 0.112122)
(5.00372e-06 3.17317e-06 0.112009)
(1.67777e-06 2.51218e-05 0.112233)
(3.50439e-05 -5.39701e-05 0.114268)
(-0.00027126 9.27529e-05 0.112126)
(0.000335944 -0.000391348 0.0720255)
(0.0015794 -0.00269731 0.031469)
(-9.79223e-07 -1.28279e-05 0.11255)
(5.89761e-06 -1.29313e-05 0.112536)
(4.5074e-06 -1.2309e-05 0.112508)
(1.26476e-05 -1.25447e-05 0.112466)
(8.71577e-06 -9.45724e-06 0.112412)
(1.93658e-05 -1.1201e-05 0.112353)
(1.09556e-05 -1.42607e-06 0.112297)
(2.55817e-05 -1.10587e-05 0.112255)
(1.23284e-05 1.27197e-05 0.112204)
(3.55717e-05 -2.18706e-05 0.112197)
(5.85548e-05 6.99469e-05 0.113139)
(-5.21132e-05 -0.000179612 0.114026)
(0.000276454 0.000189846 0.0885706)
(-0.000177172 -0.00433786 0.0269585)
(-1.16493e-07 -2.06527e-05 0.112602)
(8.29489e-06 -2.02697e-05 0.112587)
(7.66748e-06 -1.84578e-05 0.112558)
(1.68783e-05 -1.77952e-05 0.112517)
(1.19015e-05 -1.37011e-05 0.112467)
(2.43333e-05 -1.49484e-05 0.112415)
(9.87767e-06 -6.15978e-06 0.112371)
(3.30132e-05 -1.54712e-05 0.112342)
(-8.02517e-06 6.22643e-06 0.11233)
(5.36653e-05 -3.31728e-05 0.112292)
(-5.35963e-05 3.98304e-05 0.112609)
(0.000137617 -0.000129976 0.114766)
(-0.000387782 0.000153265 0.11341)
(0.000492746 -0.000343647 0.0751925)
(-0.006576 -0.00230266 0.0221076)
(-5.1663e-07 -8.60581e-06 0.112654)
(8.08973e-06 -8.68406e-06 0.112636)
(6.98238e-06 -7.75054e-06 0.112603)
(1.74029e-05 -8.30387e-06 0.11256)
(1.15713e-05 -5.3386e-06 0.112509)
(2.69118e-05 -7.95908e-06 0.112459)
(1.04892e-05 -1.12498e-07 0.112415)
(3.81976e-05 -9.8671e-06 0.11238)
(-5.66243e-06 9.88114e-06 0.112363)
(6.47776e-05 -2.02811e-05 0.112318)
(-3.61225e-05 3.38311e-05 0.112312)
(0.000111314 -3.98822e-05 0.113488)
(-0.000103255 3.71426e-05 0.116122)
(0.000169481 0.000115897 0.0937247)
(-0.00668483 0.00298217 0.0250906)
(-1.41339e-07 -1.03792e-05 0.112702)
(9.14897e-06 -1.01565e-05 0.112678)
(8.04779e-06 -9.33027e-06 0.112638)
(1.9288e-05 -9.37652e-06 0.112589)
(1.22455e-05 -7.17389e-06 0.112537)
(2.95652e-05 -8.92619e-06 0.112486)
(7.93771e-06 -3.58691e-06 0.112436)
(4.31538e-05 -1.15099e-05 0.112384)
(-1.8559e-05 3.42399e-06 0.112337)
(7.74619e-05 -2.47402e-05 0.112242)
(-8.0103e-05 1.99919e-05 0.112102)
(0.000148328 -6.12932e-05 0.112555)
(-0.000224123 5.60856e-05 0.113272)
(0.000266364 -9.40436e-05 0.0888619)
(0.00152496 -0.00108339 0.032079)
(-1.18676e-07 -6.19337e-07 0.112735)
(9.13785e-06 -4.00635e-07 0.112703)
(7.76067e-06 -2.4897e-07 0.112655)
(1.95587e-05 -5.00841e-07 0.112603)
(1.20226e-05 1.36718e-07 0.112551)
(3.0514e-05 -6.33476e-07 0.112499)
(7.86332e-06 1.12933e-06 0.112445)
(4.53266e-05 -6.896e-07 0.112381)
(-1.92165e-05 3.39463e-06 0.112306)
(8.29069e-05 -9.8372e-07 0.11216)
(-7.66887e-05 8.32516e-06 0.111954)
(0.000152762 3.46476e-06 0.112304)
(-0.000187966 1.05244e-05 0.112813)
(0.000258133 3.50977e-05 0.0882016)
(0.00147936 0.000151024 0.0293464)
(-3.66268e-07 -0.00497861 0.0217225)
(-0.000705611 -0.0046811 0.019746)
(-0.00150375 -0.00127494 0.0104465)
(-3.54346e-05 -0.00025681 0.0882123)
(9.37497e-05 -0.000266167 0.088882)
(-0.000115914 -0.000169414 0.0937436)
(0.000343861 -0.000493079 0.0752034)
(0.00143392 -0.00588857 0.0290473)
(0.000470602 -0.0032443 0.0180622)
(-1.18622e-05 0.000188932 0.112826)
(-5.70055e-05 0.00022486 0.113298)
(-3.80388e-05 0.00010347 0.116145)
(-0.000155213 0.00038782 0.113425)
(-0.000190649 -0.000276629 0.0885769)
(0.000390876 -0.000336145 0.07203)
(0.00185244 -0.00881954 0.030902)
(-0.000454833 -0.00451582 0.0192908)
(-3.7385e-06 -0.000149599 0.112315)
(6.04413e-05 -0.00014527 0.112573)
(3.92381e-05 -0.000109501 0.113506)
(0.000129437 -0.000135719 0.114779)
(0.000178907 5.24316e-05 0.114035)
(-9.35336e-05 0.000271787 0.112132)
(-2.99793e-05 -0.000368693 0.0875849)
(0.000402182 -0.000396282 0.0737115)
(0.000609637 -0.00602874 0.031369)
(-0.00185472 -0.00423087 0.0149301)
(-9.67324e-06 7.91593e-05 0.111959)
(-2.22863e-05 8.25119e-05 0.112111)
(-3.58904e-05 3.83607e-05 0.112322)
(-4.3247e-05 5.5434e-05 0.112616)
(-7.22797e-05 -5.71622e-05 0.113144)
(5.26677e-05 -3.38888e-05 0.11427)
(9.62776e-05 9.10591e-05 0.113544)
(-0.000135748 0.000310551 0.112356)
(-0.000232814 -0.000346579 0.0887046)
(0.000587325 -0.000469161 0.0705056)
(-0.0116406 0.00240463 0.0164941)
(7.36423e-07 -8.05961e-05 0.112164)
(2.36641e-05 -7.46864e-05 0.112248)
(1.91092e-05 -6.27465e-05 0.112324)
(3.18229e-05 -5.12279e-05 0.112298)
(2.0487e-05 -3.36964e-05 0.112199)
(-2.71552e-05 -2.58259e-07 0.112232)
(-3.45946e-06 -9.30302e-05 0.112684)
(1.37918e-06 -3.9857e-05 0.113786)
(0.000286748 5.55103e-05 0.113564)
(-0.000568343 0.000568499 0.112503)
(0.000468385 -0.000587206 0.0705408)
(-0.00860914 0.00416805 0.0188878)
(-4.42625e-06 2.40813e-05 0.112308)
(-6.0272e-06 2.3207e-05 0.112339)
(-1.23004e-05 9.68839e-06 0.112366)
(-9.79383e-06 1.19833e-05 0.112332)
(-1.6053e-05 -9.33863e-06 0.112204)
(-5.42115e-06 -2.38459e-06 0.112006)
(-7.69036e-06 1.60302e-05 0.111821)
(-5.74093e-05 1.99752e-06 0.111793)
(-2.58903e-05 2.51709e-05 0.112656)
(-5.61831e-05 -0.000287795 0.113577)
(0.00034708 0.000231453 0.0887018)
(-0.000615777 -0.00141417 0.0271299)
(1.11528e-07 -4.23455e-05 0.11238)
(9.60191e-06 -4.0159e-05 0.112384)
(8.01503e-06 -3.50735e-05 0.112379)
(1.30912e-05 -3.01605e-05 0.112342)
(8.34242e-06 -2.22019e-05 0.112254)
(3.76814e-06 -1.61469e-05 0.112119)
(4.55708e-06 -1.07739e-05 0.111933)
(1.26693e-05 -1.32661e-05 0.111683)
(-2.87975e-06 5.66879e-05 0.111803)
(3.9228e-05 -2.41416e-06 0.113801)
(-0.000311518 0.000135259 0.112364)
(0.000395755 -0.000402395 0.0737136)
(0.00141741 -0.00215744 0.0296312)
(-2.3443e-06 -2.76332e-06 0.112442)
(1.11791e-06 -3.29008e-06 0.112433)
(-2.45496e-06 -5.96231e-06 0.112413)
(2.84987e-06 -5.88832e-06 0.112369)
(-2.19824e-06 -7.50686e-06 0.112295)
(6.43605e-06 -6.65115e-06 0.112202)
(-2.84447e-06 1.8145e-06 0.112091)
(1.00407e-05 -5.25821e-06 0.111937)
(-1.71892e-05 6.55631e-06 0.11183)
(9.23829e-05 2.69943e-06 0.112692)
(-9.178e-05 -9.73622e-05 0.113548)
(0.000367772 2.96861e-05 0.0875848)
(0.000428597 -0.00447223 0.0268416)
(0.000425904 -0.00252157 0.0166194)
(-3.30975e-07 -2.6774e-05 0.112495)
(6.44446e-06 -2.60028e-05 0.112483)
(5.44742e-06 -2.33978e-05 0.112456)
(1.14899e-05 -2.11025e-05 0.112413)
(7.46012e-06 -1.64824e-05 0.11235)
(1.28987e-05 -1.36038e-05 0.112279)
(5.94542e-06 -7.42651e-06 0.112203)
(1.54434e-05 -4.31018e-06 0.112123)
(1.45263e-06 4.52182e-06 0.11201)
(-2.74621e-07 2.65554e-05 0.112235)
(3.30242e-05 -5.36079e-05 0.11427)
(-0.00027257 9.27976e-05 0.112129)
(0.000335997 -0.000391077 0.0720274)
(0.00157925 -0.0026973 0.0314696)
(-1.41623e-06 -8.68641e-06 0.112546)
(4.47678e-06 -8.86863e-06 0.112531)
(2.43671e-06 -8.32294e-06 0.112504)
(9.75884e-06 -8.83575e-06 0.112462)
(5.30601e-06 -6.02887e-06 0.112409)
(1.54891e-05 -8.11557e-06 0.112351)
(6.63008e-06 1.32879e-06 0.112296)
(2.1554e-05 -9.38237e-06 0.112255)
(8.12326e-06 1.52925e-05 0.112205)
(3.30436e-05 -2.1397e-05 0.112198)
(5.63308e-05 7.16038e-05 0.113141)
(-5.32052e-05 -0.000179672 0.114029)
(0.000276084 0.000190327 0.0885727)
(-0.00017751 -0.00433817 0.0269591)
(-4.70886e-07 -1.72439e-05 0.112597)
(6.80486e-06 -1.68423e-05 0.112582)
(5.47753e-06 -1.5126e-05 0.112553)
(1.3772e-05 -1.46503e-05 0.112514)
(8.17898e-06 -1.08089e-05 0.112464)
(2.02469e-05 -1.24229e-05 0.112413)
(4.79282e-06 -3.88122e-06 0.112369)
(2.95575e-05 -1.42067e-05 0.112341)
(-1.27873e-05 8.77595e-06 0.112331)
(5.07917e-05 -3.29409e-05 0.112294)
(-5.60837e-05 4.23606e-05 0.11261)
(0.000135112 -0.000130541 0.114769)
(-0.000388655 0.000154454 0.113413)
(0.00049208 -0.000344253 0.0751951)
(-0.00657607 -0.00230256 0.022108)
(-9.3583e-07 -6.08493e-06 0.112648)
(6.59197e-06 -6.13719e-06 0.11263)
(4.62916e-06 -5.29338e-06 0.112598)
(1.40743e-05 -6.0159e-06 0.112555)
(7.5415e-06 -3.23479e-06 0.112505)
(2.24179e-05 -6.11782e-06 0.112457)
(4.90036e-06 1.53115e-06 0.112412)
(3.44341e-05 -8.91276e-06 0.112378)
(-1.09099e-05 1.16061e-05 0.112363)
(6.22203e-05 -1.98415e-05 0.112319)
(-3.91299e-05 3.53383e-05 0.112314)
(0.0001089 -3.99136e-05 0.113491)
(-0.000103803 3.74524e-05 0.116125)
(0.00016833 0.000115762 0.093728)
(-0.00668463 0.00298247 0.0250912)
(-5.48602e-07 -8.73391e-06 0.112696)
(7.59504e-06 -8.54793e-06 0.112673)
(5.59878e-06 -7.81025e-06 0.112632)
(1.58282e-05 -7.89166e-06 0.112585)
(8.07577e-06 -5.79388e-06 0.112532)
(2.50167e-05 -7.62877e-06 0.112483)
(1.96481e-06 -2.34084e-06 0.112433)
(3.97838e-05 -1.083e-05 0.112382)
(-2.38447e-05 4.97691e-06 0.112337)
(7.43923e-05 -2.46442e-05 0.112244)
(-8.3089e-05 2.12467e-05 0.112103)
(0.000144644 -6.12105e-05 0.112558)
(-0.000225229 5.62424e-05 0.113275)
(0.000265794 -9.42719e-05 0.0888648)
(0.00152515 -0.0010834 0.0320798)
(-5.04474e-07 -5.66298e-09 0.112728)
(7.5147e-06 1.17993e-07 0.112697)
(5.28389e-06 2.18832e-07 0.112649)
(1.60903e-05 -3.65536e-08 0.112598)
(7.80516e-06 5.84057e-07 0.112546)
(2.58853e-05 -2.15555e-07 0.112495)
(1.65553e-06 1.49362e-06 0.112442)
(4.1877e-05 -5.2752e-07 0.11238)
(-2.50579e-05 3.72785e-06 0.112307)
(8.00847e-05 -1.33519e-06 0.112162)
(-7.97285e-05 8.87121e-06 0.111955)
(0.000149255 3.03252e-06 0.112307)
(-0.00018899 1.12374e-05 0.112815)
(0.000257044 3.47577e-05 0.0882044)
(0.00147953 0.000151129 0.0293469)
(-3.8109e-07 -0.00497852 0.0217232)
(-0.000705706 -0.00468105 0.0197465)
(-0.00150372 -0.00127496 0.0104467)
(-3.53222e-05 -0.000256494 0.088215)
(9.3611e-05 -0.000265513 0.0888844)
(-0.000116019 -0.000168361 0.0937461)
(0.000344562 -0.000492649 0.0752054)
(0.00143413 -0.00588885 0.0290478)
(0.000470645 -0.00324429 0.0180625)
(-1.21361e-05 0.000189234 0.112828)
(-5.74977e-05 0.000225165 0.1133)
(-3.89741e-05 0.000103719 0.116147)
(-0.000156289 0.000388323 0.113427)
(-0.000191076 -0.000276792 0.0885784)
(0.000390618 -0.000336444 0.0720314)
(0.00185246 -0.00881967 0.0309024)
(-0.000454922 -0.00451589 0.0192909)
(-3.69532e-06 -0.000147507 0.112317)
(6.00836e-05 -0.000143586 0.112575)
(3.9309e-05 -0.000107867 0.113508)
(0.000129855 -0.000133864 0.114781)
(0.000178788 5.30126e-05 0.114037)
(-9.38128e-05 0.000272556 0.112134)
(-3.03693e-05 -0.00036822 0.0875866)
(0.000401713 -0.000395699 0.0737127)
(0.000609525 -0.00602884 0.0313692)
(-0.00185477 -0.00423103 0.0149302)
(-1.03777e-05 8.13692e-05 0.111959)
(-2.32777e-05 8.47677e-05 0.112111)
(-3.66865e-05 4.05506e-05 0.112323)
(-4.5369e-05 5.73392e-05 0.112617)
(-7.37544e-05 -5.55787e-05 0.113145)
(5.23225e-05 -3.2323e-05 0.114271)
(9.51547e-05 9.18003e-05 0.113546)
(-0.000136811 0.000311508 0.112357)
(-0.000233515 -0.000345671 0.088706)
(0.000586696 -0.000468762 0.0705069)
(-0.0116411 0.00240546 0.0164932)
(8.20915e-07 -7.80954e-05 0.112166)
(2.33146e-05 -7.17309e-05 0.11225)
(1.88577e-05 -6.06753e-05 0.112325)
(3.1629e-05 -4.88819e-05 0.112299)
(1.99945e-05 -3.18465e-05 0.1122)
(-2.83168e-05 1.0578e-06 0.112234)
(-4.68249e-06 -9.18102e-05 0.112686)
(7.78511e-07 -3.88162e-05 0.113787)
(0.000285715 5.60742e-05 0.113566)
(-0.000568635 0.00056885 0.112505)
(0.000467724 -0.000586919 0.0705422)
(-0.00860958 0.00416806 0.0188878)
(-4.59702e-06 2.82486e-05 0.112307)
(-7.47109e-06 2.73128e-05 0.112339)
(-1.37194e-05 1.34396e-05 0.112366)
(-1.21314e-05 1.55973e-05 0.112332)
(-1.85507e-05 -6.44013e-06 0.112204)
(-6.39046e-06 2.45712e-07 0.112006)
(-9.09265e-06 1.84879e-05 0.111822)
(-5.91441e-05 3.51903e-06 0.111795)
(-2.74315e-05 2.67277e-05 0.112657)
(-5.68429e-05 -0.00028676 0.113579)
(0.000346007 0.000232039 0.0887032)
(-0.000616107 -0.00141409 0.0271299)
(1.97116e-07 -4.02806e-05 0.112379)
(8.84248e-06 -3.80685e-05 0.112383)
(7.2798e-06 -3.27207e-05 0.112378)
(1.20508e-05 -2.78438e-05 0.112341)
(6.87096e-06 -1.93252e-05 0.112253)
(2.1731e-06 -1.35426e-05 0.112119)
(2.23432e-06 -8.77826e-06 0.111934)
(1.11809e-05 -1.18452e-05 0.111683)
(-4.38585e-06 5.83538e-05 0.111805)
(3.81138e-05 -1.90138e-06 0.113803)
(-0.00031269 0.000136246 0.112366)
(0.000394945 -0.000401992 0.073715)
(0.00141723 -0.00215718 0.0296314)
(-2.55039e-06 2.418e-06 0.11244)
(-4.45117e-08 1.65604e-06 0.112431)
(-3.65163e-06 -1.15254e-06 0.112411)
(1.04146e-06 -1.66931e-06 0.112367)
(-4.40313e-06 -3.84057e-06 0.112294)
(4.58842e-06 -3.55241e-06 0.112201)
(-5.42454e-06 4.16879e-06 0.112091)
(7.97697e-06 -3.14456e-06 0.111938)
(-1.96298e-05 7.97537e-06 0.111831)
(9.11297e-05 3.83198e-06 0.112694)
(-9.2582e-05 -9.6307e-05 0.11355)
(0.000367216 3.0019e-05 0.0875865)
(0.000428623 -0.00447212 0.026842)
(0.000425902 -0.00252164 0.0166198)
(-4.36578e-07 -2.30891e-05 0.112493)
(5.31469e-06 -2.23084e-05 0.11248)
(3.98543e-06 -1.96226e-05 0.112454)
(9.30814e-06 -1.78008e-05 0.112411)
(4.87109e-06 -1.3299e-05 0.112349)
(9.99143e-06 -1.08432e-05 0.112277)
(2.63632e-06 -5.63402e-06 0.112203)
(1.30112e-05 -2.8584e-06 0.112122)
(-1.04028e-06 5.67163e-06 0.112011)
(-1.71179e-06 2.75919e-05 0.112237)
(3.13583e-05 -5.32536e-05 0.114272)
(-0.000273555 9.30078e-05 0.112131)
(0.000336126 -0.00039087 0.0720289)
(0.00157924 -0.00269729 0.0314701)
(-1.63632e-06 -5.51887e-06 0.112542)
(3.40571e-06 -5.75167e-06 0.112528)
(8.4953e-07 -5.23271e-06 0.112501)