/*--------------------------------*- C++ -*----------------------------------*\
| =========                 |                                                 |
| \\      /  F ield         | OpenFOAM: The Open Source CFD Toolbox           |
|  \\    /   O peration     | Version:  2.1.1                                 |
|   \\  /    A nd           | Web:      www.OpenFOAM.org                      |
|    \\/     M anipulation  |                                                 |
\*---------------------------------------------------------------------------*/
FoamFile
{
    version     2.0;
    format      ascii;
    class       volScalarField;
    location    "0.003";
    object      Th;
}
// * * * * * * * * * * * * * * * * * * * * * * * * * * * * * * * * * * * * * //

dimensions      [0 0 0 0 0 0 0];

internalField   nonuniform List<scalar> 
10154
(
3.73417e-13
1e-14
1.72521e-14
1.02511e-14
1.09531e-14
1.03214e-14
2.60783e-14
1.13976e-14
1.00306e-14
1.00166e-14
1e-14
1.00025e-14
1.00008e-14
3.03376e-13
1.24115e-14
1.00278e-14
1.00025e-14
1e-14
1e-14
1.00001e-14
1.00001e-14
1e-14
1.63847e-14
1.01058e-14
1.0002e-14
1e-14
1e-14
1e-14
1e-14
1.00001e-14
1.00001e-14
1e-14
1.62976e-14
1.01178e-14
1.00001e-14
1.00001e-14
1e-14
1e-14
1e-14
1e-14
1e-14
1e-14
1.00001e-14
3.03381e-13
1.01055e-14
1.00001e-14
1.00001e-14
1e-14
1e-14
1.00001e-14
1e-14
1e-14
1e-14
1e-14
1.00001e-14
1.24137e-14
1.0002e-14
1.00001e-14
1e-14
1e-14
1e-14
1e-14
1e-14
1e-14
1e-14
1e-14
1e-14
2.60755e-14
1.00278e-14
1e-14
1e-14
1e-14
1e-14
1e-14
1e-14
1e-14
1e-14
1e-14
1e-14
1.00001e-14
1.13975e-14
1.00025e-14
1e-14
1e-14
1.00001e-14
1e-14
1e-14
1.00001e-14
1.00001e-14
1.00001e-14
1e-14
1e-14
1e-14
1e-14
1.00306e-14
1e-14
1e-14
1e-14
1e-14
1e-14
1e-14
1.00001e-14
1.00001e-14
1.00001e-14
1e-14
1.00001e-14
1e-14
1.72523e-14
1.00166e-14
1e-14
1e-14
1e-14
1e-14
1e-14
1e-14
1.00001e-14
1.00001e-14
1.00001e-14
1.00001e-14
1.00001e-14
1.00001e-14
1.0251e-14
1e-14
1.00001e-14
1.00001e-14
1e-14
1e-14
1e-14
1e-14
1e-14
1e-14
1.00001e-14
1.00001e-14
1.00001e-14
1.00002e-14
1.0953e-14
1.00025e-14
1.00001e-14
1.00001e-14
1e-14
1e-14
1e-14
1e-14
1e-14
1.00001e-14
1.00001e-14
1.00001e-14
1e-14
1.00002e-14
3.73348e-13
1.03214e-14
1.00008e-14
1e-14
1e-14
1.00001e-14
1.00001e-14
1e-14
1.00001e-14
1e-14
1e-14
1.00001e-14
1.00002e-14
1.00002e-14
1.00003e-14
3.76828e-13
1e-14
1.68577e-14
1.02295e-14
1.08708e-14
1.02887e-14
2.67561e-14
1.13129e-14
1.00261e-14
1.00142e-14
1e-14
1.00012e-14
1.00004e-14
3.09656e-13
1.22947e-14
1.00246e-14
1.00012e-14
1e-14
1e-14
1.00001e-14
1.00001e-14
1e-14
1.83547e-14
1.00976e-14
1.00013e-14
1e-14
1e-14
1e-14
1e-14
1.00001e-14
1.00001e-14
1e-14
1.82471e-14
1.01071e-14
1e-14
1e-14
1e-14
1e-14
1e-14
1e-14
1e-14
1.00001e-14
1e-14
3.09649e-13
1.00973e-14
1e-14
1.00001e-14
1e-14
1e-14
1e-14
1e-14
1e-14
1e-14
1e-14
1e-14
1.22948e-14
1.00013e-14
1e-14
1e-14
1e-14
1e-14
1e-14
1e-14
1e-14
1e-14
1e-14
1e-14
2.67539e-14
1.00246e-14
1e-14
1e-14
1e-14
1e-14
1e-14
1.00001e-14
1e-14
1e-14
1e-14
1e-14
1e-14
1.13127e-14
1.00012e-14
1e-14
1e-14
1e-14
1e-14
1.00001e-14
1.00001e-14
1e-14
1e-14
1e-14
1e-14
1e-14
1e-14
1.00261e-14
1e-14
1e-14
1e-14
1e-14
1e-14
1e-14
1e-14
1.00001e-14
1e-14
1e-14
1e-14
1e-14
1.68575e-14
1.00142e-14
1e-14
1e-14
1e-14
1e-14
1e-14
1e-14
1e-14
1e-14
1.00001e-14
1.00001e-14
1.00001e-14
1e-14
1.02295e-14
1e-14
1.00001e-14
1.00001e-14
1e-14
1e-14
1e-14
1e-14
1e-14
1e-14
1.00001e-14
1.00001e-14
1e-14
1.00001e-14
1.08709e-14
1.00012e-14
1.00001e-14
1.00001e-14
1e-14
1e-14
1e-14
1e-14
1e-14
1e-14
1.00001e-14
1e-14
1.00001e-14
1e-14
3.76766e-13
1.02888e-14
1.00003e-14
1e-14
1e-14
1e-14
1e-14
1e-14
1e-14
1e-14
1e-14
1e-14
1.00001e-14
1e-14
1.00001e-14
3.77103e-13
1e-14
1.6911e-14
1.02321e-14
1.08501e-14
1.02804e-14
2.7074e-14
1.12913e-14
1.00256e-14
1.00136e-14
1e-14
1e-14
1.00002e-14
3.09763e-13
1.22696e-14
1.00239e-14
1.00005e-14
1e-14
1e-14
1e-14
1e-14
1.00001e-14
1.8732e-14
1.0096e-14
1.00007e-14
1e-14
1e-14
1e-14
1e-14
1e-14
1.00001e-14
1e-14
1.86215e-14
1.0105e-14
1e-14
1e-14
1e-14
1e-14
1e-14
1e-14
1e-14
1.00001e-14
1e-14
3.09756e-13
1.00956e-14
1e-14
1.00001e-14
1e-14
1e-14
1e-14
1e-14
1e-14
1e-14
1e-14
1e-14
1.22691e-14
1.00007e-14
1e-14
1e-14
1e-14
1e-14
1.00001e-14
1e-14
1e-14
1e-14
1e-14
1e-14
2.70722e-14
1.00238e-14
1e-14
1e-14
1e-14
1e-14
1.00001e-14
1e-14
1e-14
1e-14
1e-14
1.00001e-14
1e-14
1.12912e-14
1.00005e-14
1e-14
1e-14
1e-14
1.00001e-14
1e-14
1e-14
1e-14
1e-14
1e-14
1e-14
1e-14
1e-14
1.00256e-14
1e-14
1e-14
1e-14
1e-14
1e-14
1e-14
1e-14
1e-14
1e-14
1e-14
1e-14
1e-14
1.69108e-14
1.00136e-14
1e-14
1e-14
1e-14
1e-14
1e-14
1e-14
1e-14
1e-14
1e-14
1.00001e-14
1e-14
1e-14
1.02321e-14
1e-14
1e-14
1e-14
1e-14
1e-14
1e-14
1e-14
1e-14
1e-14
1.00001e-14
1e-14
1e-14
1e-14
1.08501e-14
1e-14
1.00001e-14
1.00001e-14
1.00001e-14
1e-14
1e-14
1.00001e-14
1e-14
1e-14
1e-14
1e-14
1e-14
1e-14
3.77044e-13
1.02806e-14
1.00001e-14
1.00001e-14
1e-14
1e-14
1e-14
1e-14
1e-14
1e-14
1e-14
1e-14
1e-14
1e-14
1e-14
3.77014e-13
1e-14
1.6939e-14
1.02347e-14
1.08476e-14
1.02753e-14
2.7091e-14
1.12871e-14
1.00258e-14
1.00134e-14
1e-14
1e-14
1e-14
3.09889e-13
1.22709e-14
1.00232e-14
1e-14
1e-14
1e-14
1e-14
1e-14
1e-14
1.87778e-14
1.00957e-14
1e-14
1e-14
1e-14
1e-14
1e-14
1e-14
1e-14
1e-14
1.86667e-14
1.01047e-14
1e-14
1e-14
1e-14
1e-14
1e-14
1e-14
1e-14
1e-14
1e-14
3.09886e-13
1.00953e-14
1e-14
1e-14
1e-14
1e-14
1e-14
1e-14
1e-14
1e-14
1e-14
1.00001e-14
1.22702e-14
1e-14
1e-14
1e-14
1.00001e-14
1e-14
1e-14
1e-14
1e-14
1e-14
1e-14
1.00001e-14
2.70889e-14
1.00232e-14
1e-14
1e-14
1e-14
1e-14
1.00001e-14
1e-14
1e-14
1e-14
1e-14
1.00001e-14
1.00001e-14
1.1287e-14
1e-14
1e-14
1e-14
1e-14
1e-14
1e-14
1e-14
1e-14
1e-14
1e-14
1e-14
1.00001e-14
1e-14
1.00258e-14
1e-14
1e-14
1e-14
1e-14
1e-14
1e-14
1e-14
1e-14
1e-14
1e-14
1e-14
1e-14
1.69389e-14
1.00134e-14
1e-14
1e-14
1e-14
1e-14
1e-14
1e-14
1e-14
1e-14
1e-14
1e-14
1e-14
1e-14
1.02347e-14
1e-14
1e-14
1e-14
1e-14
1e-14
1e-14
1e-14
1e-14
1e-14
1e-14
1e-14
1e-14
1e-14
1.08476e-14
1e-14
1e-14
1e-14
1e-14
1e-14
1e-14
1.00001e-14
1e-14
1e-14
1e-14
1e-14
1e-14
1e-14
3.76955e-13
1.02756e-14
1e-14
1e-14
1e-14
1e-14
1.00001e-14
1.00001e-14
1.00001e-14
1.00001e-14
1e-14
1e-14
1e-14
1e-14
1e-14
3.76527e-13
1e-14
1.70045e-14
1.02397e-14
1.08882e-14
1.03041e-14
2.70585e-14
1.1305e-14
1.00284e-14
1.00134e-14
1e-14
1e-14
1e-14
3.1e-13
1.22161e-14
1.00225e-14
1e-14
1e-14
1e-14
1e-14
1e-14
1.00001e-14
1.88043e-14
1.00939e-14
1e-14
1e-14
1e-14
1e-14
1e-14
1e-14
1e-14
1.00001e-14
1.86925e-14
1.01041e-14
1e-14
1e-14
1e-14
1e-14
1e-14
1e-14
1e-14
1e-14
1e-14
3.09999e-13
1.00935e-14
1e-14
1e-14
1e-14
1e-14
1e-14
1e-14
1e-14
1e-14
1e-14
1.00001e-14
1.22153e-14
1e-14
1e-14
1e-14
1e-14
1e-14
1e-14
1e-14
1e-14
1e-14
1e-14
1.00002e-14
2.70557e-14
1.00225e-14
1e-14
1e-14
1e-14
1e-14
1e-14
1e-14
1e-14
1e-14
1e-14
1.00001e-14
1.00001e-14
1.13048e-14
1e-14
1e-14
1e-14
1e-14
1e-14
1e-14
1.00001e-14
1e-14
1e-14
1e-14
1e-14
1.00001e-14
1e-14
1.00284e-14
1e-14
1e-14
1e-14
1e-14
1e-14
1e-14
1e-14
1e-14
1e-14
1e-14
1e-14
1e-14
1.70045e-14
1.00134e-14
1e-14
1e-14
1e-14
1e-14
1e-14
1e-14
1e-14
1e-14
1e-14
1e-14
1e-14
1.00001e-14
1.02396e-14
1e-14
1e-14
1e-14
1e-14
1e-14
1e-14
1e-14
1e-14
1e-14
1e-14
1e-14
1e-14
1e-14
1.08883e-14
1e-14
1e-14
1e-14
1e-14
1e-14
1e-14
1.00001e-14
1e-14
1e-14
1e-14
1e-14
1e-14
1e-14
3.7647e-13
1.03044e-14
1e-14
1.00001e-14
1.00001e-14
1e-14
1.00001e-14
1.00001e-14
1.00001e-14
1.00001e-14
1e-14
1.00001e-14
1e-14
1e-14
1e-14
3.74807e-13
1e-14
1.72536e-14
1.02543e-14
1.08226e-14
1.02089e-14
2.70765e-14
1.12449e-14
1.00206e-14
1.00125e-14
1e-14
1e-14
1e-14
3.09971e-13
1.23956e-14
1.00194e-14
1e-14
1e-14
1e-14
1e-14
1e-14
1e-14
1.89377e-14
1.01109e-14
1e-14
1e-14
1e-14
1e-14
1e-14
1e-14
1e-14
1.00001e-14
1.88274e-14
1.0112e-14
1e-14
1e-14
1e-14
1e-14
1e-14
1e-14
1e-14
1e-14
1e-14
3.09968e-13
1.01105e-14
1e-14
1e-14
1e-14
1e-14
1e-14
1e-14
1e-14
1e-14
1e-14
1.00001e-14
1.23946e-14
1e-14
1e-14
1e-14
1e-14
1e-14
1e-14
1e-14
1e-14
1e-14
1e-14
1.00001e-14
2.70743e-14
1.00193e-14
1e-14
1e-14
1e-14
1e-14
1e-14
1.00001e-14
1e-14
1e-14
1e-14
1e-14
1e-14
1.12448e-14
1e-14
1e-14
1e-14
1e-14
1e-14
1.00001e-14
1e-14
1e-14
1e-14
1e-14
1e-14
1e-14
1e-14
1.00206e-14
1e-14
1e-14
1e-14
1e-14
1e-14
1e-14
1e-14
1e-14
1e-14
1e-14
1e-14
1e-14
1.72536e-14
1.00125e-14
1e-14
1e-14
1e-14
1e-14
1e-14
1e-14
1e-14
1e-14
1e-14
1e-14
1e-14
1e-14
1.02543e-14
1e-14
1e-14
1e-14
1e-14
1e-14
1e-14
1e-14
1e-14
1e-14
1e-14
1e-14
1e-14
1e-14
1.08227e-14
1e-14
1e-14
1e-14
1e-14
1e-14
1e-14
1e-14
1e-14
1e-14
1e-14
1e-14
1e-14
1e-14
3.74756e-13
1.02097e-14
1e-14
1e-14
1.00001e-14
1e-14
1.00001e-14
1.00001e-14
1e-14
1e-14
1e-14
1e-14
1e-14
1e-14
1e-14
3.63474e-13
1e-14
1.91099e-14
1.01365e-14
1.15224e-14
1.06844e-14
2.84149e-14
1.17236e-14
1.00632e-14
1.00163e-14
1e-14
1e-14
1e-14
3.08668e-13
1.2195e-14
1.00188e-14
1e-14
1e-14
1e-14
1e-14
1e-14
1e-14
2.16616e-14
1.00343e-14
1e-14
1e-14
1e-14
1e-14
1e-14
1e-14
1e-14
1e-14
2.15367e-14
1.00698e-14
1e-14
1e-14
1e-14
1e-14
1e-14
1e-14
1e-14
1e-14
1.00001e-14
3.08662e-13
1.00338e-14
1e-14
1e-14
1e-14
1e-14
1e-14
1e-14
1e-14
1e-14
1e-14
1.00001e-14
1.21945e-14
1e-14
1e-14
1e-14
1e-14
1e-14
1e-14
1e-14
1e-14
1e-14
1e-14
1e-14
2.84132e-14
1.00187e-14
1e-14
1e-14
1e-14
1e-14
1e-14
1e-14
1e-14
1e-14
1e-14
1e-14
1e-14
1.17234e-14
1e-14
1e-14
1e-14
1e-14
1e-14
1e-14
1e-14
1e-14
1e-14
1e-14
1e-14
1e-14
1e-14
1.00632e-14
1e-14
1e-14
1e-14
1e-14
1e-14
1e-14
1e-14
1e-14
1e-14
1e-14
1e-14
1e-14
1.91102e-14
1.00163e-14
1e-14
1e-14
1e-14
1e-14
1e-14
1e-14
1e-14
1e-14
1e-14
1e-14
1e-14
1e-14
1.01363e-14
1e-14
1e-14
1e-14
1e-14
1e-14
1e-14
1e-14
1e-14
1e-14
1e-14
1e-14
1e-14
1e-14
1.15248e-14
1e-14
1e-14
1e-14
1e-14
1e-14
1e-14
1e-14
1e-14
1e-14
1e-14
1e-14
1e-14
1e-14
3.63412e-13
1.06845e-14
1e-14
1e-14
1e-14
1.00001e-14
1.00001e-14
1e-14
1e-14
1e-14
1e-14
1e-14
1e-14
1e-14
1.00001e-14
4.19106e-14
1.90876e-14
1.04967e-14
1e-14
1.0309e-14
1.01921e-14
1.4466e-14
1.02436e-14
1.00151e-14
1.0003e-14
1e-14
1e-14
1e-14
2.57846e-14
1.02992e-14
1.00026e-14
1e-14
1e-14
1e-14
1e-14
1e-14
1e-14
1.2656e-14
1.00033e-14
1e-14
1e-14
1e-14
1e-14
1e-14
1e-14
1e-14
1e-14
1.26269e-14
1.00085e-14
1e-14
1e-14
1e-14
1e-14
1e-14
1e-14
1e-14
1e-14
1e-14
2.5792e-14
1.00033e-14
1e-14
1e-14
1e-14
1e-14
1e-14
1e-14
1e-14
1e-14
1e-14
1e-14
1.02991e-14
1e-14
1e-14
1e-14
1e-14
1e-14
1e-14
1e-14
1e-14
1e-14
1e-14
1e-14
1.44659e-14
1.00026e-14
1e-14
1e-14
1e-14
1e-14
1e-14
1e-14
1e-14
1e-14
1e-14
1e-14
1e-14
1.02435e-14
1e-14
1e-14
1e-14
1e-14
1e-14
1e-14
1e-14
1e-14
1e-14
1e-14
1e-14
1e-14
1.90853e-14
1.00151e-14
1e-14
1e-14
1e-14
1e-14
1e-14
1e-14
1e-14
1e-14
1e-14
1e-14
1e-14
1e-14
1.04971e-14
1.0003e-14
1e-14
1e-14
1e-14
1e-14
1e-14
1e-14
1e-14
1e-14
1e-14
1e-14
1e-14
1e-14
1e-14
1e-14
1e-14
1e-14
1e-14
1e-14
1e-14
1e-14
1e-14
1e-14
1e-14
1e-14
1e-14
1e-14
1.03098e-14
1e-14
1e-14
1e-14
1e-14
1e-14
1e-14
1e-14
1e-14
1e-14
1e-14
1e-14
1e-14
1e-14
4.19382e-14
1.01922e-14
1e-14
1e-14
1e-14
1e-14
1e-14
1e-14
1e-14
1e-14
1e-14
1e-14
1e-14
1e-14
1e-14
1.0003e-14
1.04614e-14
1e-14
1.00299e-14
1.00012e-14
1e-14
1.00644e-14
1.00417e-14
1.00036e-14
1.00681e-14
1.00424e-14
1.00032e-14
1.00006e-14
1e-14
1e-14
1e-14
1.00659e-14
1.00471e-14
1.00003e-14
1e-14
1e-14
1e-14
1e-14
1e-14
1e-14
1.00278e-14
1.00003e-14
1e-14
1e-14
1e-14
1e-14
1e-14
1e-14
1e-14
1e-14
1.00274e-14
1.00009e-14
1e-14
1e-14
1e-14
1e-14
1e-14
1e-14
1e-14
1e-14
1e-14
1.00659e-14
1.00003e-14
1e-14
1e-14
1e-14
1e-14
1e-14
1e-14
1e-14
1e-14
1e-14
1e-14
1.00036e-14
1.0047e-14
1e-14
1e-14
1e-14
1e-14
1e-14
1e-14
1e-14
1e-14
1e-14
1e-14
1e-14
1.00681e-14
1.00003e-14
1e-14
1e-14
1e-14
1e-14
1e-14
1e-14
1e-14
1e-14
1e-14
1e-14
1e-14
1e-14
1.00424e-14
1e-14
1e-14
1e-14
1e-14
1e-14
1e-14
1e-14
1e-14
1e-14
1e-14
1e-14
1e-14
1.00298e-14
1.00032e-14
1e-14
1e-14
1e-14
1e-14
1e-14
1e-14
1e-14
1e-14
1e-14
1e-14
1e-14
1e-14
1.00012e-14
1.00006e-14
1e-14
1e-14
1e-14
1e-14
1e-14
1e-14
1e-14
1e-14
1e-14
1e-14
1e-14
1e-14
1e-14
1e-14
1e-14
1e-14
1e-14
1e-14
1e-14
1e-14
1e-14
1e-14
1e-14
1e-14
1e-14
1e-14
1.0003e-14
1.00646e-14
1e-14
1e-14
1e-14
1e-14
1e-14
1e-14
1e-14
1e-14
1e-14
1e-14
1e-14
1e-14
1e-14
1.04622e-14
1.00417e-14
1e-14
1e-14
1e-14
1e-14
1e-14
1e-14
1e-14
1e-14
1e-14
1e-14
1e-14
1e-14
1e-14
1e-14
1.00051e-14
1e-14
1.00002e-14
1e-14
1.00001e-14
1.00119e-14
1.00077e-14
1.00001e-14
1.00006e-14
1.00064e-14
1.00005e-14
1.00001e-14
1e-14
1e-14
1e-14
1.00004e-14
1.00065e-14
1e-14
1e-14
1e-14
1e-14
1e-14
1e-14
1e-14
1.00001e-14
1e-14
1e-14
1e-14
1e-14
1e-14
1e-14
1e-14
1e-14
1e-14
1.00001e-14
1.00001e-14
1e-14
1e-14
1e-14
1e-14
1e-14
1e-14
1e-14
1e-14
1e-14
1.00004e-14
1e-14
1e-14
1e-14
1e-14
1e-14
1e-14
1e-14
1e-14
1e-14
1e-14
1e-14
1.00001e-14
1.00065e-14
1e-14
1e-14
1e-14
1e-14
1e-14
1e-14
1e-14
1e-14
1e-14
1e-14
1e-14
1.00006e-14
1e-14
1e-14
1e-14
1e-14
1e-14
1e-14
1.00001e-14
1e-14
1e-14
1e-14
1e-14
1e-14
1e-14
1.00064e-14
1e-14
1e-14
1e-14
1e-14
1e-14
1.00001e-14
1e-14
1e-14
1e-14
1e-14
1e-14
1e-14
1.00002e-14
1.00005e-14
1e-14
1e-14
1e-14
1e-14
1e-14
1e-14
1e-14
1e-14
1e-14
1e-14
1e-14
1e-14
1e-14
1.00001e-14
1e-14
1e-14
1e-14
1e-14
1e-14
1e-14
1e-14
1e-14
1e-14
1e-14
1e-14
1e-14
1.00001e-14
1e-14
1e-14
1e-14
1e-14
1e-14
1e-14
1e-14
1e-14
1e-14
1e-14
1e-14
1e-14
1e-14
1e-14
1.0012e-14
1e-14
1e-14
1e-14
1e-14
1e-14
1e-14
1e-14
1e-14
1e-14
1e-14
1e-14
1e-14
1e-14
1.00051e-14
1.00077e-14
1e-14
1e-14
1e-14
1e-14
1e-14
1e-14
1e-14
1e-14
1e-14
1e-14
1e-14
1e-14
1e-14
1.00001e-14
1.00001e-14
1e-14
1e-14
1e-14
1e-14
1.00019e-14
1.00013e-14
1e-14
1.00001e-14
1.00008e-14
1.00001e-14
1e-14
1e-14
1e-14
1e-14
1e-14
1.00008e-14
1e-14
1e-14
1e-14
1e-14
1e-14
1e-14
1e-14
1e-14
1e-14
1e-14
1e-14
1e-14
1e-14
1e-14
1e-14
1e-14
1e-14
1e-14
1e-14
1e-14
1e-14
1e-14
1e-14
1e-14
1e-14
1e-14
1e-14
1e-14
1e-14
1e-14
1e-14
1e-14
1e-14
1e-14
1e-14
1e-14
1e-14
1e-14
1e-14
1e-14
1e-14
1.00008e-14
1e-14
1e-14
1e-14
1e-14
1e-14
1.00001e-14
1e-14
1e-14
1e-14
1e-14
1e-14
1.00001e-14
1e-14
1e-14
1e-14
1e-14
1e-14
1.00001e-14
1e-14
1e-14
1e-14
1e-14
1e-14
1e-14
1e-14
1.00008e-14
1e-14
1e-14
1e-14
1e-14
1e-14
1e-14
1e-14
1e-14
1e-14
1e-14
1e-14
1e-14
1e-14
1.00001e-14
1e-14
1e-14
1e-14
1e-14
1e-14
1e-14
1e-14
1e-14
1e-14
1e-14
1e-14
1e-14
1e-14
1e-14
1e-14
1e-14
1e-14
1e-14
1e-14
1e-14
1e-14
1e-14
1e-14
1e-14
1e-14
1e-14
1e-14
1e-14
1e-14
1e-14
1e-14
1e-14
1e-14
1e-14
1e-14
1e-14
1e-14
1e-14
1e-14
1e-14
1.00001e-14
1.00019e-14
1e-14
1e-14
1e-14
1e-14
1e-14
1e-14
1e-14
1e-14
1e-14
1e-14
1e-14
1e-14
1.00001e-14
1.00001e-14
1.00013e-14
1e-14
1e-14
1e-14
1e-14
1e-14
1e-14
1e-14
1e-14
1e-14
1e-14
1e-14
1.00001e-14
1.00001e-14
1e-14
1e-14
1e-14
1e-14
1e-14
1e-14
1.00003e-14
1.00003e-14
1e-14
1e-14
1.00001e-14
1e-14
1e-14
1e-14
1e-14
1e-14
1e-14
1.00001e-14
1e-14
1e-14
1e-14
1e-14
1e-14
1e-14
1e-14
1e-14
1e-14
1e-14
1e-14
1e-14
1e-14
1e-14
1e-14
1e-14
1e-14
1e-14
1e-14
1e-14
1e-14
1e-14
1e-14
1e-14
1e-14
1e-14
1e-14
1e-14
1e-14
1e-14
1e-14
1e-14
1e-14
1e-14
1e-14
1e-14
1e-14
1e-14
1e-14
1e-14
1e-14
1.00001e-14
1e-14
1e-14
1e-14
1e-14
1e-14
1e-14
1e-14
1e-14
1e-14
1e-14
1e-14
1e-14
1e-14
1e-14
1e-14
1e-14
1e-14
1e-14
1e-14
1e-14
1e-14
1e-14
1e-14
1e-14
1e-14
1.00001e-14
1e-14
1e-14
1e-14
1e-14
1e-14
1e-14
1e-14
1e-14
1e-14
1e-14
1e-14
1e-14
1e-14
1e-14
1e-14
1e-14
1e-14
1e-14
1e-14
1e-14
1e-14
1e-14
1e-14
1e-14
1e-14
1e-14
1e-14
1e-14
1e-14
1e-14
1e-14
1e-14
1e-14
1e-14
1e-14
1e-14
1e-14
1e-14
1e-14
1.00001e-14
1e-14
1e-14
1e-14
1e-14
1e-14
1e-14
1e-14
1e-14
1e-14
1e-14
1e-14
1e-14
1e-14
1.00001e-14
1e-14
1.00003e-14
1e-14
1e-14
1e-14
1e-14
1e-14
1e-14
1e-14
1e-14
1e-14
1e-14
1e-14
1.00001e-14
1.00001e-14
1e-14
1.00003e-14
1e-14
1e-14
1e-14
1e-14
1e-14
1e-14
1e-14
1e-14
1e-14
1.00001e-14
1.00001e-14
1.00001e-14
1.00001e-14
1e-14
1e-14
1e-14
1e-14
1e-14
1e-14
1e-14
1e-14
1e-14
1e-14
1e-14
1e-14
1e-14
1e-14
1e-14
1e-14
1e-14
1e-14
1e-14
1e-14
1e-14
1e-14
1e-14
1e-14
1.00001e-14
1e-14
1e-14
1e-14
1e-14
1e-14
1e-14
1e-14
1e-14
1e-14
1e-14
1e-14
1e-14
1e-14
1e-14
1e-14
1e-14
1e-14
1e-14
1e-14
1e-14
1.00001e-14
1e-14
1e-14
1e-14
1e-14
1e-14
1e-14
1e-14
1e-14
1e-14
1e-14
1e-14
1.00001e-14
1e-14
1e-14
1e-14
1e-14
1e-14
1e-14
1e-14
1e-14
1e-14
1e-14
1e-14
1e-14
1.00001e-14
1e-14
1e-14
1e-14
1e-14
1e-14
1e-14
1e-14
1e-14
1e-14
1e-14
1e-14
1e-14
1.00001e-14
1e-14
1e-14
1e-14
1e-14
1e-14
1e-14
1e-14
1e-14
1e-14
1e-14
1e-14
1e-14
1e-14
1.00001e-14
1e-14
1e-14
1e-14
1e-14
1e-14
1e-14
1e-14
1e-14
1e-14
1e-14
1e-14
1e-14
1e-14
1.00001e-14
1e-14
1e-14
1e-14
1e-14
1e-14
1e-14
1e-14
1e-14
1e-14
1e-14
1e-14
1e-14
1e-14
1.00002e-14
1e-14
1e-14
1e-14
1e-14
1e-14
1e-14
1e-14
1e-14
1e-14
1e-14
1e-14
1e-14
1e-14
1.00001e-14
1e-14
1e-14
1e-14
1e-14
1e-14
1e-14
1e-14
1e-14
1e-14
1e-14
1e-14
1e-14
1e-14
1.00001e-14
1.00001e-14
1e-14
1e-14
1e-14
1.00001e-14
1e-14
1.00001e-14
1.00001e-14
1.00001e-14
1.00001e-14
1.00001e-14
1.00001e-14
1.00002e-14
1.00001e-14
1.00001e-14
1.00002e-14
1e-14
1e-14
1e-14
1e-14
1e-14
1e-14
1e-14
1.00001e-14
1e-14
1e-14
1e-14
1e-14
1e-14
1e-14
1e-14
1e-14
1e-14
1e-14
1e-14
1e-14
1e-14
1e-14
1e-14
1e-14
1.00001e-14
1e-14
1e-14
1e-14
1e-14
1e-14
1e-14
1e-14
1e-14
1e-14
1e-14
1e-14
1e-14
1e-14
1e-14
1e-14
1e-14
1e-14
1e-14
1e-14
1e-14
1e-14
1e-14
1e-14
1e-14
1e-14
1e-14
1e-14
1e-14
1e-14
1e-14
1e-14
1e-14
1.00001e-14
1e-14
1e-14
1e-14
1e-14
1e-14
1e-14
1e-14
1e-14
1e-14
1e-14
1e-14
1e-14
1.00001e-14
1e-14
1e-14
1e-14
1e-14
1e-14
1e-14
1e-14
1e-14
1e-14
1e-14
1e-14
1e-14
1.00001e-14
1e-14
1e-14
1e-14
1e-14
1e-14
1e-14
1e-14
1e-14
1e-14
1e-14
1e-14
1e-14
1e-14
1.00001e-14
1e-14
1e-14
1e-14
1e-14
1e-14
1e-14
1e-14
1e-14
1e-14
1e-14
1e-14
1e-14
1e-14
1.00001e-14
1e-14
1e-14
1e-14
1e-14
1e-14
1e-14
1e-14
1e-14
1e-14
1e-14
1e-14
1e-14
1e-14
1e-14
1e-14
1e-14
1e-14
1e-14
1e-14
1e-14
1e-14
1e-14
1e-14
1e-14
1e-14
1e-14
1.00001e-14
1e-14
1e-14
1e-14
1e-14
1e-14
1e-14
1e-14
1e-14
1e-14
1e-14
1e-14
1e-14
1e-14
1.00001e-14
1.00001e-14
1e-14
1e-14
1.00001e-14
1e-14
1.00001e-14
1e-14
1e-14
1.00001e-14
1.00001e-14
1.00001e-14
1.00001e-14
1.00001e-14
1e-14
1e-14
1e-14
1e-14
1e-14
1e-14
1e-14
1e-14
1e-14
1e-14
1e-14
1e-14
1e-14
1e-14
1e-14
1e-14
1e-14
1e-14
1e-14
1e-14
1e-14
1e-14
1e-14
1e-14
1e-14
1e-14
1e-14
1e-14
1e-14
1e-14
1e-14
1e-14
1e-14
1e-14
1e-14
1e-14
1e-14
1e-14
1e-14
1e-14
1e-14
1e-14
1e-14
1e-14
1e-14
1e-14
1e-14
1e-14
1e-14
1e-14
1e-14
1e-14
1e-14
1e-14
1e-14
1e-14
1e-14
1e-14
1e-14
1e-14
1e-14
1e-14
1e-14
1e-14
1e-14
1e-14
1e-14
1e-14
1e-14
1e-14
1e-14
1e-14
1e-14
1e-14
1.00001e-14
1e-14
1e-14
1e-14
1e-14
1e-14
1e-14
1e-14
1e-14
1e-14
1e-14
1e-14
1e-14
1.00001e-14
1e-14
1e-14
1e-14
1e-14
1e-14
1e-14
1e-14
1e-14
1e-14
1e-14
1e-14
1e-14
1e-14
1e-14
1e-14
1e-14
1e-14
1e-14
1e-14
1e-14
1e-14
1e-14
1e-14
1e-14
1e-14
1e-14
1.00001e-14
1e-14
1e-14
1e-14
1e-14
1e-14
1e-14
1e-14
1e-14
1e-14
1e-14
1e-14
1e-14
1.00001e-14
1e-14
1e-14
1e-14
1e-14
1e-14
1e-14
1e-14
1e-14
1e-14
1e-14
1e-14
1e-14
1.00001e-14
1.00001e-14
1e-14
1e-14
1e-14
1e-14
1e-14
1e-14
1e-14
1e-14
1e-14
1e-14
1e-14
1.00001e-14
1.00001e-14
1e-14
1e-14
1e-14
1e-14
1e-14
1.00001e-14
1e-14
1e-14
1e-14
1e-14
1e-14
1.00001e-14
1.00001e-14
1.00001e-14
1e-14
1e-14
1e-14
1e-14
1e-14
1.12621e-12
1.05509e-13
7.86861e-14
1.06987e-14
1.2603e-14
5.89652e-14
5.3508e-13
3.33752e-14
2.42543e-14
5.05023e-13
4.73195e-13
2.11836e-14
1.97903e-14
9.70059e-13
4.32305e-13
1.15781e-14
3.20881e-13
5.24841e-14
1.76662e-14
4.35044e-14
3.79394e-14
1.01312e-14
1.16518e-14
1e-14
1.22954e-13
8.39422e-14
1.35427e-14
4.18484e-14
1.47654e-14
1.14054e-14
1.01145e-14
9.95467e-13
1.02075e-12
6.62261e-14
4.05114e-13
2.84511e-14
1.46651e-14
1.03213e-14
1.03295e-12
1.02935e-12
5.87818e-14
1.01891e-12
9.95454e-13
6.61778e-14
1e-14
4.05154e-13
1.46603e-14
2.84183e-14
1.0319e-14
9.7003e-13
8.42027e-14
1.22906e-13
1.35529e-14
4.32275e-13
1.1577e-14
4.18399e-14
1.14048e-14
1.47647e-14
1.01145e-14
5.24833e-14
3.20873e-13
1.76659e-14
1.12622e-12
1.05504e-13
4.34954e-14
1.0131e-14
3.79383e-14
1.16514e-14
7.86984e-14
1.06988e-14
1.26043e-14
5.89586e-14
3.33703e-14
5.35128e-13
2.42622e-14
5.05101e-13
2.12006e-14
4.72596e-13
1.97773e-14
1.00888e-12
1e-14
1.1195e-12
9.09845e-14
1e-14
1.0145e-14
7.14844e-14
1.05152e-14
1e-14
2.15498e-14
1.21046e-14
5.16802e-14
3.99052e-13
1.20125e-14
1.82106e-14
5.30244e-13
2.95198e-14
2.22905e-14
3.56947e-13
1.50414e-14
1.43093e-14
4.998e-13
4.67851e-13
1.97141e-14
1.83588e-14
7.36476e-13
9.58378e-13
1.40594e-13
1e-14
4.28895e-13
1.24258e-14
2.45854e-13
1.80228e-14
1.46366e-14
3.18916e-13
4.65344e-14
1.66597e-14
2.67913e-14
1.01682e-14
1e-14
4.08003e-14
3.30545e-14
1.01521e-14
1.10814e-14
1e-14
1e-14
1e-14
1.81021e-14
1.27803e-14
1.07292e-13
7.78752e-14
1.34483e-14
1.09386e-14
1e-14
1.00639e-14
3.65882e-14
1.41595e-14
1.10572e-14
1.00692e-14
7.84933e-13
4.04224e-13
1.31357e-14
9.84807e-13
1.02496e-12
6.07958e-14
1.6213e-14
1.22314e-14
1.00137e-14
4.04559e-13
2.57836e-14
1.41211e-14
1.01925e-14
4.48655e-13
4.47937e-13
1.14396e-14
1.03439e-12
1.03074e-12
5.43077e-14
4.04616e-13
7.8495e-13
1.31269e-14
1.02331e-12
9.84758e-13
6.07125e-14
1e-14
1e-14
1.22304e-14
1.62082e-14
1.00138e-14
4.04554e-13
1.41139e-14
2.57795e-14
1.01918e-14
7.36452e-13
9.5834e-13
1.81048e-14
1e-14
1.27818e-14
7.7864e-14
1.07292e-13
1.34484e-14
1.40601e-13
1e-14
4.28878e-13
1.24255e-14
1e-14
1.09385e-14
1.00639e-14
3.65844e-14
1.10567e-14
1.41591e-14
1.00692e-14
1.80226e-14
2.45853e-13
1.46366e-14
4.65328e-14
3.18915e-13
1.66593e-14
1.00887e-12
1e-14
1.1195e-12
9.09857e-14
1.01682e-14
2.67913e-14
1e-14
4.07987e-14
1.01521e-14
3.30546e-14
1.10812e-14
1e-14
1.0145e-14
7.14867e-14
1.0515e-14
1e-14
2.15522e-14
1.21046e-14
5.16751e-14
1.20125e-14
3.99005e-13
1.82155e-14
2.95176e-14
5.30282e-13
2.22984e-14
1.50472e-14
3.56643e-13
1.43083e-14
4.99849e-13
1.97296e-14
4.67578e-13
1.83554e-14
1.01071e-12
1e-14
1.11962e-12
9.18195e-14
1e-14
1.0139e-14
7.1798e-14
1.04699e-14
1e-14
2.39667e-14
1.20709e-14
5.10791e-14
4.03558e-13
1.21623e-14
1.79925e-14
5.3035e-13
2.91781e-14
2.22496e-14
3.59849e-13
1.50389e-14
1.43063e-14
4.99723e-13
4.67785e-13
1.96632e-14
1.83066e-14
7.47758e-13
9.59351e-13
1.52131e-13
1e-14
4.27895e-13
1.27234e-14
2.48188e-13
1.82577e-14
1.45486e-14
3.19203e-13
4.65391e-14
1.66471e-14
2.67378e-14
1.01774e-14
1e-14
4.00713e-14
3.29858e-14
1.01418e-14
1.10254e-14
1.0502e-14
1e-14
1e-14
1.94833e-14
1.26973e-14
1.09142e-13
7.68428e-14
1.34239e-14
1.08004e-14
1e-14
1.00602e-14
3.68944e-14
1.42119e-14
1.10058e-14
1.00681e-14
7.91519e-13
4.28627e-13
1.49282e-14
9.86327e-13
1.02133e-12
5.91917e-14
1.59205e-14
1.21286e-14
1.0027e-14
4.05196e-13
2.59889e-14
1.40077e-14
1.01951e-14
4.74135e-13
4.7317e-13
1.26035e-14
1.03105e-12
1.02742e-12
5.30355e-14
4.28872e-13
7.91544e-13
1.49171e-14
1.01971e-12
9.86279e-13
5.9111e-14
1.05042e-14
1e-14
1.21279e-14
1.59208e-14
1.00271e-14
4.05195e-13
1.40007e-14
2.59865e-14
1.01946e-14
7.47736e-13
9.59313e-13
1.94801e-14
1e-14
1.26972e-14
7.68363e-14
1.09141e-13
1.34233e-14
1.52148e-13
1e-14
4.27877e-13
1.27233e-14
1e-14
1.08003e-14
1.00602e-14
3.6891e-14
1.10055e-14
1.42114e-14
1.00681e-14
1.82576e-14
2.48185e-13
1.45484e-14
4.6537e-14
3.19202e-13
1.66467e-14
1.0107e-12
1e-14
1.11962e-12
9.18183e-14
1.01774e-14
2.67374e-14
1e-14
4.0069e-14
1.01418e-14
3.29846e-14
1.10251e-14
1e-14
1.01389e-14
7.18005e-14
1.047e-14
1e-14
2.39704e-14
1.2071e-14
5.1074e-14
1.21628e-14
4.03503e-13
1.79967e-14
2.91768e-14
5.30389e-13
2.22577e-14
1.50439e-14
3.59573e-13
1.43071e-14
4.99771e-13
1.96784e-14
4.67518e-13
1.83037e-14
1.00908e-12
1e-14
1.11969e-12
9.1981e-14
1e-14
1.01384e-14
7.17609e-14
1.04652e-14
1e-14
2.45178e-14
1.20683e-14
5.11421e-14
4.04021e-13
1.2198e-14
1.80526e-14
5.30476e-13
2.91656e-14
2.22947e-14
3.60199e-13
1.51099e-14
1.43754e-14
4.99754e-13
4.67887e-13
1.96936e-14
1.83296e-14
7.4822e-13
9.59641e-13
1.51749e-13
1e-14
4.27317e-13
1.27967e-14
2.48354e-13
1.8441e-14
1.45974e-14
3.19422e-13
4.65731e-14
1.66769e-14
2.6947e-14
1.01806e-14
1e-14
3.98987e-14
3.30313e-14
1.01414e-14
1.10174e-14
1.07937e-14
1e-14
1e-14
1.97524e-14
1.27031e-14
1.10097e-13
7.66871e-14
1.3418e-14
1.08121e-14
1e-14
1.00583e-14
3.69791e-14
1.42409e-14
1.09893e-14
1.00654e-14
7.91065e-13
4.28479e-13
1.52533e-14
9.86584e-13
1.02078e-12
5.89268e-14
1.59881e-14
1.21228e-14
1.00285e-14
4.05315e-13
2.60448e-14
1.39987e-14
1.01887e-14
4.74265e-13
4.73308e-13
1.28016e-14
1.03047e-12
1.02685e-12
5.2803e-14
4.28732e-13
7.91113e-13
1.52425e-14
1.01915e-12
9.86534e-13
5.88467e-14
1.0797e-14
1e-14
1.21221e-14
1.59885e-14
1.00286e-14
4.05312e-13
1.39915e-14
2.60419e-14
1.01883e-14
7.48192e-13
9.59605e-13
1.97516e-14
1e-14
1.27029e-14
7.66797e-14
1.10096e-13
1.34175e-14
1.51762e-13
1e-14
4.27305e-13
1.27967e-14
1e-14
1.08121e-14
1.00583e-14
3.69758e-14
1.09891e-14
1.42403e-14
1.00653e-14
1.84402e-14
2.48353e-13
1.45972e-14
4.6571e-14
3.19422e-13
1.66766e-14
1.00907e-12
1e-14
1.11969e-12
9.19864e-14
1.01806e-14
2.69465e-14
1e-14
3.98959e-14
1.01414e-14
3.30303e-14
1.10173e-14
1e-14
1.01383e-14
7.17626e-14
1.04653e-14
1e-14
2.45204e-14
1.20686e-14
5.1137e-14
1.21982e-14
4.03964e-13
1.80569e-14
2.91643e-14
5.30515e-13
2.2303e-14
1.51149e-14
3.59929e-13
1.43761e-14
4.99808e-13
1.97091e-14
4.67614e-13
1.83266e-14
1.0084e-12
1e-14
1.11956e-12
9.20352e-14
1e-14
1.01378e-14
7.16748e-14
1.04733e-14
1e-14
2.4676e-14
1.20656e-14
5.14175e-14
4.03943e-13
1.21598e-14
1.80676e-14
5.30592e-13
2.93187e-14
2.2384e-14
3.6019e-13
1.51202e-14
1.43822e-14
4.99814e-13
4.67875e-13
1.97444e-14
1.83661e-14
7.4838e-13
9.59791e-13
1.51311e-13
1e-14
4.2683e-13
1.2851e-14
2.48389e-13
1.83749e-14
1.46045e-14
3.1975e-13
4.66102e-14
1.66954e-14
2.70153e-14
1.01803e-14
1e-14
3.97017e-14
3.31026e-14
1.01408e-14
1.10131e-14
1.0814e-14
1e-14
1e-14
1.96985e-14
1.26915e-14
1.10959e-13
7.65404e-14
1.34055e-14
1.08233e-14
1e-14
1.00566e-14
3.69772e-14
1.4255e-14
1.09735e-14
1.00617e-14
7.91035e-13
4.28201e-13
1.5267e-14
9.86564e-13
1.02071e-12
5.89109e-14
1.60031e-14
1.21195e-14
1.00274e-14
4.05325e-13
2.60434e-14
1.39919e-14
1.01842e-14
4.74081e-13
4.73134e-13
1.28107e-14
1.0303e-12
1.02668e-12
5.28017e-14
4.28458e-13
7.91069e-13
1.52551e-14
1.01908e-12
9.86517e-13
5.88295e-14
1.08185e-14
1e-14
1.21188e-14
1.60029e-14
1.00275e-14
4.05319e-13
1.39846e-14
2.60399e-14
1.01838e-14
7.48361e-13
9.59755e-13
1.96967e-14
1e-14
1.26912e-14
7.65326e-14
1.10961e-13
1.34052e-14
1.51325e-13
1e-14
4.26819e-13
1.28512e-14
1e-14
1.08232e-14
1.00566e-14
3.69733e-14
1.09731e-14
1.42542e-14
1.00617e-14
1.83738e-14
2.48388e-13
1.46044e-14
4.66079e-14
3.19752e-13
1.66952e-14
1.00838e-12
1e-14
1.11956e-12
9.20365e-14
1.01803e-14
2.70154e-14
1e-14
3.96987e-14
1.01408e-14
3.31014e-14
1.10129e-14
1e-14
1.01379e-14
7.16768e-14
1.04734e-14
1e-14
2.46792e-14
1.20658e-14
5.14135e-14
1.21603e-14
4.03892e-13
1.80718e-14
2.93176e-14
5.30631e-13
2.23924e-14
1.51253e-14
3.59922e-13
1.43827e-14
4.99866e-13
1.97603e-14
4.67597e-13
1.8363e-14
1.00791e-12
1e-14
1.11932e-12
9.25771e-14
1e-14
1.0133e-14
7.17059e-14
1.05354e-14
1e-14
2.49511e-14
1.21133e-14
5.20021e-14
4.03169e-13
1.20961e-14
1.80895e-14
5.3065e-13
2.98655e-14
2.26394e-14
3.59637e-13
1.51203e-14
1.4373e-14
5.00207e-13
4.67976e-13
1.98671e-14
1.84417e-14
7.48475e-13
9.59966e-13
1.50508e-13
1e-14
4.26227e-13
1.29304e-14
2.48485e-13
1.82108e-14
1.4598e-14
3.20598e-13
4.6786e-14
1.67363e-14
2.71746e-14
1.01778e-14
1e-14
3.91167e-14
3.34008e-14
1.01388e-14
1.10061e-14
1.08316e-14
1e-14
1e-14
1.95189e-14
1.26575e-14
1.1214e-13
7.65547e-14
1.34091e-14
1.0839e-14
1e-14
1.00552e-14
3.70565e-14
1.42779e-14
1.09574e-14
1.00569e-14
7.90959e-13
4.28012e-13
1.52489e-14
9.86501e-13
1.02048e-12
5.91971e-14
1.59871e-14
1.2112e-14
1.00224e-14
4.0528e-13
2.60605e-14
1.40036e-14
1.01836e-14
4.73856e-13
4.72914e-13
1.28047e-14
1.03006e-12
1.02645e-12
5.29819e-14
4.28279e-13
7.90994e-13
1.52359e-14
1.01884e-12
9.86455e-13
5.91183e-14
1.08367e-14
1e-14
1.21114e-14
1.59865e-14
1.00225e-14
4.05267e-13
1.39959e-14
2.60566e-14
1.01833e-14
7.48458e-13
9.5993e-13
1.95162e-14
1e-14
1.26573e-14
7.65459e-14
1.12141e-13
1.34089e-14
1.50524e-13
1e-14
4.26213e-13
1.2931e-14
1e-14
1.08389e-14
1.00552e-14
3.70527e-14
1.09571e-14
1.4277e-14
1.00569e-14
1.82094e-14
2.48485e-13
1.45978e-14
4.67833e-14
3.206e-13
1.67361e-14
1.0079e-12
1e-14
1.11932e-12
9.2581e-14
1.01778e-14
2.71743e-14
1e-14
3.91153e-14
1.01388e-14
3.33999e-14
1.10059e-14
1e-14
1.01331e-14
7.17082e-14
1.05354e-14
1e-14
2.49548e-14
1.21135e-14
5.19989e-14
1.20962e-14
4.0311e-13
1.80938e-14
2.98651e-14
5.30692e-13
2.26489e-14
1.51256e-14
3.59362e-13
1.43737e-14
5.00271e-13
1.98848e-14
4.67696e-13
1.84384e-14
1.00471e-12
1e-14
1.12003e-12
9.44158e-14
1e-14
1.01123e-14
7.39584e-14
1.07678e-14
1e-14
2.61306e-14
1.24687e-14
5.33119e-14
4.00707e-13
1.19227e-14
1.80933e-14
5.31695e-13
3.15571e-14
2.34589e-14
3.57753e-13
1.49799e-14
1.42335e-14
5.01819e-13
4.6895e-13
2.05102e-14
1.88781e-14
7.48103e-13
9.6197e-13
1.47972e-13
1e-14
4.24443e-13
1.29875e-14
2.48162e-13
1.78888e-14
1.4521e-14
3.23131e-13
4.74708e-14
1.6935e-14
2.77224e-14
1.01666e-14
1e-14
3.97662e-14
3.50319e-14
1.01583e-14
1.10112e-14
1.09089e-14
1e-14
1e-14
1.89789e-14
1.25777e-14
1.17217e-13
7.85611e-14
1.35223e-14
1.08514e-14
1e-14
1.00487e-14
3.76775e-14
1.43341e-14
1.09579e-14
1.00517e-14
7.90184e-13
4.27024e-13
1.52309e-14
9.87241e-13
1.01941e-12
6.08589e-14
1.5869e-14
1.20781e-14
1.00353e-14
4.07511e-13
2.64635e-14
1.41199e-14
1.01636e-14
4.73109e-13
4.72152e-13
1.28184e-14
1.0295e-12
1.02604e-12
5.35232e-14
4.27274e-13
7.90211e-13
1.52187e-14
1.01778e-12
9.87209e-13
6.07991e-14
1.09149e-14
1e-14
1.20778e-14
1.58674e-14
1.00353e-14
4.0748e-13
1.41111e-14
2.64596e-14
1.01635e-14
7.48083e-13
9.61962e-13
1.89755e-14
1e-14
1.25773e-14
7.85525e-14
1.17221e-13
1.35224e-14
1.47982e-13
1e-14
4.24434e-13
1.29884e-14
1e-14
1.08513e-14
1.00487e-14
3.76751e-14
1.09578e-14
1.43334e-14
1.00517e-14
1.78866e-14
2.48168e-13
1.45208e-14
4.74684e-14
3.23137e-13
1.69351e-14
1.00473e-12
1e-14
1.12003e-12
9.4428e-14
1.01666e-14
2.7722e-14
1e-14
3.97644e-14
1.01584e-14
3.50313e-14
1.10111e-14
1e-14
1.01122e-14
7.39632e-14
1.0768e-14
1e-14
2.61363e-14
1.24694e-14
5.33111e-14
1.19215e-14
4.00653e-13
1.80972e-14
3.15594e-14
5.31755e-13