/*--------------------------------*- C++ -*----------------------------------*\
| =========                 |                                                 |
| \\      /  F ield         | OpenFOAM: The Open Source CFD Toolbox           |
|  \\    /   O peration     | Version:  2.1.1                                 |
|   \\  /    A nd           | Web:      www.OpenFOAM.org                      |
|    \\/     M anipulation  |                                                 |
\*---------------------------------------------------------------------------*/
FoamFile
{
    version     2.0;
    format      ascii;
    class       volScalarField;
    location    "0.001";
    object      p;
}
// * * * * * * * * * * * * * * * * * * * * * * * * * * * * * * * * * * * * * //

dimensions      [0 2 -2 0 0 0 0];

internalField   nonuniform List<scalar> 
10233
(
0.147853
0.14652
0.121012
0.154395
0.153996
0.153344
0.154173
0.150721
0.138018
0.148984
0.149791
0.151402
0.152067
0.153102
0.153205
0.156674
0.141734
0.144811
0.145115
0.145888
0.146771
0.148745
0.150665
0.153997
0.155124
0.154328
0.138656
0.14253
0.142591
0.142904
0.143373
0.144562
0.146082
0.148717
0.151338
0.154642
0.156278
0.146585
0.140947
0.140963
0.141152
0.141457
0.142137
0.143013
0.144457
0.146003
0.148245
0.152189
0.155913
0.146848
0.140011
0.14001
0.140133
0.140332
0.140749
0.141265
0.142104
0.14306
0.144531
0.14672
0.151644
0.159829
0.139239
0.139233
0.139326
0.139488
0.139777
0.14015
0.140715
0.141397
0.142465
0.144122
0.147441
0.154066
0.155673
0.138662
0.138653
0.138726
0.138855
0.139097
0.139408
0.13987
0.140445
0.141355
0.142765
0.145326
0.14949
0.154638
0.130713
0.138172
0.13816
0.138221
0.13834
0.138555
0.138829
0.139227
0.139726
0.140476
0.141582
0.143487
0.146582
0.151014
0.150719
0.137786
0.137773
0.13782
0.137932
0.138134
0.138394
0.138758
0.139223
0.139912
0.14087
0.142474
0.144894
0.14863
0.153261
0.13747
0.137454
0.137505
0.137611
0.137788
0.13803
0.138361
0.138779
0.139383
0.140163
0.141443
0.143332
0.14643
0.149855
0.135232
0.137229
0.137216
0.137264
0.137364
0.137519
0.137747
0.138065
0.138452
0.138992
0.139637
0.140701
0.142064
0.144693
0.14671
0.129564
0.137048
0.137034
0.137072
0.137162
0.137314
0.137528
0.137823
0.138166
0.138645
0.139157
0.14001
0.140979
0.143506
0.147611
0.160188
0.136922
0.136904
0.13694
0.137025
0.137175
0.137377
0.137658
0.13798
0.13843
0.138881
0.13965
0.14043
0.142779
0.147101
0.162525
0.110229
0.109117
0.102978
0.0970915
0.0965091
0.0974644
0.0986347
0.123067
0.107287
0.0996773
0.09948
0.100169
0.0982477
0.101002
0.100598
0.130674
0.112281
0.0954161
0.0954205
0.0962552
0.0964752
0.0987608
0.098295
0.101243
0.101067
0.129729
0.108945
0.0948944
0.0949071
0.095444
0.0953289
0.0967402
0.0968543
0.0992695
0.0986897
0.101907
0.0992294
0.136133
0.0931469
0.0932211
0.0936706
0.0938886
0.0948445
0.0951204
0.096615
0.0970063
0.0988521
0.0992307
0.0992965
0.134175
0.0925363
0.0925939
0.0928982
0.0930655
0.0937412
0.0940849
0.0952108
0.0957375
0.0976734
0.0988412
0.101892
0.133913
0.0916652
0.0917345
0.0919815
0.0921939
0.0926943
0.0930711
0.0938939
0.0945178
0.09574
0.0970007
0.0986912
0.101047
0.132635
0.0912078
0.0912704
0.0914625
0.0916583
0.0920727
0.0924562
0.09319
0.0938907
0.095207
0.0966054
0.0992589
0.101226
0.132323
0.108148
0.0907231
0.0907854
0.0909506
0.0911462
0.0914991
0.0918579
0.0924563
0.0930692
0.0940827
0.0951144
0.0968488
0.098284
0.100589
0.126402
0.0904176
0.0904763
0.0906205
0.0908112
0.0911392
0.0914999
0.092072
0.0926916
0.0937376
0.0948381
0.0967332
0.0987514
0.100992
0.130162
0.0901468
0.0902037
0.0903415
0.0905258
0.0908141
0.0911469
0.0916577
0.0921917
0.0930626
0.0938836
0.0953238
0.0964682
0.0982404
0.0986279
0.12764
0.0899749
0.0900335
0.090166
0.0903436
0.0906218
0.0909505
0.0914613
0.091979
0.0928948
0.0936661
0.0954388
0.0962492
0.100162
0.097457
0.12598
0.0898516
0.0899092
0.0900326
0.0902037
0.0904763
0.0907846
0.0912689
0.0917321
0.0925908
0.0932169
0.0949028
0.0954153
0.0994746
0.0965036
0.130569
0.0897951
0.0898512
0.0899744
0.0901466
0.0904171
0.0907223
0.0912063
0.0916632
0.0925335
0.0931435
0.0948904
0.0954118
0.0996722
0.0970852
0.133636
0.109373
0.109512
0.111544
0.106584
0.106453
0.107716
0.106516
0.11809
0.108796
0.110208
0.110027
0.110528
0.109557
0.108625
0.106301
0.123452
0.111799
0.109467
0.109519
0.110047
0.109983
0.110026
0.109643
0.108375
0.107133
0.120913
0.114376
0.110127
0.11012
0.110391
0.110217
0.110446
0.110219
0.110365
0.110213
0.10879
0.108321
0.134826
0.109401
0.10945
0.109704
0.109794
0.110081
0.110151
0.110375
0.11046
0.110534
0.110477
0.108334
0.132252
0.109239
0.109272
0.109447
0.109518
0.109801
0.109929
0.110272
0.110428
0.110525
0.110533
0.108789
0.125597
0.108719
0.108766
0.108922
0.109051
0.109317
0.109514
0.109861
0.110125
0.110429
0.110457
0.110209
0.107121
0.121741
0.108437
0.108481
0.108612
0.10874
0.108991
0.109208
0.10957
0.109859
0.110268
0.110368
0.110356
0.108361
0.122777
0.110255
0.108084
0.108131
0.108252
0.108393
0.108629
0.10886
0.109207
0.109512
0.109926
0.110145
0.110212
0.109633
0.106293
0.118564
0.107852
0.107899
0.108012
0.108155
0.108388
0.108629
0.108989
0.109314
0.109797
0.110075
0.110439
0.110017
0.108616
0.121587
0.107634
0.107681
0.10779
0.107934
0.108156
0.108392
0.108739
0.109048
0.109515
0.109789
0.110211
0.109976
0.10955
0.106509
0.12702
0.107492
0.107539
0.107647
0.10779
0.108012
0.108251
0.10861
0.108919
0.109444
0.109699
0.110385
0.11004
0.110521
0.107709
0.122285
0.107387
0.107435
0.107539
0.107681
0.107899
0.10813
0.108479
0.108763
0.109269
0.109446
0.110116
0.109514
0.110021
0.106447
0.121503
0.10734
0.107387
0.107491
0.107633
0.107851
0.108082
0.108435
0.108716
0.109236
0.109396
0.110122
0.109462
0.110202
0.106578
0.120873
0.109239
0.10956
0.111227
0.107939
0.107716
0.108058
0.107961
0.116723
0.109629
0.109002
0.108912
0.109191
0.108696
0.108931
0.108097
0.11997
0.110932
0.108716
0.108703
0.108957
0.108972
0.108938
0.108921
0.1089
0.108698
0.117755
0.113564
0.108944
0.108936
0.10914
0.109057
0.109319
0.109223
0.10923
0.109296
0.109136
0.109242
0.130903
0.108381
0.108416
0.108607
0.108697
0.108943
0.109046
0.109288
0.109318
0.109354
0.108999
0.109262
0.128692
0.108192
0.10822
0.108372
0.108445
0.108703
0.108828
0.109117
0.109266
0.109474
0.10935
0.10913
0.122516
0.107732
0.107774
0.107911
0.10803
0.10827
0.108451
0.108765
0.108974
0.10927
0.109317
0.109292
0.108689
0.118938
0.107472
0.107513
0.107632
0.107751
0.107979
0.108177
0.108502
0.108762
0.109115
0.109282
0.109223
0.108889
0.119994
0.110386
0.107148
0.107192
0.107304
0.107433
0.10765
0.10786
0.108177
0.10845
0.108826
0.109041
0.109217
0.108913
0.108089
0.116376
0.106936
0.10698
0.107085
0.107216
0.107431
0.107649
0.107978
0.108267
0.108699
0.108938
0.109313
0.10893
0.108923
0.119016
0.106732
0.106776
0.106878
0.10701
0.107216
0.107432
0.107749
0.108028
0.108442
0.108692
0.109051
0.108965
0.108689
0.107954
0.124594
0.1066
0.106644
0.106745
0.106878
0.107085
0.107303
0.10763
0.107909
0.108368
0.108603
0.109134
0.108951
0.109185
0.108051
0.120067
0.106501
0.106546
0.106644
0.106775
0.106979
0.107191
0.107511
0.107771
0.108217
0.108412
0.108931
0.108698
0.108906
0.10771
0.119606
0.106456
0.106501
0.106599
0.106731
0.106935
0.107147
0.107471
0.107729
0.108189
0.108377
0.10894
0.108712
0.108997
0.107934
0.118882
0.108181
0.108562
0.110174
0.106056
0.105978
0.106057
0.106147
0.114865
0.108735
0.106751
0.106677
0.106807
0.106416
0.106553
0.106337
0.117421
0.1094
0.106838
0.106815
0.106905
0.10687
0.106744
0.106611
0.106597
0.106673
0.115301
0.111849
0.107167
0.10714
0.107234
0.107122
0.107214
0.10709
0.106958
0.106871
0.106792
0.106986
0.128365
0.106991
0.107002
0.107095
0.107113
0.107186
0.107167
0.107227
0.107139
0.107071
0.106644
0.106891
0.125823
0.106959
0.10697
0.10706
0.10708
0.107205
0.107221
0.107296
0.107277
0.107277
0.107067
0.106782
0.119863
0.106691
0.106717
0.106804
0.106871
0.107006
0.107083
0.107219
0.107246
0.107278
0.107138
0.10687
0.106665
0.11678
0.106531
0.106558
0.106641
0.106717
0.106862
0.106969
0.107133
0.107218
0.107294
0.107223
0.106953
0.106589
0.117736
0.109147
0.106297
0.106329
0.106412
0.106502
0.106652
0.106781
0.106968
0.107082
0.107219
0.107162
0.107085
0.106604
0.106331
0.114567
0.106139
0.106172
0.106254
0.106351
0.106506
0.106651
0.106861
0.107003
0.107202
0.107181
0.107209
0.106737
0.106546
0.116966
0.105977
0.106012
0.106093
0.106194
0.10635
0.106501
0.106715
0.106869
0.107077
0.107108
0.107117
0.106863
0.106409
0.106141
0.122452
0.105871
0.105907
0.105988
0.106093
0.106253
0.10641
0.10664
0.106802
0.107056
0.107091
0.107229
0.106899
0.106801
0.106051
0.118342
0.105789
0.105826
0.105907
0.106012
0.106172
0.106328
0.106556
0.106714
0.106967
0.106998
0.107135
0.106809
0.106671
0.105972
0.117887
0.105752
0.105789
0.105871
0.105976
0.106138
0.106296
0.106529
0.106688
0.106956
0.106987
0.107163
0.106834
0.106747
0.106051
0.117211
0.107226
0.107634
0.1092
0.104951
0.104924
0.104923
0.10502
0.113649
0.10778
0.105334
0.105278
0.105368
0.10511
0.105184
0.10514
0.115924
0.108183
0.105569
0.105552
0.105565
0.105543
0.105396
0.105295
0.105247
0.105341
0.11379
0.110493
0.105851
0.105825
0.105868
0.105777
0.105788
0.105708
0.105531
0.105465
0.105327
0.105489
0.126317
0.105872
0.105871
0.105901
0.105891
0.105887
0.105839
0.105818
0.105719
0.105625
0.105251
0.105621
0.124318
0.10593
0.105932
0.105976
0.105967
0.106003
0.105975
0.105948
0.105883
0.105786
0.10563
0.10534
0.118254
0.105807
0.105821
0.105869
0.105899
0.105957
0.105969
0.105997
0.105949
0.105884
0.10572
0.105464
0.105338
0.115342
0.105721
0.105738
0.105791
0.105833
0.105911
0.105954
0.106008
0.105996
0.105947
0.105815
0.105527
0.105241
0.116361
0.107984
0.105569
0.105591
0.105647
0.105705
0.105797
0.105865
0.105954
0.105967
0.105973
0.105835
0.105703
0.105289
0.105133
0.113274
0.10546
0.105484
0.105542
0.105608
0.105711
0.105796
0.10591
0.105955
0.106
0.105883
0.105783
0.10539
0.105178
0.115653
0.105342
0.105368
0.105427
0.105499
0.105607
0.105704
0.105831
0.105897
0.105963
0.105887
0.105772
0.105536
0.105103
0.105013
0.121239
0.105263
0.10529
0.105351
0.105427
0.105541
0.105645
0.105789
0.105866
0.105973
0.105897
0.105864
0.10556
0.105362
0.104916
0.117048
0.105201
0.105229
0.10529
0.105367
0.105483
0.10559
0.105736
0.105818
0.105928
0.105866
0.10582
0.105546
0.105272
0.104917
0.116702
0.105172
0.105201
0.105263
0.105341
0.105459
0.105568
0.10572
0.105805
0.105928
0.10587
0.105848
0.105566
0.105331
0.104947
0.116002
0.106274
0.106688
0.108183
0.103952
0.103948
0.103896
0.104039
0.112578
0.106795
0.10405
0.104018
0.104091
0.103933
0.104033
0.10408
0.114723
0.107087
0.104312
0.104304
0.104281
0.104282
0.104143
0.104097
0.104095
0.104214
0.11257
0.109319
0.1045
0.10448
0.104497
0.104433
0.104421
0.104386
0.104219
0.104212
0.104117
0.104398
0.12551
0.104619
0.104613
0.10461
0.104591
0.104552
0.104502
0.104466
0.104384
0.104324
0.104009
0.104383
0.123051
0.10472
0.104713
0.104723
0.104698
0.104689
0.104649
0.104583
0.104521
0.104417
0.104325
0.104124
0.116993
0.104722
0.104724
0.104738
0.104736
0.104736
0.104707
0.104681
0.104608
0.104522
0.104385
0.104213
0.104213
0.114156
0.104709
0.104715
0.104737
0.104747
0.104768
0.104758
0.104736
0.10468
0.104581
0.104464
0.104216
0.10409
0.11522
0.106938
0.104639
0.10465
0.104678
0.104703
0.10474
0.104751
0.104757
0.104706
0.104647
0.104499
0.104382
0.104092
0.104074
0.112165
0.104581
0.104594
0.104628
0.104662
0.104711
0.104739
0.104766
0.104734
0.104686
0.104548
0.104416
0.104138
0.104027
0.114545
0.104509
0.104525
0.104561
0.104603
0.104661
0.104702
0.104746
0.104733
0.104695
0.104586
0.104428
0.104276
0.103926
0.104031
0.120139
0.104457
0.104475
0.104515
0.104561
0.104627
0.104677
0.104736
0.104735
0.10472
0.104606
0.104493
0.104276
0.104085
0.103889
0.115928
0.104416
0.104434
0.104475
0.104524
0.104593
0.104649
0.104713
0.104722
0.104709
0.104609
0.104475
0.104298
0.10401
0.10394
0.115627
0.104396
0.104415
0.104457
0.104508
0.10458
0.104638
0.104707
0.10472
0.104718
0.104617
0.104498
0.104309
0.104047
0.103949
0.114932
0.105307
0.105725
0.107177
0.102929
0.102945
0.102858
0.103032
0.111531
0.105795
0.102886
0.10287
0.10293
0.102818
0.102924
0.103026
0.113609
0.106028
0.103154
0.103155
0.103113
0.103129
0.102996
0.102962
0.102989
0.103113
0.111445
0.108225
0.103264
0.103252
0.103258
0.103214
0.103194
0.103184
0.103026
0.103036
0.102977
0.103255
0.124175
0.103423
0.103417
0.103397
0.103378
0.103326
0.103281
0.103246
0.103174
0.103134
0.102849
0.103256
0.121845
0.103525
0.103516
0.10351
0.103483
0.103452
0.103413
0.103333
0.103284
0.103188
0.103135
0.102979
0.115832
0.103595
0.10359
0.103582
0.103564
0.103537
0.103494
0.103446
0.10337
0.103284
0.103174
0.103036
0.103112
0.113041
0.103634
0.103632
0.103633
0.10362
0.103602
0.103567
0.103511
0.103445
0.103332
0.103244
0.103024
0.102985
0.114136
0.105917
0.103629
0.103632
0.103638
0.103637
0.103633
0.103605
0.103567
0.103493
0.103411
0.103278
0.10318
0.102957
0.10302
0.111103
0.103613
0.103618
0.103631
0.103639
0.103646
0.103632
0.103601
0.103536
0.10345
0.103323
0.10319
0.102991
0.102919
0.113488
0.103581
0.103589
0.103606
0.103621
0.103638
0.103636
0.103618
0.103562
0.103479
0.103374
0.103209
0.103123
0.10281
0.103025
0.119056
0.103556
0.103565
0.103585
0.103606
0.10363
0.103637
0.103631
0.10358
0.103508
0.103394
0.103253
0.103108
0.102924
0.102851
0.11486
0.103533
0.103543
0.103565
0.103589
0.103617
0.10363
0.10363
0.103587
0.103513
0.103413
0.103246
0.103148
0.102861
0.102936
0.11458
0.103522
0.103532
0.103555
0.103581
0.103612
0.103628
0.103633
0.103593
0.103523
0.103421
0.103262
0.103152
0.102884
0.102927
0.113897
0.104329
0.104753
0.106177
0.101917
0.101947
0.10184
0.102027
0.110501
0.104792
0.101802
0.101797
0.10185
0.101761
0.101863
0.101988
0.112538
0.10499
0.102059
0.102066
0.102017
0.102043
0.101918
0.101887
0.101926
0.102045
0.110366
0.107159
0.102107
0.102101
0.102103
0.102075
0.102054
0.102062
0.101915
0.101933
0.101888
0.102163
0.123028
0.10227
0.102267
0.102241
0.102227
0.102173
0.102136
0.102106
0.102046
0.102024
0.101759
0.10217
0.120723
0.102353
0.102346
0.102333
0.102309
0.102273
0.102242
0.102163
0.102129
0.102045
0.102024
0.101889
0.114728
0.10245
0.102443
0.102426
0.102404
0.102366
0.102323
0.10227
0.102204
0.102129
0.102046
0.101931
0.102043
0.111966
0.102509
0.102502
0.10249
0.102468
0.102435
0.102394
0.102328
0.102269
0.102162
0.102104
0.101912
0.101923
0.113082
0.104902
0.102551
0.102547
0.102538
0.102519
0.102491
0.102449
0.102394
0.102321
0.10224
0.102133
0.102058
0.101882
0.101982
0.110064
0.102566
0.102565
0.102561
0.10255
0.102528
0.10249
0.102434
0.102364
0.10227
0.10217
0.10205
0.101913
0.101857
0.112452
0.102567
0.102568
0.102569
0.102564
0.10255
0.102518
0.102467
0.102401
0.102306
0.102223
0.102069
0.102036
0.101753
0.102018
0.118003
0.102562
0.102565
0.102568
0.102568
0.102561
0.102537
0.102489
0.102424
0.102331
0.102238
0.102099
0.102012
0.101843
0.101834
0.113817
0.102555
0.102559
0.102564
0.102567
0.102564
0.102545
0.1025
0.10244
0.102342
0.102262
0.102095
0.102059
0.101786
0.101934
0.113551
0.102551
0.102555
0.102562
0.102566
0.102565
0.102549
0.102508
0.102448
0.102351
0.102269
0.102106
0.102057
0.101802
0.101915
0.112875
0.103346
0.103775
0.105181
0.100913
0.10095
0.100835
0.101026
0.109483
0.10379
0.100753
0.100756
0.100804
0.100731
0.100829
0.100965
0.111492
0.103966
0.100991
0.101003
0.100951
0.100986
0.100863
0.100841
0.100885
0.101002
0.109312
0.106115
0.100991
0.100991
0.100992
0.100976
0.100957
0.100976
0.10084
0.100867
0.100832
0.101113
0.121958
0.101142
0.101141
0.101114
0.101107
0.101055
0.101028
0.101005
0.100958
0.100949
0.100706
0.101107
0.119634
0.101197
0.101193
0.101179
0.101162
0.101127
0.101107
0.101035
0.101017
0.100946
0.100948
0.100829
0.113656
0.101296
0.10129
0.10127
0.10125
0.101212
0.101175
0.101128
0.101077
0.101016
0.100957
0.100864
0.100999
0.110916
0.101354
0.101347
0.10133
0.101308
0.101271
0.101235
0.101171
0.101127
0.101034
0.101003
0.100837
0.100882
0.112042
0.103893
0.101415
0.101408
0.101391
0.101368
0.101331
0.101289
0.101234
0.101174
0.101105
0.101025
0.100973
0.100836
0.100959
0.109038
0.101452
0.101447
0.101432
0.101409
0.101373
0.101331
0.10127
0.10121
0.101125
0.101052
0.100953
0.100859
0.100823
0.111428
0.101477
0.101473
0.101462
0.101443
0.101409
0.101366
0.101306
0.101248
0.101159
0.101103
0.10097
0.100979
0.100723
0.101016
0.116967
0.101488
0.101485
0.101477
0.101462
0.101432
0.10139
0.101329
0.101268
0.101177
0.101111
0.100988
0.100946
0.100798
0.100829
0.11279
0.101493
0.101491
0.101485
0.101472
0.101446
0.101406
0.101345
0.101287
0.101189
0.101137
0.100985
0.100996
0.100744
0.100936
0.11253
0.101495
0.101493
0.101488
0.101476
0.101452
0.101414
0.101353
0.101295
0.101196
0.101141
0.100991
0.10099
0.100754
0.100912
0.111861
0.102363
0.102794
0.10419
0.0999182
0.0999562
0.0998437
0.100032
0.108474
0.102794
0.0997285
0.0997361
0.0997835
0.0997226
0.0998142
0.0999542
0.110466
0.102954
0.0999434
0.099958
0.0999068
0.099949
0.0998272
0.099813
0.0998576
0.0999748
0.108275
0.105088
0.0999047
0.0999092
0.0999113
0.0999047
0.0998891
0.0999172
0.0997922
0.0998252
0.0997994
0.100081
0.120869
0.100032
0.100034
0.10001
0.100009
0.0999622
0.0999462
0.0999303
0.0998992
0.0998979
0.0996808
0.100071
0.118568
0.100058
0.100057
0.100046
0.100036
0.100006
0.0999971
0.0999375
0.0999331
0.0998788
0.0998963
0.0997949
0.112605
0.100143
0.10014
0.100122
0.100107
0.100073
0.100048
0.10001
0.0999777
0.0999324
0.0998976
0.099822
0.0999717
0.109883
0.100188
0.100183
0.100167
0.100149
0.100116
0.10009
0.100037
0.10001
0.0999363
0.0999285
0.0997892
0.0998542
0.111014
0.10289
0.10025
0.100243
0.100225
0.100203
0.100169
0.100135
0.100089
0.100047
0.0999952
0.0999434
0.0999136
0.0998084
0.0999494
0.108023
0.100291
0.100284
0.100265
0.100242
0.100205
0.100168
0.100115
0.100072
0.100004
0.0999597
0.0998855
0.0998235
0.0998088
0.110412
0.100331
0.100324
0.100305
0.10028
0.100241
0.100202
0.100147
0.100105
0.100033
0.100005
0.0998994
0.0999421
0.0997141
0.100022
0.115945
0.100352
0.100346
0.10033
0.100306
0.100265
0.100224
0.100166
0.10012
0.100043
0.100007
0.0999077
0.0999027
0.0997765
0.0998364
0.111776
0.100367
0.100361
0.100346
0.100323
0.100283
0.100241
0.100181
0.100137
0.100053
0.10003
0.0999027
0.0999506
0.0997243
0.0999439
0.111517
0.100372
0.100367
0.100352
0.10033
0.100291
0.100249
0.100187
0.100143
0.100057
0.100031
0.0999044
0.0999421
0.09973
0.0999178
0.110851
0.10139
0.101815
0.103206
0.0989384
0.0989789
0.0988641
0.0990492
0.107479
0.101808
0.0987225
0.098734
0.0987816
0.0987348
0.0988176
0.0989589
0.109455
0.101952
0.0989093
0.0989255
0.0988804
0.0989265
0.0988055
0.0988001
0.0988387
0.0989642
0.10725
0.104071
0.0988363
0.0988446
0.0988507
0.0988539
0.0988424
0.0988774
0.0987652
0.0988037
0.0987885
0.0990644
0.119771
0.0989317
0.0989365
0.0989175
0.0989235
0.0988845
0.0988811
0.098872
0.0988613
0.0988649
0.0986819
0.0990616
0.117521
0.0989283
0.0989302
0.0989234
0.0989221
0.0989007
0.0989038
0.0988599
0.0988695
0.0988357
0.0988631
0.0987833
0.111569
0.0989913
0.09899
0.0989762
0.098969
0.098944
0.0989321
0.0989079
0.0988959
0.0988688
0.0988596
0.0988005
0.098961
0.108866
0.0990169
0.0990139
0.0990017
0.098991
0.0989663
0.0989529
0.0989163
0.0989076
0.0988588
0.0988704
0.0987627
0.098836
0.109995
0.101895
0.0990671
0.0990619
0.0990467
0.0990311
0.0990046
0.0989835
0.0989524
0.0989311
0.098902
0.0988787
0.0988743
0.0987962
0.0989546
0.107017
0.0991019
0.0990952
0.0990784
0.0990591
0.099029
0.0990044
0.0989656
0.0989429
0.098899
0.0988824
0.0988393
0.0988025
0.0988132
0.109407
0.099142
0.0991338
0.0991146
0.0990918
0.0990585
0.0990302
0.0989895
0.0989671
0.0989193
0.09892
0.0988492
0.0989204
0.0987279
0.0990419
0.114936
0.0991701
0.0991616
0.0991414
0.099115
0.0990781
0.0990461
0.0990007
0.0989749
0.0989215
0.0989153
0.0988473
0.098877
0.098776
0.098863
0.110774
0.0991898
0.0991815
0.0991615
0.0991334
0.0990942
0.0990605
0.0990119
0.0989875
0.0989269
0.0989324
0.0988388
0.0989183
0.0987234
0.0989622
0.110512
0.0991977
0.09919
0.0991701
0.0991419
0.0991014
0.0990666
0.0990162
0.0989905
0.0989275
0.0989307
0.0988361
0.0989083
0.0987227
0.0989367
0.109846
0.100422
0.10084
0.102235
0.0979753
0.0980095
0.0979215
0.098092
0.106503
0.100839
0.0977295
0.0977453
0.0978015
0.097774
0.0978422
0.0979838
0.108463
0.100962
0.0978854
0.0979019
0.0978714
0.0979155
0.0977988
0.0978004
0.0978281
0.0979696
0.106232
0.103066
0.0977773
0.0977901
0.0978028
0.097818
0.0978109
0.0978524
0.0977551
0.097801
0.0978018
0.0981005
0.11878
0.0978342
0.0978412
0.0978313
0.0978441
0.097815
0.0978258
0.0978248
0.0978392
0.0978504
0.0977133
0.0980454
0.116479
0.0978
0.0978053
0.0978051
0.097813
0.0978027
0.0978186
0.097794
0.0978194
0.0978108
0.0978484
0.0977945
0.110546
0.0978349
0.0978362
0.097829
0.0978301
0.0978166
0.0978199
0.0978124
0.0978237
0.0978189
0.0978381
0.0977989
0.0979687
0.107867
0.0978388
0.0978386
0.0978321
0.0978298
0.0978169
0.0978176
0.0978013
0.0978122
0.0977932
0.0978238
0.0977534
0.0978256
0.108985
0.100911
0.0978714
0.0978686
0.0978588
0.097851
0.0978358
0.0978295
0.0978172
0.0978192
0.0978172
0.097824
0.09785
0.0977973
0.0979806
0.106021
0.0978941
0.0978895
0.0978773
0.0978655
0.0978462
0.0978357
0.0978164
0.0978158
0.0978014
0.0978135
0.0978086
0.0977966
0.0978388
0.108414
0.0979261
0.0979194
0.097904
0.0978878
0.097865
0.0978503
0.0978286
0.0978285
0.0978107
0.0978413
0.0978142
0.0979109
0.0977685
0.0980858
0.113942
0.0979517
0.0979431
0.0979246
0.0979043
0.097877
0.0978583
0.0978314
0.0978279
0.0978036
0.0978295
0.0978002
0.0978688
0.0977967
0.0979183
0.109785
0.0979741
0.0979645
0.097943
0.0979191
0.0978887
0.0978675
0.097837
0.0978341
0.0978025
0.0978378
0.0977851
0.097896
0.0977386
0.0979986
0.109515
0.0979837
0.0979742
0.0979516
0.097926
0.0978937
0.097871
0.0978383
0.0978342
0.0977995
0.0978334
0.0977773
0.0978849
0.0977287
0.0979749
0.108846
0.0994645
0.0998781
0.101286
0.097041
0.0970737
0.097023
0.0971794
0.105556
0.0998965
0.0967475
0.0967699
0.0968461
0.0968491
0.0968961
0.0970391
0.107498
0.0999899
0.0968694
0.0968869
0.0968811
0.0969181
0.0968073
0.0968144
0.0968318
0.0969889
0.10522
0.102062
0.0967196
0.0967372
0.0967623
0.0967929
0.0967911
0.0968397
0.0967614
0.0968183
0.0968375
0.097119
0.117495
0.0967327
0.096742
0.0967451
0.0967647
0.096748
0.0967748
0.0967849
0.0968295
0.096854
0.0967859
0.0971313
0.115462
0.0966662
0.096675
0.0966838
0.0967015
0.0967042
0.096735
0.096733
0.096778
0.0968009
0.0968557
0.0968428
0.109541
0.09667
0.096674
0.0966751
0.096685
0.0966849
0.0967047
0.0967169
0.096754
0.0967781
0.0968301
0.0968199
0.0969909
0.106893
0.0966508
0.0966535
0.0966544
0.0966611
0.0966618
0.0966778
0.0966844
0.0967169
0.0967327
0.0967847
0.0967612
0.0968305
0.107989
0.0999437
0.0966629
0.0966629
0.0966597
0.0966606
0.0966585
0.0966682
0.0966775
0.0967043
0.0967341
0.0967738
0.0968385
0.0968127
0.0970373
0.105038
0.0966719
0.09667
0.0966639
0.0966606
0.0966537
0.0966585
0.0966614
0.0966844
0.0967033
0.0967471
0.0967897
0.0968058
0.0968939
0.107439
0.096692
0.0966877
0.0966784
0.0966704
0.0966602
0.0966601
0.0966602
0.0966839
0.0966999
0.0967629
0.0967904
0.0969152
0.0968458
0.0971752
0.112968
0.0967099
0.0967035
0.0966906
0.0966785
0.0966637
0.0966594
0.0966538
0.0966744
0.0966828
0.0967438
0.0967605
0.0968794
0.0968429
0.097021
0.108813
0.0967286
0.0967198
0.0967033
0.0966876
0.0966694
0.0966621
0.0966523
0.0966725
0.0966728
0.0967395
0.0967333
0.0968826
0.0967656
0.0970658
0.108529
0.0967394
0.0967288
0.0967099
0.096692
0.0966716
0.0966627
0.0966504
0.0966695
0.0966659
0.096732
0.09672
0.096869
0.0967463
0.0970416
0.10785
0.0985238
0.0989349
0.100374
0.0961535
0.0961883
0.0962072
0.096354
0.10466
0.099004
0.0957686
0.0958023
0.0959215
0.0959746
0.0959945
0.0961438
0.106579
0.0990464
0.0958625
0.0958832
0.0959115
0.0959399
0.0958307
0.0958404
0.0958529
0.0960301
0.104215
0.101064
0.0956534
0.0956727
0.0957204
0.0957736
0.0957782
0.0958386
0.0957836
0.0958634
0.0959145
0.0962081
0.116235
0.0956185
0.09563
0.09565
0.0956777
0.0956754
0.09572
0.0957483
0.0958311
0.095881
0.0959184
0.0963301
0.114462
0.095517
0.0955291
0.0955501
0.0955777
0.095595
0.0956449
0.0956689
0.0957402
0.0958024
0.0958855
0.0959333
0.10855
0.0954919
0.0954982
0.0955086
0.095527
0.0955414
0.0955786
0.0956138
0.0956796
0.0957403
0.0958326
0.0958677
0.096033
0.105961
0.095449
0.0954548
0.0954639
0.0954798
0.0954949
0.0955268
0.0955576
0.0956139
0.0956689
0.0957486
0.0957846
0.0958536
0.107016
0.0990062
0.095441
0.0954436
0.0954474
0.0954569
0.0954687
0.0954947
0.0955267
0.0955786
0.0956444
0.0957197
0.0958387
0.0958403
0.0961434
0.104075
0.0954369
0.0954378
0.0954383
0.0954435
0.0954485
0.0954688
0.0954948
0.0955413
0.0955946
0.0956751
0.0957778
0.0958301
0.0959935
0.106495
0.0954442
0.0954427
0.0954399
0.0954404
0.0954431
0.0954566
0.0954793
0.0955264
0.0955767
0.095677
0.0957725
0.0959387
0.0959732
0.096352
0.112021
0.095453
0.0954496
0.0954434
0.09544
0.0954381
0.0954473
0.0954636
0.0955083
0.0955495
0.0956496
0.0957196
0.0959109
0.0959203
0.0962065
0.107869
0.0954648
0.0954589
0.0954495
0.0954426
0.0954373
0.095443
0.0954541
0.0954973
0.0955278
0.0956285
0.0956708
0.0958808
0.0958002
0.0961847
0.10756
0.0954732
0.095465
0.0954532
0.0954443
0.0954369
0.0954409
0.0954488
0.0954915
0.0955168
0.0956179
0.095653
0.0958618
0.0957675
0.096153
0.10686
0.0976046
0.0980118
0.099517
0.0953374
0.0953811
0.0955408
0.0956962
0.103849
0.0982019
0.0947542
0.094805
0.0950105
0.0951571
0.0951389
0.0953326
0.105737
0.0981614
0.094876
0.094889
0.0949652
0.0949761
0.0948472
0.0948572
0.0948879
0.0951105
0.103213
0.100066
0.0945414
0.0945724
0.0946623
0.0947514
0.0947547
0.0948639
0.0948081
0.0949431
0.0950668
0.0956407
0.115396
0.0945098
0.0945194
0.0945549
0.0945808
0.0945827
0.0946498
0.094707
0.0948444
0.0949362
0.0951385
0.0955259
0.113391
0.0943448
0.094361
0.0944004
0.0944448
0.0944762
0.0945452
0.0945896
0.0946939
0.0948095
0.0949352
0.0950526
0.107583
0.0943003
0.0943083
0.0943279
0.0943528
0.0943798
0.0944348
0.0944933
0.0945916
0.0946937
0.0948443
0.0949423
0.0951124
0.1051
0.0942298
0.0942385
0.0942567
0.0942816
0.0943108
0.0943581
0.094412
0.0944936
0.0945897
0.0947075
0.0948086
0.0948891
0.106083
0.0981294
0.094203
0.0942077
0.0942184
0.0942353
0.0942607
0.094303
0.0943581
0.094435
0.0945453
0.0946501
0.0948645
0.094858
0.0953334
0.103145
0.0941892
0.0941924
0.094199
0.0942115
0.0942254
0.0942608
0.094311
0.0943801
0.0944765
0.0945832
0.0947553
0.094848
0.0951394
0.105607
0.0941854
0.0941864
0.0941895
0.0941975
0.0942112
0.0942354
0.0942815
0.0943529
0.0944447
0.0945808
0.0947515
0.0949764
0.0951574
0.0956968
0.111102
0.0941857
0.0941852
0.0941852
0.0941896
0.0941989
0.0942184
0.0942568
0.094328
0.0944006
0.0945551
0.0946627
0.0949657
0.0950111
0.0955417
0.106964
0.0941909
0.0941879
0.0941852
0.0941864
0.0941922
0.0942075
0.0942382
0.0943079
0.0943606
0.0945188
0.0945721
0.0948884
0.094805
0.0953812
0.106612
0.0941953
0.0941911
0.0941859
0.0941855
0.0941892
0.0942029
0.0942297
0.0943
0.0943448
0.0945093
0.0945412
0.094875
0.0947534
0.0953356
0.105869
0.096722
0.0971096
0.0987611
0.0946183
0.094667
0.0951269
0.0953416
0.103144
0.0975755
0.0936876
0.09376
0.0941432
0.0944475
0.0943193
0.094651
0.105033
0.0974229
0.0938689
0.093868
0.0940245
0.0940028
0.0938457
0.093858
0.0939236
0.0942526
0.102228
0.0989617
0.0933931
0.0934308
0.0935837
0.0937147
0.0937152
0.0938749
0.0938339
0.0939991
0.0942576
0.0953475
0.112979
0.093362
0.0933665
0.093425
0.093445
0.0934562
0.0935472
0.0936328
0.0938419
0.0939055
0.094451
0.0953795
0.112255
0.0931436
0.0931623
0.0932233
0.0932795
0.0933257
0.0934158
0.093481
0.093612
0.0937622
0.0939071
0.0942606
0.106644
0.0930909
0.0930986
0.093127
0.093155
0.0931932
0.0932653
0.0933453
0.0934799
0.0936114
0.0938424
0.0940002
0.0942559
0.104359
0.0929976
0.093008
0.0930354
0.0930674
0.0931091
0.0931697
0.0932435
0.0933457
0.0934813
0.0936338
0.0938355
0.0939261
0.105263
0.0974167
0.0929651
0.0929713
0.0929876
0.0930101
0.0930449
0.0930968
0.0931698
0.0932657
0.0934161
0.0935483
0.0938763
0.0938601
0.0946525
0.102307
0.0929313
0.0929369
0.0929501
0.0929704
0.0930003
0.0930451
0.0931094
0.0931937
0.0933264
0.0934574
0.0937166
0.093848
0.0943211
0.104805
0.092919
0.0929221
0.0929304
0.0929455
0.0929703
0.0930101
0.0930675
0.0931553
0.0932801
0.0934457
0.093716
0.0940046
0.0944498
0.0953448
0.110181
0.0929104
0.0929127
0.0929182
0.0929305
0.0929501
0.0929877
0.0930357
0.0931273
0.0932241
0.0934258
0.0935854
0.0940259
0.0941459
0.0951301
0.106151
0.0929112
0.0929098
0.0929127
0.0929221
0.0929369
0.0929712
0.0930081
0.0930986
0.0931627
0.0933668
0.0934321
0.093869
0.0937626
0.0946704
0.105707
0.0929124
0.0929113
0.0929107
0.092919
0.0929314
0.092965
0.0929976
0.0930907
0.0931439
0.0933616
0.0933934
0.0938673
0.093687
0.0946148
0.10488
0.0959525
0.0962817
0.0982628
0.0940066
0.0939736
0.095183
0.095562
0.102567
0.0973725
0.0925248
0.0926239
0.0932935
0.0938439
0.0934596
0.0941188
0.104541
0.0971217
0.092815
0.0927782
0.0930436
0.0929238
0.0927704
0.0928146
0.0929742
0.0935263
0.101448
0.0975417
0.0921899
0.0922232
0.0924712
0.0926244
0.0926365
0.0928464
0.0928859
0.0930564
0.0939069
0.0955008
0.109492
0.0921671
0.0921618
0.0922463
0.0922491
0.0922754
0.0923978
0.0925349
0.0929136
0.0929582
0.0944133
0.0955023
0.110311
0.0919086
0.0919261
0.0920129
0.0920718
0.0921353
0.092241
0.0923447
0.092516
0.0928102
0.0929613
0.09391
0.105309
0.0918533
0.0918594
0.0918958
0.0919229
0.0919711
0.092058
0.0921598
0.0923451
0.0925151
0.0929155
0.0930589
0.0935313
0.103843
0.0917451
0.0917561
0.091792
0.0918268
0.0918793
0.091948
0.0920414
0.0921603
0.0923452
0.0925367
0.0928886
0.092978
0.104764
0.0972726
0.0917096
0.0917163
0.0917365
0.0917614
0.0918026
0.0918621
0.091948
0.0920585
0.0922414
0.0923998
0.0928485
0.0928181
0.0941202
0.101798
0.0916673
0.091674
0.0916916
0.0917151
0.0917527
0.0918029
0.0918796
0.0919718
0.0921364
0.092277
0.0926388
0.092774
0.0934629
0.104137
0.0916512
0.0916558
0.0916672
0.0916858
0.0917151
0.0917615
0.0918272
0.0919235
0.0920728