/*--------------------------------*- C++ -*----------------------------------*\
| =========                 |                                                 |
| \\      /  F ield         | OpenFOAM: The Open Source CFD Toolbox           |
|  \\    /   O peration     | Version:  2.1.1                                 |
|   \\  /    A nd           | Web:      www.OpenFOAM.org                      |
|    \\/     M anipulation  |                                                 |
\*---------------------------------------------------------------------------*/
FoamFile
{
    version     2.0;
    format      ascii;
    class       surfaceScalarField;
    location    "0.001";
    object      phi;
}
// * * * * * * * * * * * * * * * * * * * * * * * * * * * * * * * * * * * * * //

dimensions      [0 3 -1 0 0 0 0];

internalField   nonuniform List<scalar> 
29479
(
8.0694e-13
6.36253e-11
1.73456e-10
-2.49063e-12
8.67156e-12
5.73093e-11
1.51839e-10
-7.03351e-12
8.20339e-11
5.00522e-11
-3.76873e-11
2.01927e-12
3.46282e-11
2.56982e-10
-3.43742e-11
-3.21143e-12
4.78622e-12
3.33567e-11
2.53435e-10
-5.47361e-11
-3.37628e-12
-7.76733e-12
3.7066e-11
2.80352e-10
-7.83869e-11
1.49404e-11
-2.02538e-11
2.72381e-11
2.97911e-10
-7.86523e-11
1.9791e-11
-4.35631e-11
3.89582e-11
3.28772e-10
2.01648e-11
-1.94737e-11
7.49056e-11
1.48293e-10
-1.55741e-11
-4.95102e-14
2.09244e-11
2.48249e-10
-1.591e-11
7.62057e-13
-8.81513e-13
2.1049e-11
2.47406e-10
-1.59839e-11
1.65765e-12
-2.84351e-12
2.01109e-11
2.48911e-10
-1.5222e-11
3.87787e-12
-8.73587e-12
1.90592e-11
2.53483e-10
-2.71682e-11
8.10441e-12
-1.14415e-11
2.54955e-11
2.58565e-10
-3.29528e-11
1.39086e-11
-2.1408e-11
2.88872e-11
2.65109e-10
-5.73124e-11
3.22108e-11
-3.01286e-11
2.71585e-11
2.72465e-10
4.19586e-11
-1.23151e-11
5.70684e-11
1.65123e-10
-8.36369e-12
-2.3357e-13
1.10239e-11
2.48258e-10
-8.60514e-12
5.55002e-13
-1.06856e-12
1.10466e-11
2.48424e-10
-8.31875e-12
1.63777e-12
-2.93919e-12
1.09935e-11
2.48779e-10
-8.13171e-12
2.89342e-12
-7.12837e-12
1.18718e-11
2.50755e-10
-1.18695e-11
6.44202e-12
-1.03187e-11
1.5723e-11
2.50829e-10
-1.59172e-11
8.30795e-12
-1.28304e-11
2.07769e-11
2.51576e-10
-2.83476e-11
1.28049e-11
-1.19568e-11
2.95462e-11
2.51434e-10
-3.34301e-11
9.74193e-12
-1.77385e-11
3.10492e-11
2.63657e-10
-7.47948e-11
3.59635e-11
-6.41193e-11
3.70502e-11
3.41308e-10
2.00712e-11
2.82887e-11
6.92357e-11
-3.30494e-12
-1.92752e-13
6.1567e-12
2.47402e-10
-3.45703e-12
2.45373e-13
-8.19897e-13
6.22243e-12
2.47829e-10
-3.63437e-12
8.19546e-13
-1.93511e-12
6.42727e-12
2.48314e-10
-4.02663e-12
1.47538e-12
-3.97015e-12
7.12325e-12
2.49389e-10
-5.75431e-12
3.03114e-12
-6.13597e-12
9.13099e-12
2.49781e-10
-8.4539e-12
4.35031e-12
-8.78729e-12
1.24173e-11
2.50747e-10
-1.3028e-11
7.7121e-12
-1.11005e-11
1.71088e-11
2.502e-10
-1.79054e-11
8.7005e-12
-1.20385e-11
2.20099e-11
2.51855e-10
-2.75701e-11
1.08817e-11
-1.21573e-11
2.71081e-11
2.56709e-10
-4.18804e-11
1.30903e-11
-2.66283e-11
3.00895e-11
2.74476e-10
2.37363e-11
4.71833e-11
9.55086e-11
-2.41273e-12
-2.01864e-13
4.52155e-12
2.48092e-10
-2.45222e-12
2.1793e-13
-7.3118e-13
4.58047e-12
2.48385e-10
-2.49368e-12
6.05361e-13
-1.46074e-12
4.72447e-12
2.48623e-10
-2.49018e-12
9.67764e-13
-2.51682e-12
5.0008e-12
2.49036e-10
-3.00904e-12
1.7361e-12
-3.64333e-12
5.78964e-12
2.49125e-10
-4.06793e-12
2.28924e-12
-4.97993e-12
7.10223e-12
2.49667e-10
-6.41038e-12
3.52243e-12
-6.53406e-12
9.28568e-12
2.50252e-10
-9.31685e-12
4.53103e-12
-8.66263e-12
1.20063e-11
2.52205e-10
-1.31559e-11
7.33216e-12
-1.17131e-11
1.53869e-11
2.54909e-10
-1.59743e-11
9.08914e-12
-1.50643e-11
1.79226e-11
2.59237e-10
-4.42992e-11
1.92676e-11
-4.26508e-11
2.38288e-11
2.92946e-10
3.67687e-11
2.33224e-11
9.11394e-11
-1.57555e-12
-1.95537e-13
3.48741e-12
2.48279e-10
-1.59039e-12
1.93756e-13
-6.52353e-13
3.53155e-12
2.48517e-10
-1.62497e-12
4.7699e-13
-1.18829e-12
3.63554e-12
2.48701e-10
-1.64243e-12
7.13e-13
-1.87302e-12
3.79717e-12
2.49005e-10
-1.83706e-12
1.17198e-12
-2.58512e-12
4.17735e-12
2.49073e-10
-2.19026e-12
1.443e-12
-3.37949e-12
4.71668e-12
2.4941e-10
-2.94768e-12
2.08933e-12
-4.312e-12
5.58047e-12
2.49597e-10
-4.04569e-12
2.60816e-12
-5.86351e-12
6.6769e-12
2.50759e-10
-6.07567e-12
4.2163e-12
-8.81909e-12
8.32421e-12
2.53176e-10
-9.2038e-12
7.26935e-12
-1.58545e-11
1.07378e-11
2.59789e-10
-1.1814e-11
1.32784e-11
-2.46618e-11
1.38397e-11
2.6465e-10
-3.37106e-11
2.39681e-11
-4.46738e-11
4.04414e-11
2.5932e-10
-1.35789e-12
-1.8983e-13
2.84037e-12
2.48703e-10
-1.35142e-12
1.79579e-13
-6.04096e-13
2.87063e-12
2.48905e-10
-1.3565e-12
4.07143e-13
-1.05375e-12
2.94122e-12
2.49061e-10
-1.33661e-12
6.00496e-13
-1.57559e-12
3.03639e-12
2.49275e-10
-1.40667e-12
9.13514e-13
-2.12417e-12
3.2434e-12
2.49374e-10
-1.52265e-12
1.1223e-12
-2.7363e-12
3.52779e-12
2.49609e-10
-1.82841e-12
1.54154e-12
-3.4606e-12
3.96958e-12
2.49778e-10
-2.21909e-12
1.92041e-12
-4.61045e-12
4.48504e-12
2.50437e-10
-3.1267e-12
3.02897e-12
-7.13496e-12
5.4088e-12
2.51967e-10
-4.93813e-12
5.37988e-12
-1.31993e-11
7.0953e-12
2.56471e-10
-1.04425e-11
1.08823e-11
-2.35752e-11
1.09838e-11
2.64842e-10
-2.87406e-11
2.17583e-11
-3.6354e-11
1.9755e-11
2.78136e-10
-2.32492e-11
5.10041e-11
-4.9648e-11
2.4312e-11
2.61996e-10
-1.02961e-12
-1.79834e-13
2.28055e-12
2.48926e-10
-1.02293e-12
1.65238e-13
-5.60844e-13
2.30422e-12
2.49114e-10
-1.02884e-12
3.58347e-13
-9.60045e-13
2.3587e-12
2.49271e-10
-1.02881e-12
5.29638e-13
-1.4064e-12
2.43133e-12
2.49474e-10
-1.05143e-12
7.7929e-13
-1.8797e-12
2.56513e-12
2.49586e-10
-1.08942e-12
9.75094e-13
-2.42569e-12
2.73592e-12
2.49804e-10
-1.20525e-12
1.31907e-12
-3.07927e-12
3.01582e-12
2.49949e-10
-1.35389e-12
1.6578e-12
-4.05315e-12
3.37122e-12
2.50378e-10
-1.63281e-12
2.49109e-12
-5.90022e-12
3.94503e-12
2.51108e-10
-2.38712e-12
4.13836e-12
-1.02661e-11
5.12064e-12
2.53513e-10
-5.23377e-12
8.30264e-12
-1.94237e-11
7.77871e-12
2.59319e-10
-1.20305e-11
1.51341e-11
-2.83473e-11
1.2787e-11
2.65312e-10
-2.74683e-11
2.6532e-11
-3.11482e-11
2.03568e-11
2.63313e-10
6.58121e-11
7.9141e-12
7.96857e-11
-8.62192e-13
-1.71125e-13
1.8387e-12
2.49194e-10
-8.53513e-13
1.54578e-13
-5.28734e-13
1.85607e-12
2.49371e-10
-8.53462e-13
3.25818e-13
-8.96842e-13
1.89634e-12
2.49528e-10
-8.51472e-13
4.8588e-13
-1.29921e-12
1.95297e-12
2.49711e-10
-8.62465e-13
6.96678e-13
-1.72783e-12
2.04784e-12
2.49845e-10
-8.82255e-13
8.82745e-13
-2.22261e-12
2.16541e-12
2.50056e-10
-9.45507e-13
1.17484e-12
-2.81531e-12
2.35359e-12
2.50232e-10
-1.04503e-12
1.48032e-12
-3.64634e-12
2.62703e-12
2.50584e-10
-1.26787e-12
2.10399e-12
-5.01502e-12
3.07925e-12
2.51099e-10
-1.79202e-12
3.18885e-12
-7.92391e-12
3.93606e-12
2.52597e-10
-3.64741e-12
5.85092e-12
-1.42786e-11
5.97592e-12
2.56258e-10
-9.62347e-12
1.00879e-11
-2.22829e-11
1.02098e-11
2.629e-10
-2.38541e-11
1.74692e-11
-2.55184e-11
1.90503e-11
2.66812e-10
-4.06555e-11
3.02547e-11
-5.55174e-11
3.07551e-11
3.02623e-10
-6.65491e-13
-1.64356e-13
1.43873e-12
2.49388e-10
-6.57435e-13
1.45693e-13
-5.01839e-13
1.45179e-12
2.49561e-10
-6.59285e-13
3.01157e-13
-8.49091e-13
1.4824e-12
2.49724e-10
-6.58392e-13
4.54024e-13
-1.22467e-12
1.52686e-12
2.49902e-10
-6.61586e-13
6.44276e-13
-1.62558e-12
1.5958e-12
2.50047e-10
-6.67903e-13
8.22331e-13
-2.0872e-12
1.68362e-12
2.50249e-10
-6.86584e-13
1.08443e-12
-2.63172e-12
1.81161e-12
2.50422e-10
-7.12569e-13
1.36485e-12
-3.36498e-12
2.00022e-12
2.50712e-10
-7.78837e-13
1.88579e-12
-4.43602e-12
2.31657e-12
2.51012e-10
-9.63728e-13
2.64321e-12
-6.40303e-12
2.90985e-12
2.51813e-10
-1.65553e-12
4.46485e-12
-1.04554e-11
4.19795e-12
2.53473e-10
-4.46955e-12
7.64832e-12
-1.79399e-11
7.19502e-12
2.58038e-10
-1.23424e-11
1.30114e-11
-2.31966e-11
1.33562e-11
2.61961e-10
-3.43981e-11
1.53182e-11
-4.10572e-11
3.77125e-11
2.69562e-10
-5.22795e-13
-1.58569e-13
1.08668e-12
2.4959e-10
-5.16656e-13
1.37848e-13
-4.81914e-13
1.0969e-12
2.49763e-10
-5.12837e-13
2.8454e-13
-8.12712e-13
1.11948e-12
2.49921e-10
-5.12379e-13
4.28765e-13
-1.16749e-12
1.15169e-12
2.50099e-10
-5.23334e-13
6.00862e-13
-1.54726e-12
1.20342e-12
2.50266e-10
-5.35654e-13
7.69693e-13
-1.97876e-12
1.26873e-12
2.50476e-10
-5.56955e-13
1.00286e-12
-2.47636e-12
1.35873e-12
2.50671e-10
-5.89258e-13
1.24386e-12
-3.12055e-12
1.48927e-12
2.50976e-10
-6.56714e-13
1.67329e-12
-3.98021e-12
1.69458e-12
2.51269e-10
-8.15884e-13
2.19892e-12
-5.40207e-12
2.09572e-12
2.51923e-10
-1.24714e-12
3.46195e-12
-8.07204e-12
2.83819e-12
2.53014e-10
-2.86462e-12
5.58045e-12
-1.38129e-11
4.77077e-12
2.56437e-10
-8.22279e-12
1.0565e-11
-2.08945e-11
8.37106e-12
2.61578e-10
-2.52958e-11
1.95811e-11
-3.51513e-11
1.85956e-11
2.75184e-10
-1.48918e-11
8.56891e-11
2.13706e-11
1.30514e-10
-3.73964e-13
-1.53814e-13
7.56578e-13
2.4977e-10
-3.69303e-13
1.32158e-13
-4.66643e-13
7.65166e-13
2.49938e-10
-3.67795e-13
2.71126e-13
-7.86761e-13
7.80266e-13
2.50103e-10
-3.69061e-13
4.09017e-13
-1.12795e-12
8.03067e-13
2.50284e-10
-3.73878e-13
5.6899e-13
-1.494e-12
8.36311e-13
2.50462e-10
-3.80851e-13
7.31829e-13
-1.90876e-12
8.79675e-13
2.50678e-10
-3.89484e-13
9.50189e-13
-2.37652e-12
9.37537e-13
2.50878e-10
-4.06089e-13
1.15892e-12
-2.96871e-12
1.01951e-12
2.51196e-10
-4.20262e-13
1.53406e-12
-3.69834e-12
1.12263e-12
2.51462e-10
-4.8504e-13
1.89292e-12
-4.83628e-12
1.31986e-12
2.52108e-10
-5.99668e-13
2.86554e-12
-6.65835e-12
1.57402e-12
2.52812e-10
-1.25209e-12
4.08553e-12
-1.11236e-11
2.21037e-12
2.56085e-10
-2.77669e-12
8.3302e-12
-1.88355e-11
2.03041e-12
2.61955e-10
-6.5573e-12
1.36004e-11
-2.54926e-11
-1.81937e-12
2.73341e-10
-2.93206e-13
6.2865e-11
-1.91119e-12
2.04802e-10
-2.46994e-13
-1.49804e-13
4.49582e-13
2.49951e-10
-2.44621e-13
1.26781e-13
-4.55673e-13
4.53729e-13
2.50119e-10
-2.46732e-13
2.59225e-13
-7.69308e-13
4.62478e-13
2.50294e-10
-2.48797e-13
3.91716e-13
-1.10198e-12
4.76711e-13
2.50482e-10
-2.52761e-13
5.4618e-13
-1.45829e-12
4.95732e-13
2.50669e-10
-2.62342e-13
6.98682e-13
-1.86118e-12
5.22945e-13
2.50901e-10
-2.77376e-13
9.03758e-13
-2.30794e-12
5.58093e-13
2.51123e-10
-3.06571e-13
1.08461e-12
-2.87008e-12
6.07242e-13
2.51484e-10
-3.49922e-13
1.4231e-12
-3.5304e-12
6.65786e-13
2.51791e-10
-4.5246e-13
1.67417e-12
-4.55757e-12
7.65659e-13
2.5257e-10
-6.27824e-13
2.50407e-12
-6.16283e-12
8.60799e-13
2.53425e-10
-1.07043e-12
3.41708e-12
-1.07457e-11
9.95782e-13
2.57447e-10
-9.92276e-13
8.19067e-12
-2.05193e-11
1.47023e-13
2.6395e-10
3.23265e-12
1.57952e-11
-3.62239e-11
-2.81948e-12
2.7389e-10
1.34142e-11
4.46756e-11
-7.46133e-11
-1.05138e-11
2.638e-10
-1.20283e-13
-1.47395e-13
1.4517e-13
2.50124e-10
-1.20531e-13
1.23021e-13
-4.5046e-13
1.50236e-13
2.50297e-10
-1.19527e-13
2.51965e-13
-7.5932e-13
1.52364e-13
2.50474e-10
-1.19521e-13
3.81056e-13
-1.08882e-12
1.5616e-13
2.50671e-10
-1.21508e-13
5.32404e-13
-1.4411e-12
1.62133e-13
2.50868e-10
-1.25108e-13
6.77584e-13
-1.8395e-12
1.70253e-13
2.51116e-10
-1.31666e-13
8.77282e-13
-2.28077e-12
1.80544e-13
2.51354e-10
-1.43737e-13
1.04742e-12
-2.83705e-12
1.93519e-13
2.51739e-10
-1.62823e-13
1.37424e-12
-3.47905e-12
2.06714e-13
2.52061e-10
-2.15508e-13
1.5882e-12
-4.49705e-12
2.28468e-13
2.52896e-10
-3.11144e-13
2.39953e-12
-6.111e-12
2.42127e-13
2.53789e-10
-6.11433e-13
3.25494e-12
-1.08997e-11
2.63574e-13
2.58149e-10
-3.0144e-13
8.23952e-12
-2.09543e-11
-5.16431e-14
2.64418e-10
1.67296e-12
1.57822e-11
-3.45318e-11
-1.19582e-12
2.73439e-10
6.91418e-12
3.60218e-11
-5.89714e-11
-3.46113e-12
2.60303e-10
-1.39314e-10
1.86356e-12
2.33287e-11
1.14101e-10
-1.17017e-10
-3.51352e-12
5.67701e-12
1.77507e-11
9.71025e-11
-2.82222e-11
-1.38306e-12
6.15457e-12
2.34506e-11
7.53669e-12
4.99341e-10
1.04416e-09
-2.25904e-10
-2.26716e-10
-3.37002e-10
-3.38765e-10
2.43457e-11
2.43545e-11
-2.35324e-10
-2.36367e-10
-1.50147e-11
4.99577e-10
1.04609e-09
-2.18892e-10
-2.48784e-10
-3.25966e-10
-3.40214e-10
3.76521e-11
3.22563e-11
-2.28361e-10
-2.30802e-10
-1.89885e-10
5.10343e-10
1.21078e-09
-2.64961e-10
-2.97104e-10
-3.36572e-10
-3.45013e-10
4.4972e-11
-1.7425e-11
-1.78861e-10
-1.51291e-10
7.64987e-11
4.78823e-10
9.86394e-10
-3.02922e-10
-2.33388e-10
-3.47485e-10
-2.97393e-10
1.03325e-11
5.19611e-11
-1.2469e-10
-1.20367e-10
-1.6162e-11
-1.61118e-10
-1.90366e-10
-2.63674e-10
1.24215e-11
-4.19019e-12
5.60559e-11
2.75885e-10
-1.02801e-10
7.47916e-13
-9.57923e-12
3.3598e-11
7.80343e-11
-4.88315e-12
3.01617e-10
1.26538e-09
-2.32198e-10
-2.34774e-10
-2.97224e-10
-2.98768e-10
-1.9772e-11
3.02657e-10
1.28406e-09
-2.34543e-10
-2.45131e-10
-2.94442e-10
-2.98135e-10
-1.0221e-10
3.25437e-10
1.36051e-09
-2.49564e-10
-2.57738e-10
-2.93107e-10
-2.92755e-10
-1.9882e-10
3.54506e-10
1.36653e-09
-2.78456e-10
-2.56994e-10
-3.14667e-10
-2.95488e-10
-2.82622e-10
4.82743e-10
1.13594e-09
-2.63182e-10
-2.19103e-10
-3.31245e-10
-3.00598e-10
-5.06768e-11
1.95431e-11
-2.0527e-10
-1.84348e-10
8.90791e-11
5.27697e-10
9.48352e-10
-2.70901e-10
-2.12731e-10
-3.48164e-10
-2.96553e-10
7.18139e-12
7.84929e-11
-2.15934e-10
-1.82999e-10
-1.72952e-11
-1.92279e-10
-1.96571e-10
-2.46541e-10
-1.14643e-11
-1.46944e-11
9.00782e-11
2.71701e-10
-1.24653e-10
-8.91092e-12
-7.73055e-12
4.27563e-11
9.85386e-11
-2.02817e-11
2.06854e-10
1.1439e-09
-2.40298e-10
-2.41339e-10
-2.73592e-10
-2.73756e-10
-4.89081e-11
2.09764e-10
1.15347e-09
-2.42302e-10
-2.45052e-10
-2.73295e-10
-2.71294e-10
-9.538e-11
2.25506e-10
1.18159e-09
-2.47645e-10
-2.48168e-10
-2.7351e-10
-2.65873e-10
-1.4679e-10
2.30891e-10
1.23245e-09
-2.59026e-10
-2.46727e-10
-2.83645e-10
-2.68025e-10
-1.97244e-10
3.10223e-10
1.30083e-09
-2.60294e-10
-2.38572e-10
-3.0015e-10
-2.78846e-10
-2.25768e-10
3.57933e-10
1.33324e-09
-2.64924e-10
-2.40649e-10
-3.25425e-10
-3.03956e-10
-2.6012e-10
4.76262e-10
1.11917e-09
-2.41548e-10
-2.16928e-10
-3.36708e-10
-3.13626e-10
-4.4509e-11
2.28536e-11
-2.22371e-10
-2.08242e-10
9.05664e-11
5.19658e-10
9.92434e-10
-2.51515e-10
-2.34931e-10
-3.5316e-10
-3.25562e-10
8.18437e-12
7.65762e-11
-2.29926e-10
-1.94507e-10
-1.50141e-11
-1.6207e-10
-1.80851e-10
-2.8443e-10
8.01445e-13
3.63328e-12
5.7471e-11
3.13091e-10
-3.92905e-11
6.22828e-12
-2.93797e-12
3.60002e-11
-1.64659e-11
1.46318e-10
1.07956e-09
-2.41204e-10
-2.4136e-10
-2.60363e-10
-2.59689e-10
-3.57753e-11
1.48563e-10
1.08484e-09
-2.42502e-10
-2.41986e-10
-2.61489e-10
-2.58358e-10
-6.15203e-11
1.61206e-10
1.09517e-09
-2.43862e-10
-2.41786e-10
-2.62562e-10
-2.56919e-10
-9.60979e-11
1.6686e-10
1.11389e-09
-2.47835e-10
-2.41916e-10
-2.68009e-10
-2.57525e-10
-1.28479e-10
2.04521e-10
1.16026e-09
-2.49388e-10
-2.39352e-10
-2.74529e-10
-2.58907e-10
-1.58227e-10
2.1928e-10
1.21956e-09
-2.53657e-10
-2.38771e-10
-2.88466e-10
-2.70263e-10
-1.96923e-10
2.97385e-10
1.29403e-09
-2.52449e-10
-2.36508e-10
-3.02389e-10
-2.85113e-10
-2.02725e-10
3.30899e-10
1.33404e-09
-2.59955e-10
-2.46124e-10
-3.25706e-10
-3.07696e-10
-2.01814e-10
4.0306e-10
1.08763e-09
-2.41353e-10
-2.24073e-10
-3.28616e-10
-3.07992e-10
-3.31639e-11
3.27531e-11
-2.05798e-10
-1.83361e-10
7.61881e-11
2.94005e-10
9.50578e-10
-2.49167e-10
-2.30119e-10
-3.41355e-10
-3.22985e-10
6.76472e-11
5.88352e-11
-1.73247e-10
-1.29212e-10
1.22861e-11
-1.02891e-10
-1.12378e-10
-6.02429e-11
4.31289e-11
9.33031e-11
-1.52598e-11
1.10838e-10
1.05548e-09
-2.43155e-10
-2.42882e-10
-2.59825e-10
-2.58921e-10
-3.20059e-11
1.12531e-10
1.05832e-09
-2.44031e-10
-2.42675e-10
-2.61044e-10
-2.57787e-10
-5.03912e-11
1.20755e-10
1.06366e-09
-2.44624e-10
-2.41846e-10
-2.62053e-10
-2.56306e-10
-7.16512e-11
1.24645e-10
1.0708e-09
-2.46318e-10
-2.41143e-10
-2.64573e-10
-2.55285e-10
-9.18259e-11
1.4519e-10
1.08669e-09
-2.46597e-10
-2.39413e-10
-2.66828e-10
-2.54342e-10
-1.16138e-10
1.52223e-10
1.10665e-09
-2.48267e-10
-2.3944e-10
-2.71517e-10
-2.56054e-10
-1.39842e-10
1.86795e-10
1.15764e-09
-2.49119e-10
-2.39158e-10
-2.76805e-10
-2.58263e-10
-1.63658e-10
1.91613e-10
1.21335e-09
-2.54263e-10
-2.40602e-10
-2.88614e-10
-2.66769e-10
-2.00439e-10
2.40349e-10
1.2735e-09
-2.56776e-10
-2.38552e-10
-3.0358e-10
-2.751e-10
-2.94253e-10
1.99191e-10
1.32393e-09
-2.72301e-10
-2.63404e-10
-3.27502e-10
-2.72097e-10
5.87414e-11
2.01284e-10
9.50647e-10
-3.23446e-10
-2.30126e-10
-3.41212e-10
-2.49428e-10
1.26703e-11
7.65252e-11
-1.12528e-10
-1.02782e-10
6.75738e-11
-1.29067e-10
-1.73105e-10
-5.91988e-11
1.79751e-11
9.99649e-11
-1.2044e-11
8.42618e-11
1.04001e-09
-2.44178e-10
-2.43717e-10
-2.5718e-10
-2.56328e-10
-2.49236e-11
8.55037e-11
1.04181e-09
-2.44941e-10
-2.43246e-10
-2.58282e-10
-2.55441e-10
-3.87772e-11
9.09243e-11
1.04528e-09
-2.45474e-10
-2.42409e-10
-2.59277e-10
-2.54423e-10
-5.53761e-11
9.42771e-11
1.05022e-09
-2.46613e-10
-2.41633e-10
-2.61285e-10
-2.53726e-10
-7.24572e-11
1.06437e-10
1.05859e-09
-2.46749e-10
-2.40093e-10
-2.63252e-10
-2.52663e-10
-9.39726e-11
1.11519e-10
1.06804e-09
-2.47672e-10
-2.39523e-10
-2.6622e-10
-2.52411e-10
-1.19887e-10
1.30575e-10
1.08847e-09
-2.47797e-10
-2.38632e-10
-2.68173e-10
-2.51738e-10
-1.61983e-10
1.34721e-10
1.11435e-09
-2.50204e-10
-2.3936e-10
-2.72759e-10
-2.53045e-10
-2.40126e-10
1.61845e-10
1.18552e-09
-2.54202e-10
-2.3996e-10
-2.80502e-10
-2.54206e-10
-4.02918e-10
1.63013e-10
1.27278e-09
-2.75097e-10
-2.3843e-10
-3.0354e-10
-2.56741e-10
3.26286e-11
2.02623e-10
1.08742e-09
-3.07814e-10
-2.23962e-10
-3.28598e-10
-2.41284e-10
-3.32229e-11
-1.83552e-10
-2.05873e-10
-2.19275e-10
-2.62024e-11
-3.91674e-11
7.51214e-11
2.42151e-10
-1.05784e-11
6.5727e-11
1.03141e-09
-2.45481e-10
-2.44947e-10
-2.56355e-10
-2.55519e-10
-2.16493e-11
6.65688e-11
1.03252e-09
-2.46147e-10
-2.44373e-10
-2.57328e-10
-2.54667e-10
-3.3135e-11
6.99165e-11
1.0347e-09
-2.46645e-10
-2.43584e-10
-2.58246e-10
-2.53733e-10
-4.62513e-11
7.22274e-11
1.03805e-09
-2.47471e-10
-2.42815e-10
-2.59636e-10
-2.52964e-10
-6.03058e-11
7.94173e-11
1.04349e-09
-2.47774e-10
-2.41583e-10
-2.61016e-10
-2.52039e-10
-7.82391e-11
8.33135e-11
1.05024e-09
-2.48525e-10
-2.4069e-10
-2.63438e-10
-2.51451e-10
-1.00287e-10
9.47549e-11
1.06212e-09
-2.48735e-10
-2.39492e-10
-2.65535e-10
-2.50496e-10
-1.348e-10
1.00207e-10
1.07688e-09
-2.5011e-10
-2.39288e-10
-2.68366e-10
-2.50093e-10
-1.91657e-10
1.19769e-10
1.11424e-09
-2.53048e-10
-2.39339e-10
-2.72747e-10
-2.50173e-10
-3.31092e-10
1.39523e-10
1.21311e-09
-2.66797e-10
-2.40565e-10
-2.88603e-10
-2.54217e-10
-5.19721e-10
1.96704e-10
1.33377e-09
-3.0763e-10
-2.46051e-10
-3.25659e-10
-2.59876e-10
7.65931e-11
2.59699e-10
9.92114e-10
-3.25506e-10
-2.34873e-10
-3.53129e-10
-2.51485e-10
-1.49348e-11
9.0633e-11
-1.80686e-10
-1.61944e-10
8.20625e-12
-1.94493e-10
-2.29917e-10
-2.06759e-10
5.2526e-12
4.59218e-12
1.19127e-11
2.61595e-10
-9.18749e-12
5.11518e-11
1.02509e-09
-2.46323e-10
-2.45757e-10
-2.55011e-10
-2.5424e-10
-1.88016e-11
5.17726e-11
1.0259e-09
-2.46951e-10
-2.45153e-10
-2.55894e-10
-2.53489e-10
-2.89457e-11
5.3953e-11
1.02746e-09
-2.47463e-10
-2.44413e-10
-2.56775e-10
-2.52702e-10
-4.06856e-11
5.57629e-11
1.03002e-09
-2.48156e-10
-2.43679e-10
-2.57968e-10
-2.52017e-10
-5.40381e-11
6.03532e-11
1.03393e-09
-2.48553e-10
-2.42662e-10
-2.59116e-10
-2.51184e-10
-7.15292e-11
6.36491e-11
1.0395e-09
-2.49234e-10
-2.41743e-10
-2.60853e-10
-2.50517e-10
-9.47573e-11
7.1522e-11
1.04869e-09
-2.49529e-10
-2.40413e-10
-2.62774e-10
-2.49517e-10
-1.30573e-10
7.81811e-11
1.06211e-09
-2.50513e-10
-2.39491e-10
-2.65542e-10
-2.48723e-10
-1.86785e-10
9.39024e-11
1.08841e-09
-2.51749e-10
-2.38619e-10
-2.6818e-10
-2.4778e-10
-2.97422e-10
1.1598e-10
1.15751e-09
-2.58279e-10
-2.39138e-10
-2.76817e-10
-2.49104e-10
-4.76301e-10
1.58135e-10
1.29385e-09
-2.85102e-10
-2.36479e-10
-3.02393e-10
-2.52432e-10
2.28561e-11
2.25509e-10
1.11895e-09
-3.1361e-10
-2.1691e-10
-3.3671e-10
-2.4155e-10
-4.45118e-11
-2.08245e-10
-2.22383e-10
-2.25384e-10
-2.4611e-11
-4.40411e-11
6.55214e-11
2.51371e-10
-4.46612e-11
3.94381e-12
-2.37385e-12
4.30913e-11
-8.37738e-12
3.96511e-11
1.02142e-09
-2.47181e-10
-2.4661e-10
-2.54239e-10
-2.53517e-10
-1.7083e-11
4.00928e-11
1.02201e-09
-2.47774e-10
-2.46004e-10
-2.55037e-10
-2.52812e-10
-2.62494e-11
4.14947e-11
1.02317e-09
-2.48294e-10
-2.45307e-10
-2.55854e-10
-2.52096e-10
-3.66486e-11
4.28411e-11
1.02515e-09
-2.4892e-10
-2.446e-10
-2.56868e-10
-2.51438e-10
-4.8528e-11
4.5832e-11
1.0281e-09
-2.49389e-10
-2.43716e-10
-2.579e-10
-2.50692e-10
-6.36523e-11
4.85271e-11
1.03254e-09
-2.50055e-10
-2.42882e-10
-2.59313e-10
-2.50046e-10
-8.3318e-11
5.40306e-11
1.0395e-09
-2.50526e-10
-2.41741e-10
-2.60853e-10
-2.49223e-10
-1.11523e-10
6.0268e-11
1.05022e-09
-2.51462e-10
-2.40684e-10
-2.63443e-10
-2.48512e-10
-1.52224e-10
7.24101e-11
1.068e-09
-2.52418e-10
-2.39509e-10
-2.66225e-10
-2.47654e-10
-2.1929e-10
9.17268e-11
1.10658e-09
-2.56063e-10
-2.39422e-10
-2.71528e-10
-2.48253e-10
-3.5793e-10
1.28401e-10
1.2195e-09
-2.70262e-10
-2.38748e-10
-2.8847e-10
-2.53644e-10
-5.27715e-10
1.97085e-10
1.33315e-09
-3.03943e-10
-2.4064e-10
-3.25429e-10
-2.64931e-10
7.84965e-11
2.82564e-10
9.48315e-10
-2.96542e-10
-2.1272e-10
-3.48168e-10
-2.70899e-10
-1.72825e-11
8.90878e-11
-1.96553e-10
-1.92267e-10
7.18155e-12
-1.82997e-10
-2.15933e-10
-2.41395e-10
1.38785e-11
4.89983e-12
1.80355e-11
2.8308e-10
-7.79325e-12
2.99741e-11
1.01869e-09
-2.47855e-10
-2.47287e-10
-2.53371e-10
-2.52696e-10
-1.59017e-11
3.03043e-11
1.01917e-09
-2.48434e-10
-2.4669e-10
-2.54108e-10
-2.5204e-10
-2.45439e-11
3.12493e-11
1.02012e-09
-2.48958e-10
-2.46026e-10
-2.54863e-10
-2.51381e-10
-3.43728e-11
3.23009e-11
1.02179e-09
-2.49557e-10
-2.45344e-10
-2.55767e-10
-2.50749e-10
-4.58229e-11
3.43809e-11
1.02424e-09
-2.50059e-10
-2.44528e-10
-2.56699e-10
-2.50051e-10
-6.03422e-11
3.66493e-11
1.0281e-09
-2.50701e-10
-2.43715e-10
-2.57903e-10
-2.49383e-10
-7.94045e-11
4.06805e-11
1.03392e-09
-2.51191e-10
-2.42658e-10
-2.59119e-10
-2.48544e-10
-1.06425e-10
4.62282e-11
1.04347e-09
-2.52048e-10
-2.41578e-10
-2.61023e-10
-2.47766e-10
-1.45172e-10
5.53501e-11
1.05856e-09
-2.52669e-10
-2.40083e-10
-2.63263e-10
-2.4674e-10
-2.04506e-10
7.15945e-11
1.08665e-09
-2.54348e-10
-2.39401e-10
-2.66843e-10
-2.46591e-10
-3.10216e-10
9.60531e-11
1.16023e-09
-2.58905e-10
-2.39338e-10
-2.74543e-10
-2.49386e-10
-4.82787e-10
1.46706e-10
1.30081e-09
-2.78838e-10
-2.38568e-10
-3.00159e-10
-2.603e-10
1.95435e-11
1.98775e-10
1.1359e-09
-3.00601e-10
-2.19094e-10
-3.31254e-10
-2.6319e-10
-5.06799e-11
-1.84348e-10
-2.05272e-10
-2.31213e-10
-3.58822e-11
-3.8724e-11
8.01622e-11
2.452e-10
-7.37899e-12
2.15781e-11
1.01702e-09
-2.48517e-10
-2.47955e-10
-2.52702e-10
-2.52064e-10
-1.50312e-11
2.18077e-11
1.01743e-09
-2.49085e-10
-2.47371e-10
-2.53387e-10
-2.51442e-10
-2.31732e-11
2.24223e-11
1.01825e-09
-2.49625e-10
-2.46742e-10
-2.54097e-10
-2.50819e-10
-3.22918e-11
2.31828e-11
1.01969e-09
-2.50222e-10
-2.46094e-10
-2.54923e-10
-2.50216e-10
-4.28295e-11
2.45541e-11
1.02179e-09
-2.50759e-10
-2.45345e-10
-2.5577e-10
-2.49551e-10
-5.5753e-11
2.62515e-11
1.02514e-09
-2.51444e-10
-2.44598e-10
-2.56869e-10
-2.48913e-10
-7.22156e-11
2.89447e-11
1.03001e-09
-2.52022e-10
-2.43675e-10
-2.57969e-10
-2.48147e-10
-9.42629e-11
3.31215e-11
1.03803e-09
-2.5297e-10
-2.42809e-10
-2.59639e-10
-2.47463e-10
-1.24626e-10
3.87611e-11
1.0502e-09
-2.53731e-10
-2.41624e-10
-2.61293e-10
-2.46606e-10
-1.66843e-10
5.03545e-11
1.07078e-09
-2.55289e-10
-2.41134e-10
-2.64585e-10
-2.46313e-10
-2.30883e-10
6.14899e-11
1.11388e-09
-2.57523e-10
-2.41903e-10
-2.6802e-10
-2.4783e-10
-3.54542e-10
9.5333e-11
1.23245e-09
-2.6802e-10
-2.4672e-10
-2.83655e-10
-2.59029e-10
-4.78813e-10
1.02167e-10
1.36649e-09
-2.95485e-10
-2.56991e-10
-3.14675e-10
-2.78466e-10
5.19634e-11
1.89861e-10
9.86388e-10
-2.97374e-10
-2.33384e-10
-3.47484e-10
-3.02932e-10
-1.6158e-11
7.64997e-11
-1.9036e-10
-1.61115e-10
1.03313e-11
-1.20365e-10
-1.2469e-10
-8.63096e-11
-1.13891e-11
2.21754e-11
1.27489e-10
-7.12698e-12
1.39904e-11
1.01584e-09
-2.49113e-10
-2.48555e-10
-2.52031e-10
-2.51421e-10
-1.45176e-11
1.41414e-11
1.01622e-09
-2.49679e-10
-2.47981e-10
-2.52674e-10
-2.50825e-10
-2.24127e-11
1.45256e-11
1.01695e-09
-2.50226e-10
-2.47371e-10
-2.53341e-10
-2.50221e-10
-3.12366e-11
1.50401e-11
1.01825e-09
-2.50827e-10
-2.46742e-10
-2.54099e-10
-2.49621e-10
-4.14837e-11
1.59077e-11
1.02012e-09
-2.51386e-10
-2.46025e-10
-2.54864e-10
-2.48953e-10
-5.39406e-11
1.70837e-11
1.02317e-09
-2.52101e-10
-2.45304e-10
-2.55855e-10
-2.48289e-10
-6.99002e-11
1.88013e-11
1.02745e-09
-2.52707e-10
-2.44408e-10
-2.56777e-10
-2.47457e-10
-9.09088e-11
2.16396e-11
1.03469e-09
-2.53738e-10
-2.43579e-10
-2.5825e-10
-2.4664e-10
-1.20739e-10
2.49117e-11
1.04526e-09
-2.54426e-10
-2.42401e-10
-2.59283e-10
-2.4547e-10
-1.61191e-10
3.1984e-11
1.06365e-09
-2.56307e-10
-2.41836e-10
-2.62061e-10
-2.4462e-10
-2.25502e-10
3.57571e-11
1.09517e-09
-2.56918e-10
-2.41777e-10
-2.62574e-10
-2.43861e-10
-3.25462e-10
4.88809e-11
1.18161e-09
-2.65869e-10
-2.48161e-10
-2.73522e-10
-2.47646e-10
-5.10354e-10
1.97302e-11
1.3605e-09
-2.92752e-10
-2.57737e-10
-2.93116e-10
-2.4957e-10
-1.74233e-11
1.49946e-11
1.21077e-09
-3.4501e-10
-2.97101e-10
-3.3658e-10
-2.6496e-10
4.49703e-11
-1.51291e-10
-1.78867e-10
-1.63691e-10
3.2098e-12
-6.36822e-11
2.06739e-10
-6.94758e-12
6.8804e-12
1.01519e-09
-2.49702e-10
-2.49143e-10
-2.51433e-10
-2.50846e-10
-1.41314e-11
6.957e-12
1.01553e-09
-2.50268e-10
-2.48576e-10
-2.52048e-10
-2.50267e-10
-2.17953e-11
7.13704e-12
1.01621e-09
-2.50826e-10
-2.4798e-10
-2.52675e-10
-2.49677e-10
-3.02924e-11
7.38849e-12
1.01743e-09
-2.51445e-10
-2.4737e-10
-2.53388e-10
-2.49082e-10
-4.00807e-11
7.80316e-12
1.01916e-09
-2.52042e-10
-2.46687e-10
-2.54108e-10
-2.4843e-10
-5.17598e-11
8.38248e-12
1.02201e-09
-2.52815e-10
-2.46001e-10
-2.55039e-10
-2.47771e-10
-6.65557e-11
9.19162e-12
1.02589e-09
-2.53492e-10
-2.45148e-10
-2.55895e-10
-2.46947e-10
-8.54895e-11
1.05758e-11
1.03251e-09
-2.5467e-10
-2.44367e-10
-2.57331e-10
-2.46144e-10
-1.12515e-10
1.20429e-11
1.0418e-09
-2.55442e-10
-2.43239e-10
-2.58285e-10
-2.44937e-10
-1.48551e-10
1.52498e-11
1.05831e-09
-2.57788e-10
-2.42668e-10
-2.6105e-10
-2.44029e-10
-2.09761e-10
1.64586e-11
1.08484e-09
-2.58358e-10
-2.41979e-10
-2.61496e-10
-2.425e-10
-3.02687e-10
2.02608e-11
1.15348e-09
-2.7129e-10
-2.45048e-10
-2.73302e-10
-2.42303e-10
-4.99613e-10
4.84663e-12
1.28407e-09
-2.98131e-10
-2.45133e-10
-2.94446e-10
-2.34547e-10
3.22556e-11
-7.57893e-12
1.0461e-09
-3.40222e-10
-2.48774e-10
-3.25977e-10
-2.1889e-10
3.76482e-11
-2.3081e-10
-2.28372e-10
-2.19668e-10
3.93675e-11
-1.8222e-11
-2.64221e-11
2.572e-10
-6.87248e-12
1.01486e-09
-2.50272e-10
-2.49712e-10
-2.50845e-10
-2.5027e-10
-1.39851e-11
1.01519e-09
-2.50846e-10
-2.49143e-10
-2.51431e-10
-2.49697e-10
-2.15705e-11
1.01585e-09
-2.51423e-10
-2.48553e-10
-2.52031e-10
-2.49111e-10
-2.99643e-11
1.01702e-09
-2.52065e-10
-2.47952e-10
-2.52704e-10
-2.48514e-10
-3.96428e-11
1.01868e-09
-2.52697e-10
-2.47284e-10
-2.53374e-10
-2.47853e-10
-5.11408e-11
1.02142e-09
-2.53516e-10
-2.46605e-10
-2.54241e-10
-2.47177e-10
-6.57134e-11
1.02508e-09
-2.54238e-10
-2.45751e-10
-2.55014e-10
-2.4632e-10
-8.42463e-11
1.03141e-09
-2.55519e-10
-2.44941e-10
-2.56361e-10
-2.45479e-10
-1.10821e-10
1.04e-09
-2.56327e-10
-2.43711e-10
-2.57187e-10
-2.44176e-10
-1.463e-10
1.05548e-09
-2.58919e-10
-2.42875e-10
-2.59834e-10
-2.43154e-10
-2.06839e-10
1.07956e-09
-2.59686e-10
-2.41355e-10
-2.60373e-10
-2.41204e-10
-3.01606e-10
1.14391e-09
-2.7375e-10
-2.41334e-10
-2.736e-10
-2.40298e-10
-4.99349e-10
1.26538e-09
-2.98766e-10
-2.34775e-10
-2.97228e-10
-2.32201e-10
2.43581e-11
1.04415e-09
-3.38774e-10
-2.26713e-10
-3.37013e-10
-2.25899e-10
2.43463e-11
-2.36375e-10
-2.35317e-10
-2.16718e-10
8.67733e-12
-2.07286e-11
-4.53624e-12
2.57666e-10
-6.09188e-11
6.23327e-13
-1.62659e-11
7.6446e-11
-4.84218e-11
-8.86108e-13
3.29696e-13
-1.73831e-11
6.63613e-11
-8.31886e-12
1.08855e-12
-1.21219e-11
1.93522e-11
-1.03475e-11
1.41315e-10
9.80769e-10
6.0613e-11
6.07513e-11
-9.43923e-11
-9.47241e-11
-1.81511e-11
1.34456e-10
9.76939e-10
6.39925e-11
6.43096e-11
-9.29485e-11
-9.28584e-11
-4.76861e-11
1.54298e-10
1.12237e-09
5.72672e-11
3.87845e-11
-8.00893e-11
-5.23137e-11
6.66071e-11
1.15488e-10
8.63805e-10
4.49258e-11
5.38508e-11
-5.382e-11
-5.90549e-11
4.40839e-11
-7.66509e-11
-6.0526e-11
-9.24617e-11
9.65706e-12
1.84208e-11
-1.31974e-11
1.4419e-10
-3.72681e-11
-4.04039e-12
-2.90546e-12
-1.06102e-11
5.48242e-11
-9.75379e-12
1.40316e-10
1.27604e-09
-1.41504e-11
1.39431e-10
1.28348e-09
-1.07804e-11
1.66039e-10
1.3454e-09
-7.35475e-12
1.47811e-10
1.33078e-09
-5.89434e-11
1.558e-10
1.07002e-09
3.98126e-11
6.10691e-11
-6.56331e-11
-7.35347e-11
7.60043e-11
1.50549e-10
8.40949e-10
5.32514e-11
6.64965e-11
-9.16042e-11
-8.97193e-11
4.1784e-11
-9.23427e-11
-6.5963e-11
-8.43891e-11
1.52301e-11
1.61353e-11
-3.59498e-12
1.32622e-10
-4.92777e-11
-7.35482e-12
-4.26769e-12
-9.64925e-12
7.05494e-11
-2.21203e-11
1.46466e-10
1.15981e-09
-4.64613e-11
1.47503e-10
1.16974e-09
-6.37328e-11
1.63031e-10
1.20187e-09
-7.49639e-11
1.51855e-10
1.23964e-09
-7.59973e-11
1.58678e-10
1.29899e-09
-4.77519e-11
1.43008e-10
1.31254e-09
-7.13694e-11
1.47871e-10
1.04953e-09
3.83733e-11
6.35214e-11
-7.17232e-11
-8.4778e-11
6.97229e-11
1.44566e-10
8.75859e-10
5.47271e-11
6.61837e-11
-9.50647e-11
-9.17992e-11
4.0114e-11
-8.18717e-11
-6.13725e-11
-1.16167e-10
1.45704e-11
1.43892e-11
-1.04386e-11
1.67372e-10
-1.48788e-11
2.93374e-12
-1.85138e-11
3.04588e-11
-1.55662e-11
1.22339e-10
1.11924e-09
-3.17669e-11
1.23764e-10
1.12478e-09
-4.67513e-11
1.352e-10
1.13799e-09
-6.64812e-11
1.35559e-10
1.14992e-09
-8.27266e-11
1.47442e-10
1.18774e-09
-9.01355e-11
1.40672e-10
1.22931e-09
-8.34348e-11
1.43474e-10
1.29173e-09
-4.51536e-11
1.27235e-10
1.31309e-09
-6.47886e-11
1.2271e-10
1.02749e-09
4.08947e-11
5.69292e-11
-6.58008e-11
-7.49534e-11
5.00552e-11
7.30698e-11
8.29136e-10
6.25872e-11
6.07301e-11
-7.44117e-11
-5.66437e-11
3.34384e-11
-4.83816e-11
-4.37914e-11
-8.14231e-12
9.00853e-12
4.91901e-11
-1.53227e-11
1.04841e-10
1.0883e-09
-3.09674e-11
1.05749e-10
1.09198e-09
-4.51625e-11
1.12211e-10
1.10085e-09
-6.02444e-11
1.13116e-10
1.10832e-09
-7.38857e-11
1.22735e-10
1.12503e-09
-8.86066e-11
1.23312e-10
1.13873e-09
-9.92027e-11
1.31686e-10
1.18002e-09
-1.00938e-10
1.22309e-10
1.22001e-09
-8.50484e-11
1.15166e-10
1.26515e-09
-7.33308e-11
8.49936e-11
1.30029e-09
6.06194e-11
6.494e-11
8.28706e-10
3.35565e-11