/*--------------------------------*- C++ -*----------------------------------*\
| =========                 |                                                 |
| \\      /  F ield         | OpenFOAM: The Open Source CFD Toolbox           |
|  \\    /   O peration     | Version:  2.1.1                                 |
|   \\  /    A nd           | Web:      www.OpenFOAM.org                      |
|    \\/     M anipulation  |                                                 |
\*---------------------------------------------------------------------------*/
FoamFile
{
    version     2.0;
    format      ascii;
    class       volScalarField;
    location    "0.0015";
    object      p;
}
// * * * * * * * * * * * * * * * * * * * * * * * * * * * * * * * * * * * * * //

dimensions      [0 2 -2 0 0 0 0];

internalField   nonuniform List<scalar> 
10229
(
0.0227055
0.0201858
0.0199541
0.020101
0.0199684
0.0200262
0.0199416
0.019953
0.0198914
0.0198838
0.0198402
0.0198268
0.0197991
0.0197897
0.0197802
0.0231101
0.0202159
0.0199576
0.0201029
0.0199718
0.0200308
0.0199481
0.0199588
0.0198996
0.0198908
0.0198484
0.0198351
0.0198083
0.0197992
0.01979
0.0244867
0.020101
0.0199951
0.0200781
0.0199875
0.0200255
0.0199565
0.019962
0.0199069
0.0198974
0.0198567
0.0198436
0.0198176
0.0198087
0.0197997
0.0202904
0.0199523
0.0201086
0.0199952
0.0200375
0.0199718
0.0199755
0.0199262
0.0199162
0.0198797
0.0198673
0.0198439
0.0198359
0.0198278
0.0287356
0.0200695
0.0200428
0.020019
0.0200304
0.0199817
0.0199813
0.0199363
0.019927
0.019892
0.0198803
0.0198578
0.0198498
0.0198418
0.0230948
0.0202055
0.0200321
0.0200537
0.020035
0.0200085
0.0199979
0.0199663
0.0199543
0.0199277
0.0199176
0.0198993
0.019893
0.0198862
0.0307014
0.0201186
0.0199937
0.020066
0.0200005
0.0200115
0.0199705
0.0199667
0.0199374
0.019928
0.0199091
0.0199018
0.0198947
0.0232434
0.0202187
0.0200258
0.0200508
0.0200355
0.0200284
0.0200145
0.0200003
0.0199833
0.0199771
0.0199631
0.0199605
0.0199554
0.0285345
0.0200707
0.0200874
0.0200471
0.0200373
0.0200043
0.020011
0.0199836
0.0199727
0.0199565
0.0199483
0.019943
0.0253553
0.0203088
0.019915
0.0200877
0.0200527
0.0200691
0.0200385
0.0200324
0.0200386
0.020026
0.0200316
0.0200281
0.0410545
0.0203062
0.0200712
0.0200279
0.0199964
0.0200563
0.0200206
0.0199968
0.0199888
0.0199732
0.0199705
0.038782
0.0328206
0.0202209
0.0201208
0.0200348
0.0200459
0.0201107
0.0200803
0.0201047
0.0201037
0.0301342
0.031275
0.0202082
0.0200721
0.0199544
0.0199979
0.0199607
0.0199569
0.0232097
0.0283094
0.0306705
0.0202939
0.0201041
0.0202191
0.0201893
0.0361967
0.0320335
0.0318021
0.031146
0.0216514
0.0191307
0.0188954
0.0190417
0.0189035
0.0189566
0.0188651
0.0188704
0.0188014
0.0187866
0.0187352
0.018716
0.0186828
0.0186699
0.0186586
0.0220562
0.0191598
0.0188938
0.0190501
0.0189084
0.0189628
0.0188744
0.0188777
0.0188099
0.0187948
0.0187449
0.0187261
0.0186938
0.0186814
0.0186702
0.023433
0.0190461
0.0189378
0.019019
0.0189246
0.0189585
0.0188851
0.0188829
0.0188197
0.0188038
0.018756
0.0187375
0.0187064
0.0186942
0.0186834
0.0192356
0.0188946
0.0190513
0.018932
0.0189718
0.0189013
0.0188987
0.0188421
0.0188263
0.0187833
0.0187659
0.0187377
0.0187268
0.0187169
0.0276829
0.0190139
0.018983
0.0189593
0.0189649
0.0189094
0.0189064
0.0188556
0.0188412
0.0188001
0.0187837
0.0187568
0.0187461
0.0187367
0.0220407
0.0191508
0.0189747
0.0189938
0.0189712
0.0189343
0.0189256
0.0188904
0.018874
0.0188417
0.0188272
0.0188049
0.0187964
0.0187884
0.0296483
0.0190626
0.0189346
0.0190056
0.0189353
0.0189447
0.0188992
0.0188919
0.018857
0.0188432
0.0188205
0.0188111
0.0188034
0.0221894
0.0191654
0.0189688
0.0189908
0.0189752
0.0189643
0.0189476
0.0189316
0.0189101
0.018899
0.0188814
0.0188768
0.0188714
0.0274809
0.0190145
0.0190326
0.0189873
0.0189774
0.0189418
0.018951
0.0189172
0.0188986
0.0188783
0.0188683
0.0188638
0.0243017
0.0192509
0.0188583
0.0190335
0.0189933
0.0190106
0.0189774
0.0189693
0.0189722
0.0189569
0.0189617
0.0189576
0.0399853
0.0192558
0.019016
0.0189714
0.0189379
0.0189968
0.0189619
0.0189337
0.0189258
0.0189097
0.0189057
0.0377313
0.0317685
0.0191678
0.0190649
0.0189775
0.0189855
0.0190535
0.0190212
0.0190528
0.0190443
0.0290811
0.0302213
0.0191535
0.0190163
0.0188972
0.0189404
0.0188956
0.0188981
0.0221556
0.0272559
0.0296169
0.0192384
0.0190488
0.0191625
0.0191338
0.0351451
0.0309805
0.0307485
0.0300923
0.0206021
0.0180804
0.0178405
0.017985
0.0178399
0.0178868
0.0177836
0.0177846
0.0177067
0.0176843
0.0176239
0.0175981
0.0175581
0.0175411
0.0175269
0.0210068
0.0181089
0.0178397
0.0179944
0.0178449
0.0178937
0.0177933
0.0177927
0.0177164
0.0176941
0.0176354
0.0176101
0.0175713
0.0175549
0.0175412
0.0223838
0.0179954
0.017885
0.0179621
0.0178629
0.0178905
0.0178067
0.0178002
0.0177288
0.0177058
0.0176496
0.0176248
0.0175876
0.0175718
0.0175586
0.0181856
0.0178395
0.017998
0.0178705
0.017907
0.0178272
0.01782
0.0177552
0.0177327
0.0176819
0.0176588
0.0176249
0.0176107
0.0175987
0.0266345
0.0179626
0.0179281
0.0179007
0.0179028
0.0178447
0.0178328
0.0177731
0.0177524
0.0177042
0.0176823
0.0176503
0.0176365
0.0176252
0.020991
0.0181
0.0179219
0.0179368
0.0179103
0.0178745
0.0178568
0.0178136
0.0177914
0.0177528
0.0177334
0.0177066
0.0176953
0.0176857
0.0285996
0.0180105
0.0178801
0.017952
0.0178751
0.0178792
0.0178269
0.0178147
0.0177742
0.0177562
0.0177296
0.0177176
0.0177084
0.0211398
0.018116
0.0179156
0.0179356
0.0179174
0.0179021
0.0178808
0.0178597
0.0178347
0.017821
0.0178003
0.0177933
0.0177859
0.0264318
0.0179629
0.0179813
0.0179306
0.0179192
0.0178782
0.0178795
0.017847
0.0178279
0.0178063
0.0177935
0.0177856
0.0232526
0.0182037
0.0178055
0.0179818
0.0179375
0.0179542
0.017915
0.0179059
0.0179082
0.0178909
0.0178944
0.0178885
0.0389584
0.018202
0.0179637
0.0179179
0.0178828
0.0179395
0.0179036
0.0178726
0.0178645
0.0178466
0.0178422
0.0366846
0.03072
0.0181185
0.0180128
0.0179245
0.0179306
0.0180002
0.017964
0.0179964
0.0179873
0.0280324
0.0291716
0.0181025
0.017965
0.017842
0.0178875
0.0178417
0.0178431
0.0211058
0.0262069
0.0285679
0.0181883
0.0179979
0.018112
0.0180835
0.0340973
0.029932
0.0296995
0.0290428
0.0195582
0.0170351
0.0167897
0.0169317
0.016778
0.0168197
0.0167071
0.0166981
0.0166079
0.0165766
0.0165055
0.0164718
0.0164239
0.0164023
0.0163843
0.0199628
0.0170639
0.0167885
0.016942
0.0167833
0.016827
0.016716
0.016707
0.0166191
0.0165881
0.016519
0.0164862
0.0164398
0.0164189
0.0164019
0.0213397
0.0169497
0.0168364
0.0169091
0.0168034
0.0168244
0.0167305
0.0167164
0.0166342
0.0166029
0.0165369
0.0165048
0.0164606
0.0164404
0.0164244
0.0171408
0.0167886
0.0169488
0.0168116
0.0168439
0.0167534
0.0167399
0.0166651
0.016635
0.016575
0.0165453
0.0165048
0.0164868
0.0164722
0.0255915
0.0169153
0.0168777
0.0168467
0.0168423
0.0167734
0.0167566
0.0166881
0.0166602
0.0166035
0.0165755
0.0165375
0.0165201
0.0165067
0.0199466
0.0170541
0.0168734
0.0168827
0.0168553
0.0168106
0.0167866
0.0167352
0.0167066
0.0166604
0.0166357
0.0166036
0.0165893
0.0165776
0.027556
0.0169625
0.0168279
0.0168953
0.0168146
0.0168136
0.0167541
0.0167361
0.016689
0.0166663
0.0166351
0.0166204
0.0166096
0.0200952
0.0170706
0.0168658
0.0168823
0.0168607
0.0168417
0.0168148
0.0167885
0.0167582
0.0167413
0.0167169
0.0167083
0.0166994
0.0253876
0.0169145
0.016933
0.0168767
0.0168638
0.0168169
0.0168135
0.0167754
0.0167549
0.0167316
0.0167174
0.0167091
0.0222085
0.0171555
0.0167571
0.0169341
0.0168851
0.0168981
0.0168584
0.0168446
0.0168456
0.0168255
0.0168286
0.0168215
0.0379044
0.0171588
0.0169162
0.0168686
0.0168308
0.0168856
0.0168484
0.0168135
0.0168053
0.0167853
0.0167806
0.0356437
0.029677
0.017073
0.0169646
0.016876
0.0168798
0.0169507
0.0169109
0.0169441
0.0169339
0.0269886
0.0281268
0.0170564
0.0169174
0.0167908
0.0168389
0.0167909
0.0167925
0.020061
0.0251632
0.0275238
0.0171432
0.0169519
0.0170666
0.0170377
0.0330553
0.0288889
0.0286557
0.0279987
0.01852
0.0159949
0.0157437
0.0158825
0.0157177
0.0157533
0.0156269
0.0156088
0.0155042
0.0154628
0.0153793
0.0153363
0.0152795
0.0152517
0.0152297
0.0189248
0.0160244
0.0157419
0.0158938
0.0157234
0.0157615
0.0156368
0.0156192
0.0155171
0.0154764
0.0153952
0.0153533
0.0152986
0.0152718
0.0152514
0.0203017
0.0159094
0.0157928
0.0158603
0.0157461
0.0157596
0.0156539
0.0156304
0.0155355
0.0154947
0.0154172
0.0153768
0.0153244
0.0152992
0.0152799
0.0161021
0.0157421
0.0159043
0.0157547
0.015783
0.0156798
0.0156587
0.0155715
0.0155328
0.0154621
0.0154244
0.0153767
0.0153539
0.0153366
0.0245549
0.0158734
0.0158316
0.0157945
0.0157834
0.0157045
0.0156798
0.0156003
0.0155641
0.0154976
0.0154625
0.0154177
0.0153963
0.0153803
0.0189083
0.0160129
0.0158301
0.0158333
0.0158007
0.0157467
0.0157159
0.0156551
0.0156192
0.0155643
0.0155335
0.0154952
0.0154775
0.0154637
0.0265182
0.0159193
0.0157804
0.0158431
0.0157517
0.0157478
0.0156806
0.015656
0.0156013
0.0155727
0.0155365
0.0155186
0.0155058
0.0190565
0.0160301
0.0158207
0.0158325
0.0158014
0.0157836
0.0157507
0.0157182
0.0156813
0.0156599
0.0156312
0.0156206
0.01561
0.0243491
0.0158708
0.015889
0.0158259
0.015818
0.0157612
0.0157503
0.0157063
0.0156815
0.0156554
0.0156386
0.0156293
0.02117
0.0161148
0.0157132
0.0158911
0.0158382
0.0158475
0.0158036
0.0157854
0.0157846
0.015761
0.0157634
0.0157548
0.0368743
0.016119
0.0158729
0.0158239
0.0157832
0.0158355
0.0157962
0.0157567
0.0157483
0.0157257
0.0157204
0.0346099
0.0286398
0.0160324
0.015921
0.0158323
0.0158331
0.0159058
0.0158619
0.015896
0.0158846
0.0259505
0.0270882
0.0160146
0.015875
0.0157441
0.0157951
0.0157443
0.0157466
0.0190221
0.0241252
0.0264857
0.016104
0.0159113
0.0160266
0.0159972
0.0320197
0.0278518
0.0276176
0.0269608
0.0174882
0.0149607
0.0147028
0.0148375
0.0146587
0.0146871
0.0145447
0.0145152
0.0143953
0.0143414
0.0142452
0.014192
0.0141255
0.0140904
0.0140638
0.0178934
0.014991
0.0147002
0.0148501
0.0146646
0.0146971
0.0145557
0.0145276
0.0144101
0.0143573
0.0142636
0.0142116
0.0141477
0.0141143
0.0140899
0.0192705
0.0148753
0.0147556
0.0148152
0.0146909
0.0146959
0.0145762
0.0145413
0.0144323
0.0143797
0.0142902
0.0142402
0.0141793
0.0141483
0.0141257
0.0150712
0.0147049
0.0148604
0.0147003
0.0147246
0.0146057
0.0145753
0.014474
0.0144244
0.0143421
0.0142956
0.01424
0.0142121
0.0141918
0.0235255
0.0148379
0.0147897
0.0147463
0.0147266
0.0146363
0.0146014
0.0145095
0.0144632
0.0143859
0.0143427
0.0142906
0.0142646
0.0142459
0.0178766
0.0149772
0.0147924
0.0147883
0.0147494
0.0146859
0.0146459
0.0145734
0.0145279
0.0144634
0.014425
0.0143801
0.0143583
0.0143421
0.0254872
0.0148813
0.0147381
0.0147973
0.0146988
0.0146851
0.014606
0.014574
0.0145102
0.0144752
0.0144332
0.0144117
0.0143967
0.0180242
0.0149957
0.0147809
0.0147918
0.0147628
0.0147278
0.0146853
0.014647
0.0146023
0.0145766
0.0145424
0.0145291
0.0145166
0.023317
0.0148328
0.0148519
0.0147785
0.0147573
0.0146993
0.0146872
0.0146375
0.0146073
0.0145777
0.0145578
0.014547
0.0201387
0.0150862
0.0146738
0.0148508
0.0147921
0.0147982
0.0147507
0.0147276
0.014726
0.0146973
0.0146993
0.014689
0.0358707
0.015079
0.0148334
0.0147831
0.0147395
0.014789
0.0147474
0.0147035
0.0146929
0.0146669
0.0146614
0.0335813
0.0276087
0.0149984
0.0148821
0.0147934
0.0147907
0.0148646
0.0148171
0.0148523
0.0148396
0.0249194
0.0260562
0.0149781
0.0148384
0.0147038
0.0147571
0.0147027
0.0147057
0.0179899
0.0230942
0.0254553
0.0150722
0.0148766
0.014993
0.0149631
0.0309919
0.0268221
0.026587
0.0259297
0.0164647
0.0139333
0.0136678
0.0137963
0.0136007
0.0136196
0.0134608
0.0134163
0.0132805
0.0132128
0.0131032
0.0130389
0.0129628
0.01292
0.0128893
0.0168699
0.0139644
0.0136635
0.0138108
0.0136065
0.013632
0.013473
0.0134309
0.0132974
0.0132312
0.0131243
0.0130616
0.0129881
0.0129477
0.0129192
0.018247
0.0138467
0.013723
0.0137757
0.013641
0.0136321
0.0134969
0.0134477
0.0133235
0.0132579
0.0131558
0.0130955
0.0130258
0.0129887
0.0129628
0.0140464
0.0136644
0.0138304
0.0136525
0.0136675
0.0135312
0.0134879
0.013372
0.0133097
0.0132153
0.0131592
0.0130954
0.013062
0.0130387
0.0225036
0.0138075
0.0137546
0.0137036
0.0136719
0.0135678
0.0135201
0.0134145
0.0133568
0.013268
0.013216
0.0131561
0.0131253
0.0131039
0.0168522
0.0139479
0.013761
0.0137482
0.0137004
0.0136258
0.0135733
0.0134887
0.0134319
0.0133569
0.0133103
0.0132583
0.0132322
0.0132135
0.0244638
0.0138487
0.0137007
0.0137533
0.0136422
0.0136214
0.0135298
0.0134892
0.013415
0.0133731
0.0133245
0.013299
0.0132817
0.0169993
0.0139676
0.0137449
0.0137522
0.0137128
0.0136727
0.0136215
0.0135741
0.0135208
0.0134892
0.0134487
0.0134325
0.0134176
0.0222917
0.0137962
0.0138213
0.0137357
0.013713
0.0136429
0.0136262
0.0135684
0.0135326
0.0134986
0.0134755
0.0134629
0.0191134
0.0140474
0.0136404
0.013817
0.0137561
0.0137528
0.0137004
0.0136705
0.0136675
0.0136335
0.0136361
0.0136229
0.0347966
0.0140671
0.0138024
0.013753
0.0136953
0.0137466
0.0136997
0.0136493
0.0136408
0.0136144
0.0136087
0.0325654
0.026587
0.0139719
0.0138474
0.0137583
0.0137528
0.0138309
0.0137772
0.0138146
0.0137995
0.0238961
0.0250313
0.0139478
0.0138077
0.0136656
0.0137252
0.0136665
0.0136707
0.0169655
0.0220715
0.0244326
0.0140478
0.0138482
0.0139667
0.0139353
0.0299727
0.0258012
0.0255648
0.0249071
0.0154505
0.0129129
0.0126396
0.0127598
0.0125507
0.0125508
0.0123738
0.0123119
0.0121595
0.0120772
0.0119541
0.0118786
0.0117932
0.0117454
0.0117142
0.0158555
0.0129454
0.0126334
0.0127764
0.0125564
0.0125652
0.0123877
0.0123289
0.0121788
0.0120981
0.0119779
0.0119043
0.0118215
0.011775
0.0117448
0.0172324
0.0128254
0.0126974
0.0127385
0.0125883
0.0125657
0.0124146
0.0123492
0.0122089
0.0121293
0.0120141
0.0119434
0.011865
0.0118221
0.0117932
0.0130289
0.0126349
0.0127985
0.0125963
0.0126063
0.012455
0.0123963
0.0122644
0.0121886
0.0120816
0.0120155
0.0119433
0.0119046
0.0118786
0.0214904
0.0127833
0.0127238
0.0126663
0.0126176
0.0124967
0.0124354
0.0123145
0.0122443
0.0121433
0.0120821
0.0120144
0.0119788
0.0119546
0.0158361
0.0129256
0.0127341
0.0127146
0.0126547
0.0125638
0.0124986
0.0123996
0.012331
0.0122442
0.012189
0.0121296
0.012099
0.0120776
0.0234488
0.0128207
0.012666
0.0127117
0.0125876
0.0125562
0.0124509
0.0124
0.0123149
0.0122653
0.0122097
0.0121802
0.0121605
0.0159827
0.0129455
0.012711
0.0127174
0.0126673
0.0126186
0.0125564
0.0124991
0.012436
0.0123973
0.0123501
0.0123305
0.012313
0.0212742
0.0127622
0.0127728
0.0126957
0.0126691
0.0125882
0.0125641
0.0124971
0.0124565
0.0124165
0.0123901
0.0123755
0.0180981
0.013044
0.0126096
0.0128109
0.0127214
0.0127115
0.0126533
0.0126144
0.0126102
0.0125692
0.0125686
0.0125529
0.0338682
0.0130347
0.0127729
0.012725
0.0126679
0.0127107
0.0126522
0.0126107
0.0125948
0.0125611
0.0125541
0.0315548
0.0255717
0.0129513
0.0128204
0.0127318
0.0127201
0.0128025
0.0127419
0.0127799
0.0127623
0.0228811
0.0240152
0.0129257
0.0127837
0.0126369
0.0127002
0.0126364
0.0126424
0.0159495
0.0210574
0.0234182
0.0130306
0.0128271
0.0129477
0.012915
0.0289641
0.02479
0.0245513
0.0238941
0.0144467
0.0119
0.0116187
0.0117254
0.0114991
0.011479
0.011282
0.0112013
0.0110317
0.010935
0.0107996
0.0107141
0.0106229
0.010576
0.0105453
0.0148519
0.0119342
0.0116111
0.0117451
0.0115062
0.0114958
0.0112982
0.0112208
0.0110536
0.0109584
0.0108256
0.0107421
0.0106525
0.0106055
0.0105754
0.0162281
0.0118114
0.011679
0.0117058
0.0115412
0.0114989
0.0113282
0.0112449
0.0110876
0.0109938
0.0108661
0.0107857
0.010699
0.010653
0.010623
0.0120195
0.0116134
0.0117736
0.0115583
0.0115464
0.0113753
0.0112992
0.0111505
0.0110607
0.010941
0.0108653
0.0107855
0.0107424
0.010714
0.0204873
0.0117649
0.0116955
0.0116177
0.0115603
0.0114226
0.0113458
0.0112084
0.011125
0.0110117
0.0109415
0.0108663
0.0108264
0.0107997
0.0148295
0.0119108
0.0117127
0.01168
0.0116078
0.0115005
0.0114204
0.0113053
0.011224
0.0111249
0.0110612
0.0109941
0.0109592
0.0109352
0.0224429
0.0117986
0.011638
0.0116702
0.0115333
0.0114877
0.0113679
0.0113057
0.0112087
0.0111513
0.0110883
0.0110549
0.0110326
0.0149749
0.0119331
0.0116933
0.011688
0.0116247
0.0115642
0.0114878
0.0114208
0.0113462
0.0113003
0.0112458
0.0112223
0.0112023
0.020266
0.0117401
0.0117678
0.0116568
0.0116259
0.0115339
0.0115008
0.011423
0.0113769
0.0113299
0.0113004
0.0112835
0.0170925
0.0120298
0.0115831
0.0117734
0.0116911
0.0116706
0.0116074
0.0115598
0.0115486
0.0115014
0.0114985
0.0114805
0.0328218
0.012031
0.0117431
0.0116972
0.0116387
0.0116794
0.0116164
0.0115618
0.0115449
0.0115096
0.0115014
0.0305529
0.024564
0.0119356
0.0117975
0.0117142
0.0116955
0.0117761
0.0117087
0.011748
0.0117275
0.0218755
0.0230085
0.0119119
0.0117659
0.0116158
0.0116815
0.0116141
0.0116215
0.0149431
0.0200538
0.0224144
0.0120214
0.0118133
0.0119366
0.0119021
0.0279676
0.0237894
0.0235488
0.0228916
0.0134551
0.0108941
0.0106064
0.010691
0.0104461
0.0104023
0.0101841
0.0100839
0.00989762
0.0097876
0.00964196
0.00955208
0.0094634
0.00941939
0.00939026
0.0138604
0.0109309
0.0105972
0.0107144
0.0104551
0.0104219
0.0102028
0.0101059
0.00992187
0.00981339
0.00967007
0.00958033
0.00949219
0.0094474
0.00941883
0.015235
0.0108043
0.0106675
0.0106745
0.010492
0.0104279
0.0102356
0.0101336
0.00995934
0.00985232
0.00971372
0.0096256
0.0095375
0.00949274
0.0094635
0.0110188
0.0105992
0.0107514
0.0105157
0.0104827
0.0102904
0.0101955
0.0100295
0.00992626
0.00979492
0.00971089
0.00962553
0.00958074
0.00955197
0.0194953
0.0107516
0.0106735
0.0105736
0.0105015
0.010343
0.0102495
0.0100948
0.00999865
0.00987348
0.0097955
0.00971409
0.0096709
0.00964202
0.0138333
0.0109043
0.010697
0.0106508
0.0105598
0.0104339
0.0103367
0.0102043
0.01011
0.00999866
0.00992682
0.00985259
0.0098142
0.00978782
0.021447
0.0107809
0.0106117
0.0106292
0.0104744
0.0104148
0.0102783
0.0102046
0.0100952
0.0100304
0.00996009
0.00992322
0.00989821
0.0139767
0.0109258
0.0106788
0.0106623
0.0105832
0.0105074
0.0104147
0.010337
0.0102499
0.0101967
0.0101345
0.0101074
0.0100845
0.019267
0.01072
0.0107517
0.0106186
0.0105836
0.0104745
0.0104343
0.0103437
0.0102919
0.0102371
0.0102049
0.0101853
0.0160957
0.011028
0.0105695
0.0107516
0.0106625
0.0106288
0.0105599
0.0105021
0.0104845
0.0104298
0.0104243
0.0104038
0.0318524
0.0110183
0.0107184
0.0106794
0.0106113
0.010651
0.0105742
0.0105181
0.0104944
0.010458
0.010448
0.0295655
0.023566
0.0109265
0.0107806
0.010698
0.0106745
0.0107536
0.0106768
0.0107173
0.0106929
0.0208802
0.0220122
0.0109057
0.0107529
0.0106019
0.01067
0.0106
0.0106089
0.0139472
0.0190614
0.0214219
0.0110211
0.0108063
0.0109336
0.0108961
0.0269847
0.0228019
0.0225595
0.0219019
0.0124765
0.00989497
0.00959917
0.00965648
0.00938869
0.00931864
0.00907811
0.00895926
0.00875849
0.00863855
0.00848963
0.00840612
0.00832338
0.00828462
0.00825767
0.0128824
0.00993528
0.00958984
0.00968295
0.00940036
0.00934118
0.00909957
0.00898368
0.00878465
0.00866605
0.00851746
0.00843294
0.00835007
0.00831023
0.00828409
0.0142543
0.00980341
0.00966
0.00964326
0.0094378
0.00934985
0.00913453
0.0090144
0.00882445
0.00870718
0.00856098
0.00847527
0.00839123
0.00835069
0.00832346
0.0100269
0.00959236
0.00972998
0.00947141
0.00941265
0.00919783
0.00908372
0.0089013
0.00878666
0.00864594
0.00855932
0.00847515
0.00843328
0.00840591
0.0185154
0.00974135
0.00965444
0.00952591
0.00943782
0.00925481
0.00914468
0.00897257
0.00886532
0.00872998
0.00864678
0.00856139
0.0085183
0.00848979
0.0128481
0.00990539
0.00968348
0.0096236
0.00950793
0.00936092
0.00924498
0.00909463
0.00898821
0.00886538
0.0087873
0.00870747
0.00866688
0.00863871
0.0204613
0.00976741
0.00958391
0.00958567
0.00940864
0.00933429
0.00917938
0.00909483
0.00897292
0.00890227
0.00882517
0.00878587
0.00875884
0.0129882
0.00992281
0.00966989
0.00963701
0.00953661
0.00944546
0.0093342
0.00924524
0.0091452
0.00908497
0.00901524
0.00898505
0.00895969
0.0182763
0.00969639
0.00973416
0.00958024
0.0095364
0.00940829
0.00936127
0.00925557
0.0091994
0.00913593
0.00910149
0.00907901
0.0151074
0.0100194
0.00956484
0.0097345
0.00963457
0.00958406
0.00950812
0.00943865
0.00941458
0.00935156
0.00934338
0.00931995
0.0308446
0.0100199
0.0097016
0.00966264
0.00958086
0.00962381
0.00952693
0.00947374
0.00943994
0.00940303
0.00939045
0.0285933
0.0225804
0.00992125
0.0097663
0.00968435
0.00965582
0.00973242
0.0096455
0.00968579
0.00965839
0.0198963
0.0210264
0.00990689
0.00974287
0.00959516
0.00966259
0.00959272
0.00960156
0.0129626
0.0180809
0.0204409
0.0100297
0.00980578
0.00993819
0.00989711
0.0260181
0.0218287
0.021583
0.0209255
0.0115135
0.00890133
0.00859372
0.00861867
0.00832305
0.00822551
0.00796221
0.0078277
0.00761643
0.00749684
0.00735842
0.00728638
0.00721321
0.00718125
0.00715726
0.0119195
0.00894584
0.00858498
0.00864801
0.00833763
0.00825064
0.00798636
0.00785425
0.0076443
0.00752334
0.00738396
0.00731033
0.00723679
0.00720362
0.00718064
0.0132873
0.00880824
0.00865258
0.00860897
0.00837438
0.00826177
0.00802254
0.00788688
0.00768473
0.00756294
0.00742258
0.00734687
0.00727134
0.00723737
0.00721322
0.00904109
0.00859263
0.00870363
0.00841908
0.00833259
0.00809446
0.0079627
0.00776667
0.00764474
0.00750355
0.00742436
0.00734673
0.0073106
0.00728604
0.017549
0.00872987
0.00863453
0.00847193
0.0083642
0.00815479
0.00802918
0.00784132
0.00772665
0.007585
0.00750426
0.00742294
0.00738481
0.00735839
0.0118745
0.00891159
0.0086702
0.00859004
0.00844767
0.00827684
0.00814244
0.00797482
0.00785854
0.0077268
0.00764556
0.00756339
0.00752423
0.00749685
0.0194854
0.00875278
0.00855045
0.00853389
0.00833134
0.00824228
0.00806827
0.00797488
0.00784176
0.00776775
0.00768547
0.00764564
0.00761688
0.0120079
0.00891993
0.00865333
0.00860627
0.00848102
0.00837382
0.00824214
0.00814274
0.00802981
0.00796396
0.00788788
0.00785581
0.00782838
0.0172938
0.00867564
0.00871778
0.00852964
0.00848024
0.0083309
0.00827722
0.00815563
0.00809616
0.00802397
0.00798842
0.0079631
0.01413
0.00900727
0.00856179
0.0087162
0.00860412
0.00853283
0.00844806
0.00836529
0.0083347
0.00826351
0.00825303
0.00822658
0.0298362
0.00902539
0.00867331
0.00865077
0.00854898
0.00859069
0.00847328
0.00842153
0.00837659
0.00834042
0.00832449
0.0276341
0.0216021
0.0089192
0.00875247
0.00867139
0.0086363
0.00870659
0.00861147
0.00865105
0.00862016
0.0189239
0.0200527
0.00891336
0.00873172
0.00859589
0.00865548
0.00858823
0.0085959
0.0119899
0.0171142
0.0194738
0.00904436
0.00881107
0.00894918
0.00890338
0.0250704
0.0208706
0.0206207
0.0199636
0.0105678
0.00791
0.00758284
0.00757099
0.00724198
0.00711827
0.00683444
0.00669087
0.00648151
0.00638003
0.00625902
0.00620354
0.0061425
0.00611885
0.00609881
0.0109739
0.00795865
0.00757692
0.0076033
0.0072599
0.00714586
0.00686066
0.00671862
0.00650769
0.00640353
0.0062809
0.00622367
0.00616202
0.00613719
0.00611813
0.0123354
0.007816
0.00763577
0.00756463
0.00729441
0.00715827
0.00689613
0.00675121
0.00654408
0.00643658
0.00631163
0.00625205
0.00618825
0.00616265
0.00614241
0.00805495
0.00758823
0.00766463
0.00735112
0.00723665
0.00697588
0.0068314
0.00662695
0.0065118
0.00638345
0.00631849
0.00625187
0.006224
0.00620321
0.0165977
0.00771421
0.00760644
0.00740205
0.00727325
0.00703739
0.00690028
0.00670118
0.00658726
0.00645228
0.00638395
0.00631194
0.00628174
0.0062589
0.0109121
0.0079175
0.00765047
0.00753918
0.00737139
0.00717527
0.00702505
0.00684297
0.00672166
0.00658754
0.0065126
0.00643698
0.00640447
0.00637988
0.0185178
0.00773023
0.00750452
0.00746571
0.00723499
0.00713301
0.00694106
0.00684287
0.00670186
0.00662803
0.0065448
0.00650909
0.00648169
0.0110324
0.00790854
0.00762983
0.00756026
0.00740962
0.00728499
0.00713298
0.00702536
0.00690107
0.00683282
0.00675224
0.00672032
0.00669109
0.0163163
0.00764734
0.00769417
0.00746136
0.00740815
0.00723466
0.00717564
0.00703835
0.00697772
0.00689752
0.00686277
0.00683491
0.0131632
0.0080768
0.00755381
0.00768394
0.00755718
0.00746522
0.00737207
0.00727471
0.00723896
0.00716015
0.00714845
0.00711912
0.0291825
0.0079401
0.0076334
0.00762837
0.007504
0.00754016
0.00740368
0.00735401
0.00729674
0.00726291
0.00724318
0.0266744
0.0206307
0.00790891
0.00773072
0.00765203
0.00760857
0.00766829
0.00756753
0.00760678
0.0075724
0.0179625
0.0190936
0.00791943
0.00771519
0.00759349
0.00763953
0.00758059
0.00758508
0.0110285
0.0161609
0.018522
0.00805922
0.00781941
0.00796266
0.00791193
0.0241442
0.0199302
0.0196746
0.0190179
0.00964207
0.00691659
0.00656456
0.00651468
0.00614666
0.00600358
0.00570453
0.00557088
0.00538579
0.00531161
0.00521402
0.00517801
0.00513079
0.00511662
0.00510125
0.0100496
0.00697197
0.00656247
0.00655059
0.00616823
0.0060331
0.00573249
0.00559583
0.00540814
0.00533067
0.00523136
0.00519356
0.00514577
0.00513034
0.00511581
0.0114019
0.0068235
0.00660982
0.00651125
0.00619781
0.00604381
0.00576445
0.00562183
0.00543478
0.00535381
0.00525188
0.00521226
0.00516228
0.00514634
0.00513063
0.00706734
0.00658634
0.00661694
0.006268
0.00612827
0.0058501
0.00570138
0.00550903
0.00541769
0.00531039
0.00526504
0.00521204
0.00519387
0.00517759
0.0156657
0.00667028
0.00656274
0.00631186
0.00616604
0.00590776
0.00576764
0.00556998
0.00547632
0.00535958
0.00531082
0.00525214
0.00523208
0.00521386
0.00995918
0.00690961
0.00661056
0.00647284
0.00627867
0.0060605
0.00590082
0.00571095
0.0055987
0.00547661
0.00541843
0.00535418
0.00533154
0.00531136
0.0175581
0.0066889
0.00644111
0.00637849
0.0061202
0.00601119
0.00580612
0.0057111
0.00557065
0.00551012
0.00543563
0.00540945
0.00538579
0.0100555
0.00687505
0.0065947
0.00649446
0.00632041
0.00618182
0.0060116
0.00590134
0.00576866
0.00570304
0.00562297
0.00559756
0.00557095
0.0153398
0.00657006
0.00663588
0.00637164
0.00632026
0.00612039
0.00606104
0.00590906
0.00585211
0.0057661
0.00573473
0.00570486
0.012186
0.00687476
0.00654439
0.00665117
0.00649528
0.00637806
0.00627963
0.00616786
0.00613109
0.00604602
0.00603594
0.00600419
0.0273849
0.00711268
0.00660125
0.00658679
0.00643861
0.00647387
0.006314
0.00627138
0.00620047
0.00617151
0.00614751
0.0257976
0.0196892
0.00687555
0.00668949
0.00661297
0.00656583
0.00662123
0.00651444
0.00655468
0.00651569
0.0170176
0.0181561
0.00691264
0.00667328
0.00659105
0.00661386
0.00656659
0.00656654
0.0100765
0.0152219
0.0175872
0.0070725
0.00682735
0.00697705
0.0069181
0.0232487
0.0190128
0.0187492
0.0180952
0.00872807
0.00589077
0.00550812
0.00543481
0.00502446
0.0048766
0.00457973
0.00448396
0.00433083
0.00428954
0.00421664
0.00420038
0.0041673
0.00416242
0.00415176
0.00914159
0.00595957
0.00551077
0.00547571
0.00504928
0.00490709
0.00460408
0.00450411
0.00434817
0.00430377
0.00422927
0.00421141
0.00417764
0.00417155
0.00416162
0.0104788
0.00579942
0.00554426
0.00543027
0.00506982
0.00491223
0.0046239
0.00451766
0.00436216
0.00431554
0.004239
0.00422012
0.00418437
0.00417808
0.00416686
0.00603992
0.00553938
0.0055415
0.00515412
0.00500053
0.00471033
0.00458673
0.00442394
0.00436528
0.00428301
0.00425872
0.00421984
0.00421162
0.0041997
0.0147518
0.00557214
0.00547945
0.00518038
0.00503011
0.00475715
0.00463433
0.00446209
0.00440142
0.00430958
0.00428346
0.00423908
0.00422984
0.00421624
0.0090076
0.00584774
0.00552328
0.00536968
0.00515381
0.00492362
0.00476513
0.00458755
0.00450318
0.00440182
0.00436592
0.00431582
0.00430452
0.00428898
0.0165966
0.00557679
0.0053251
0.00524853
0.00497164
0.00486809
0.00466047
0.00458779
0.00446278
0.00442515
0.00436292
0.00434946
0.00433056
0.00905322
0.00576898
0.00550111
0.00539279
0.00519642
0.00505231
0.00486873
0.00476588
0.00463568
0.00458865
0.00451886
0.004506
0.0044839
0.0143565
0.00546959
0.00555934
0.00522892
0.00519425
0.00497187
0.00492433
0.00475889
0.00471268
0.00462568
0.00460655
0.00457987
0.0112352
0.00601542
0.00548363
0.00555154
0.00539054
0.00524959
0.00515586
0.00503279
0.00500408
0.00491468
0.00491047
0.00487683
0.0276174
0.00587167
0.00545127
0.00550033
0.00532675
0.00537189
0.00518347
0.0051581
0.00507292
0.0050532
0.00502497
0.0248961
0.0187315
0.00577073
0.00557993
0.00552732
0.00548366
0.00554692
0.00543403
0.00548083
0.00543536
0.0160875
0.0172478
0.0058519
0.00557649
0.00554498
0.005549
0.00551598
0.00550985
0.00912026
0.0142887
0.0166779
0.00604645
0.0058041
0.00596656
0.00589163
0.022384
0.018113
0.017842
0.017197
0.00782379
0.00470679
0.00425058
0.004162
0.00370363
0.0035846
0.00333085
0.00329108
0.00318312
0.0031801
0.00313567
0.00314085
0.00312294
0.00312751
0.00312164
0.00825423
0.00479917
0.00425154
0.00420396
0.00372807
0.00360616
0.00334789
0.00330359
0.00319405
0.00318843
0.00314284
0.00314673
0.00312828
0.00313183
0.00312664
0.0095779
0.00460733
0.0042565
0.00413637
0.00373127
0.00358918
0.00334721
0.00329951
0.0031927
0.00318727
0.0031407
0.00314471
0.00312487
0.00312864
0.00312243
0.00488874
0.00426191
0.00425123
0.00382651
0.00367209
0.0034207
0.00335141
0.00323671
0.00321969
0.00316779
0.0031672
0.00314444
0.00314689
0.00313992
0.0138644
0.00425455
0.00416306
0.00382399
0.0036856
0.00343448
0.00336938
0.00324396
0.00322868
0.00316848
0.00316822
0.00314075
0.00314327
0.00313509
0.00805982
0.00462637
0.00420127
0.00405493
0.00382391
0.00360188
0.0034799
0.00334237
0.00330015
0.00322907
0.0032204
0.00318756
0.00318902
0.00317927
0.0156518
0.00423815
0.00398706
0.00390958
0.00362695
0.00355209
0.00337209
0.00334245
0.00324472
0.00323791
0.0031933
0.00319514
0.00318239
0.00798746
0.00448678
0.00420168
0.00409448
0.00387896
0.0037384
0.00355265
0.00348092
0.00337095
0.00335349
0.00330078
0.00330544
0.00329044
0.0133461
0.00413425
0.00428822
0.003877
0.00387604
0.00362755
0.00360274
0.00343646
0.0034234
0.00334901
0.0033503
0.00333047
0.0103049
0.00487895
0.00422858
0.00428166
0.00409226
0.00391183
0.0038268
0.00368912
0.00367629
0.00359194
0.00361
0.00358432
0.0263142
0.00477307
0.00411536
0.00419955
0.00398981
0.00405804
0.0038279
0.00383131
0.00373487
0.00373266
0.0037039
0.0240985
0.0178124
0.00448998
0.00424337
0.00420681
0.00416845
0.00425779
0.00414073
0.00421059
0.00416193
0.0152208
0.0164254
0.00463164
0.00425986
0.00426877
0.00426231
0.00425849
0.00425248
0.00818269
0.0133697
0.0158169
0.00489713
0.00461311
0.00480978
0.00470674
0.0215815
0.0172101
0.0169942
0.016375
0.00722981
0.00443826
0.00381922
0.00390879
0.00340125
0.00342515
0.00324578
0.00330382
0.00325878
0.00330939
0.00330212
0.00333465
0.00333521
0.00335113