/*--------------------------------*- C++ -*----------------------------------*\
| =========                 |                                                 |
| \\      /  F ield         | OpenFOAM: The Open Source CFD Toolbox           |
|  \\    /   O peration     | Version:  2.1.1                                 |
|   \\  /    A nd           | Web:      www.OpenFOAM.org                      |
|    \\/     M anipulation  |                                                 |
\*---------------------------------------------------------------------------*/
FoamFile
{
    version     2.0;
    format      ascii;
    class       surfaceScalarField;
    location    "0.0015";
    object      phi;
}
// * * * * * * * * * * * * * * * * * * * * * * * * * * * * * * * * * * * * * //

dimensions      [0 3 -1 0 0 0 0];

internalField   nonuniform List<scalar> 
29298
(
-1.43729e-11
-5.88668e-13
5.65376e-11
-4.15763e-11
-1.34636e-13
1.8792e-13
8.83681e-10
6.20116e-11
6.28556e-11
-6.20142e-11
-6.28598e-11
-8.83733e-10
1.75622e-13
-3.0855e-13
1.12458e-09
-1.12458e-09
-4.29015e-14
2.25424e-13
1.12696e-09
-1.12697e-09
9.87392e-14
-1.6258e-13
1.1297e-09
-1.12968e-09
-2.84373e-14
1.04248e-13
1.13449e-09
-1.13448e-09
1.77446e-14
-8.15911e-14
1.13736e-09
-1.13733e-09
-3.29325e-14
1.95465e-14
1.13906e-09
-1.13903e-09
-2.73979e-14
-4.3478e-14
1.14038e-09
-1.14035e-09
-5.56337e-14
4.96953e-15
1.14145e-09
-1.14144e-09
-5.66902e-14
-1.64731e-14
1.14253e-09
-1.14252e-09
-5.97586e-14
1.00829e-14
1.14358e-09
-1.14359e-09
-5.03769e-14
5.96334e-15
1.14468e-09
-1.14471e-09
-3.19483e-14
1.92151e-14
1.14576e-09
-1.1458e-09
1.2288e-14
1.14661e-09
-1.14666e-09
1.40838e-12
-1.42197e-11
-2.03459e-12
4.97834e-11
-3.49375e-11
-2.7537e-14
2.77465e-15
8.88977e-10
6.4752e-11
6.60953e-11
-6.45898e-11
-6.59957e-11
-8.89025e-10
3.28212e-13
-6.56351e-13
1.13739e-09
-1.1374e-09
1.8321e-15
5.83797e-13
1.13488e-09
-1.13492e-09
1.32075e-13
-3.00097e-13
1.13408e-09
-1.13408e-09
-7.3351e-15
2.32885e-13
1.13646e-09
-1.13645e-09
2.90806e-14
-1.46381e-13
1.13798e-09
-1.13795e-09
-2.73555e-14
5.32809e-14
1.13905e-09
-1.13903e-09
-2.37668e-14
-7.91677e-14
1.14013e-09
-1.1401e-09
-5.09547e-14
2.1951e-14
1.14113e-09
-1.14112e-09
-5.36235e-14
-2.1432e-14
1.14222e-09
-1.14221e-09
-6.13413e-14
3.00657e-14
1.14327e-09
-1.14328e-09
-6.32166e-14
1.1816e-14
1.14433e-09
-1.14433e-09
-2.61314e-14
2.46057e-14
1.14525e-09
-1.14529e-09
2.88225e-14
1.1458e-09
-1.14583e-09
1.96733e-12
-8.45949e-12
1.51853e-11
-8.69314e-12
-2.70139e-13
9.14471e-13
9.86383e-10
5.74948e-11
4.00984e-11
-5.7439e-11
-4.07525e-11
-9.86428e-10
3.54717e-15
-8.94772e-13
1.18214e-09
-1.18218e-09
-1.06572e-13
6.97327e-13
1.15034e-09
-1.15034e-09
1.33579e-14
-4.20475e-13
1.1394e-09
-1.1394e-09
-1.17949e-14
2.47173e-13
1.13869e-09
-1.13868e-09
9.48304e-15
-1.91446e-13
1.13869e-09
-1.13866e-09
-3.88479e-15
4.56032e-14
1.13898e-09
-1.13895e-09
-6.68114e-15
-1.05739e-13
1.13972e-09
-1.13969e-09
-1.63357e-14
2.14548e-14
1.1406e-09
-1.14059e-09
-3.15023e-14
-2.67662e-14
1.14164e-09
-1.14162e-09
-3.97819e-14
2.15117e-14
1.14266e-09
-1.14264e-09
-4.19826e-14
3.56859e-15
1.14364e-09
-1.14363e-09
-1.56215e-14
3.70562e-14
1.14436e-09
-1.1444e-09
4.20301e-14
1.14471e-09
-1.14473e-09
-2.51611e-13
5.7843e-11
7.72139e-10
4.26919e-11
4.83218e-11
-4.23522e-11
-4.82149e-11
4.44854e-11
-5.66743e-11
-4.48832e-11
-7.7219e-10
9.71292e-13
-2.09851e-12
1.1642e-09
-1.16422e-09
-1.22445e-13
1.83102e-12
1.16438e-09
-1.16442e-09
1.14436e-13
-6.39071e-13
1.14225e-09
-1.14226e-09
1.48703e-14
3.48428e-13
1.13859e-09
-1.13859e-09
3.47566e-14
-2.34835e-13
1.1381e-09
-1.13807e-09
2.36382e-15
5.85106e-14
1.13805e-09
-1.13803e-09
-5.75838e-15
-1.23548e-13
1.13868e-09
-1.13866e-09
-3.00034e-14
1.86731e-14
1.13958e-09
-1.13955e-09
-4.87045e-14
-4.64208e-14
1.14069e-09
-1.14065e-09
-4.47011e-14
2.07256e-14
1.14175e-09
-1.14175e-09
-4.23198e-14
1.36171e-14
1.14268e-09
-1.14269e-09
-2.55946e-14
4.24621e-14
1.14329e-09
-1.14331e-09
4.07176e-14
1.14361e-09
-1.14362e-09
6.4997e-12
-1.35188e-11
1.2402e-11
1.16623e-10
-6.41624e-11
-1.32617e-12
7.72661e-13
9.11562e-10
4.65971e-11
5.50571e-11
-4.79456e-11
-5.52144e-11
-9.116e-10
1.2215e-13
4.0163e-13
1.15462e-09
-1.15464e-09
-3.51483e-13
-1.64293e-13
1.14372e-09
-1.14372e-09
6.18526e-14
-8.73899e-14
1.13584e-09
-1.13582e-09
9.87413e-15
-2.02438e-13
1.13568e-09
-1.13567e-09
5.83492e-14
-1.43318e-14
1.13601e-09
-1.13599e-09
3.67472e-14
-1.3712e-13
1.13694e-09
-1.1369e-09
3.69663e-14
-1.0822e-14
1.13818e-09
-1.13815e-09
1.58178e-14
-5.03558e-14
1.13952e-09
-1.13949e-09
2.00294e-14
1.9048e-14
1.14066e-09
-1.14067e-09
5.57709e-15
1.3969e-14
1.14163e-09
-1.14162e-09
1.18703e-15
4.10281e-14
1.14222e-09
-1.14221e-09
4.22325e-14
1.14254e-09
-1.14254e-09
-2.55544e-12
-9.67685e-12
-8.43188e-13
4.2402e-11
-2.93265e-11
-1.80866e-13
6.50398e-11
7.33716e-10
5.7956e-11
6.16343e-11
-5.75146e-11
-6.08926e-11
4.47236e-11
-6.4654e-11
-4.52781e-11
-7.33777e-10
1.03092e-12
-7.72749e-13
1.13501e-09
-1.13505e-09
-2.93667e-14
9.10891e-13
1.15051e-09
-1.15053e-09
1.15789e-13
-2.02333e-13
1.13284e-09
-1.13287e-09
2.3162e-14
-1.40768e-13
1.1317e-09
-1.13167e-09
4.00784e-14
-4.7017e-14
1.13303e-09
-1.13301e-09
5.36694e-15
-1.26225e-13
1.13469e-09
-1.13466e-09
-2.38776e-15
-1.93906e-14
1.1365e-09
-1.13649e-09
-3.66936e-14
-4.49956e-14
1.13816e-09
-1.13813e-09
-3.37257e-14
-2.07497e-15
1.13953e-09
-1.13952e-09
-3.65324e-14
-9.19869e-17
1.14058e-09
-1.14056e-09
-1.99371e-14
1.39005e-14
1.14113e-09
-1.14111e-09
1.77146e-14
1.14146e-09
-1.14145e-09
1.63243e-11
-1.44786e-11
1.40445e-11
1.01981e-10
-5.28312e-11
-1.36927e-12
1.73669e-12
8.91702e-10
4.70002e-11
5.89448e-11
-4.81557e-11
-5.893e-11
-8.91701e-10
2.45794e-14
-4.4041e-13
1.14453e-09
-1.14458e-09
-1.34372e-13
-4.55646e-14
1.13363e-09
-1.13363e-09
1.82076e-13
-4.37273e-13
1.12713e-09
-1.12715e-09
1.27406e-13
-6.89419e-15
1.1293e-09
-1.12928e-09
1.17287e-13
-1.38431e-13
1.1322e-09
-1.13218e-09
1.21924e-13
-5.18478e-14
1.13469e-09
-1.13467e-09
1.136e-13
-6.87076e-14
1.13689e-09
-1.13685e-09
9.42628e-14
-1.06838e-14
1.13863e-09
-1.13861e-09
6.65294e-14
-3.57845e-15
1.13968e-09
-1.13965e-09
3.3407e-14
1.72777e-14
1.1401e-09
-1.14008e-09
2.59947e-14
1.14037e-09
-1.14034e-09
-1.87911e-12
-1.13315e-11
-3.10418e-12
5.16334e-11
-3.53186e-11
-2.08321e-13
5.84147e-11
7.58633e-10
5.84695e-11
6.28392e-11
-5.79403e-11
-6.19178e-11
4.38189e-11
-5.7242e-11
-4.44341e-11
-7.58697e-10
1.1972e-12
-1.82159e-12
1.13947e-09
-1.1395e-09
-1.10239e-13
1.29155e-12
1.13993e-09
-1.13996e-09
-4.88875e-16
-5.45666e-13
1.1223e-09
-1.1223e-09
-4.41571e-15
-6.48031e-15
1.12471e-09
-1.12471e-09
3.51753e-14
-1.93859e-13
1.12939e-09
-1.12938e-09
8.64554e-16
-3.08039e-14
1.13299e-09
-1.13298e-09
-6.94989e-14
-1.84753e-14
1.13593e-09
-1.13591e-09
-5.88147e-14
-4.13314e-14
1.13796e-09
-1.13794e-09
-6.77965e-14
-1.72616e-14
1.1389e-09
-1.13888e-09
-3.35721e-14
-3.43213e-14
1.139e-09
-1.13898e-09
-2.52045e-14
1.13904e-09
-1.13902e-09
1.14522e-11
-1.43753e-11
6.02881e-12
1.27729e-10
-7.2421e-11
-1.7824e-12
1.21037e-12
8.90377e-10
4.52503e-11
5.28443e-11
-4.62856e-11
-5.30252e-11
-8.90411e-10
5.33403e-13
-9.9994e-13
1.13012e-09
-1.13014e-09
5.38991e-13
-5.35936e-13
1.12395e-09
-1.12397e-09
4.29635e-13
1.02824e-13
1.12251e-09
-1.12251e-09
1.28782e-13
1.2538e-13
1.12712e-09
-1.12714e-09
1.96581e-13
-1.23512e-13
1.13161e-09
-1.13159e-09
2.30288e-13
-6.86966e-14
1.13556e-09
-1.13555e-09
1.84138e-13
-2.05983e-14
1.13796e-09
-1.13794e-09
1.37528e-13
3.72965e-15
1.13856e-09
-1.13853e-09
7.21318e-14
2.54814e-15
1.13789e-09
-1.13785e-09
2.09453e-14
1.13731e-09
-1.13728e-09
2.64755e-12
-1.23518e-11
2.35277e-11
-1.38235e-11
9.80722e-13
4.32446e-11
7.28718e-10
5.68165e-11
5.05938e-11
-5.63337e-11
-5.08218e-11
3.36927e-11
-4.2285e-11
-3.4652e-11
-7.28743e-10
9.9244e-13
-9.79904e-13
1.12617e-09
-1.1262e-09
-1.30226e-12
1.78008e-12
1.13018e-09
-1.1302e-09
3.52126e-14
-1.20636e-12
1.13986e-09
-1.13989e-09
1.90138e-13
-3.32035e-14
1.13349e-09
-1.13349e-09
6.76581e-14
1.86015e-14
1.13267e-09
-1.1327e-09
-3.49815e-13
3.4344e-13
1.13567e-09
-1.13566e-09
-2.57891e-13
-1.13158e-13
1.1384e-09
-1.1384e-09
-2.47538e-13
-1.91452e-14
1.13851e-09
-1.13849e-09
-1.19537e-13
-1.35251e-13
1.13631e-09
-1.1363e-09
-1.04468e-13
1.13442e-09
-1.13441e-09
1.06269e-11
4.51539e-11
-1.25369e-11
-1.21596e-12
5.05345e-11
7.27433e-10
3.38528e-11
4.32846e-11
-3.48028e-11
-4.23172e-11
5.68078e-11
-5.07657e-11
-5.63248e-11
-7.27468e-10
1.81273e-12
5.29852e-11
8.8975e-10
4.53031e-11
-5.31632e-11
-4.63414e-11
-8.89782e-10
4.32894e-13
1.98564e-13
1.13904e-09
-1.13907e-09
-9.17656e-13
1.35745e-12
1.14426e-09
-1.1443e-09
1.53081e-13
-1.04052e-12
1.15029e-09
-1.1503e-09
6.38361e-13
-1.26348e-13
1.1435e-09
-1.14351e-09
4.12986e-13
1.18461e-13
1.14199e-09
-1.142e-09
2.92273e-13
9.53743e-14
1.13912e-09
-1.13912e-09
1.54792e-13
-5.91536e-15
1.13384e-09
-1.13383e-09
3.69471e-14
1.12957e-09
-1.12955e-09
1.88839e-11
4.71485e-11
-1.54982e-11
-6.88517e-12
3.30274e-13
1.02322e-11
9.02784e-11
-4.09714e-11
-1.73229e-12
6.28466e-11
7.58346e-10
4.37695e-11
5.83772e-11
-4.43891e-11
-5.7208e-11
5.84808e-11
-6.19259e-11
-5.7956e-11
-7.58408e-10
7.63992e-13
5.89547e-11
8.91455e-10
4.70073e-11
-5.89432e-11
-4.81671e-11
-8.91449e-10
-4.12587e-13
1.71149e-13
1.1348e-09
-1.13483e-09
-1.83639e-12
1.31551e-12
1.1544e-09
-1.15441e-09
-7.05778e-13
-9.76709e-13
1.16408e-09
-1.16412e-09
-5.96142e-13
-1.2463e-14
1.14996e-09
-1.14996e-09
-2.36493e-13
-3.32905e-13
1.1345e-09
-1.13453e-09
-1.84198e-13
1.12678e-09
-1.12679e-09
5.80169e-12
-4.4879e-12
1.08432e-11
1.07305e-10
-5.66157e-11
5.56322e-12
-6.9591e-12
1.27297e-11
9.06896e-11
-4.30704e-11
-7.7099e-13
6.16334e-11
7.33624e-10
4.47176e-11
6.50315e-11
-4.52731e-11
-6.46513e-11
5.79549e-11
-6.08963e-11
-5.75195e-11
-7.33677e-10
2.09089e-12
5.50575e-11
9.11405e-10
4.65914e-11
-5.52176e-11
-4.79438e-11
-9.11439e-10
8.8341e-13
2.44222e-13
1.16389e-09
-1.1639e-09
6.45872e-13
2.54666e-13
1.18162e-09
-1.18165e-09
3.01622e-13
1.35482e-14
1.13674e-09
-1.13674e-09
1.23522e-13
1.12428e-09
-1.12428e-09
-2.92932e-12
-4.908e-12
2.66184e-11
-1.8781e-11
1.14069e-11
-8.43962e-12
7.99526e-12
1.19727e-10
-6.90574e-11
5.86345e-12
-7.01658e-12
1.00676e-11
9.01397e-11
-4.39969e-11
-9.17347e-13
4.83194e-11
7.71968e-10
4.44942e-11
5.78456e-11
-4.48927e-11
-5.66803e-11
4.26867e-11
-4.82143e-11
-4.23505e-11
-7.72014e-10
-1.4556e-14
4.0087e-11
9.85882e-10
5.74453e-11
-4.07424e-11
-5.73989e-11
-9.85919e-10
-1.98465e-13
6.60191e-11
8.88208e-10
6.46709e-11
-6.59283e-11
-6.4517e-11
-8.88252e-10
6.27941e-11
8.83357e-10
6.20072e-11
-6.28054e-11
-6.20177e-11
-8.83403e-10
3.4335e-12
6.93785e-12
6.20913e-11
-2.4143e-11
-7.69815e-12
-9.83141e-13
9.07045e-11
-4.19357e-11
4.37143e-12
-1.525e-12
1.30592e-11
1.01907e-10
-5.17921e-11
-9.49749e-13
1.08355e-12
1.43823e-11
9.65773e-11
-4.82986e-11
-4.15799e-11
-1.43769e-11
-5.88641e-13
5.65443e-11
-1.33334e-13
1.90237e-13
8.8362e-10
6.20252e-11
6.28695e-11
-6.20256e-11
-6.28713e-11
1.52588e-13
-3.03141e-13
1.12459e-09
-8.57571e-14
2.34998e-13
1.12696e-09
3.38303e-14
-1.58412e-13
1.12973e-09
-1.1009e-13
1.12113e-13
1.13451e-09
-8.37669e-14
-8.17458e-14
1.1374e-09
-1.48958e-13
3.3372e-14
1.13908e-09
-1.51619e-13
-2.89907e-14
1.1404e-09
-1.78216e-13
3.01291e-14
1.14144e-09
-1.72954e-13
1.34356e-14
1.1425e-09
-1.59284e-13
4.25199e-14
1.14351e-09
-1.22214e-13
4.07413e-14
1.1446e-09
-6.76768e-14
5.4888e-14
1.14564e-09
5.21987e-14
1.14649e-09
-3.49403e-11
1.40864e-12
-1.42232e-11
-2.03476e-12
4.97896e-11
-3.07363e-14
2.25726e-15
8.88931e-10
6.47653e-11
6.6109e-11
-6.46025e-11
-6.6009e-11
3.37536e-13
-6.57816e-13
1.13737e-09
-2.70902e-14
6.02276e-13
1.13488e-09
7.51131e-14
-2.89395e-13
1.13411e-09
-8.76548e-14
2.51514e-13
1.13648e-09
-6.65656e-14
-1.50118e-13
1.13802e-09
-1.3707e-13
8.15469e-14
1.13907e-09
-1.43959e-13
-4.43073e-14
1.14015e-09
-1.70703e-13
6.79641e-14
1.14112e-09
-1.66513e-13
3.4288e-14
1.14219e-09
-1.57041e-13
8.9562e-14
1.14321e-09
-1.23596e-13
8.25476e-14
1.14425e-09
-6.81755e-14
1.02464e-13
1.14515e-09
1.05316e-13
1.14568e-09
-8.69483e-12
1.96758e-12
-8.46141e-12
1.51887e-11
-2.77192e-13
9.18757e-13
9.86338e-10
5.75059e-11
4.01086e-11
-5.74518e-11
-4.07584e-11
-6.40608e-15
-8.99422e-13
1.18211e-09
-1.40646e-13
7.27101e-13
1.15034e-09
-4.4408e-14
-4.08728e-13
1.13942e-09
-8.28495e-14
2.65101e-13
1.13871e-09
-7.75297e-14
-2.00174e-13
1.13873e-09
-1.04569e-13
8.39712e-14
1.139e-09
-1.17753e-13
-5.81291e-14
1.13975e-09
-1.28681e-13
8.19839e-14
1.1406e-09
-1.23089e-13
5.04247e-14
1.14162e-09
-1.32059e-13
1.17689e-13
1.14264e-09
-1.0388e-13
1.01957e-13
1.14359e-09
-5.46476e-14
1.36618e-13
1.14428e-09
1.41473e-13
1.14463e-09
-2.48777e-13
5.78533e-11
7.72089e-10
4.26998e-11
4.83316e-11
-4.2361e-11
-4.82235e-11
4.44968e-11
-5.66889e-11
-4.48908e-11
9.49048e-13
-2.1044e-12
1.16421e-09
-1.4621e-13
1.86735e-12
1.16433e-09
6.3514e-14
-6.36347e-13
1.14226e-09
-5.33623e-14
3.67811e-13
1.1386e-09
-4.5271e-14
-2.50162e-13
1.13814e-09
-9.19475e-14
1.05284e-13
1.13807e-09
-1.11264e-13
-7.00478e-14
1.13871e-09
-1.30316e-13
9.19642e-14
1.13959e-09
-1.27916e-13
3.44774e-14
1.14071e-09
-1.32707e-13
1.14496e-13
1.14175e-09
-1.07246e-13
1.16564e-13
1.14263e-09
-5.73594e-14
1.54308e-13
1.14322e-09
1.5766e-13
1.14354e-09
-6.41695e-11
6.5017e-12
-1.35247e-11
1.24049e-11
1.1664e-10
-1.34624e-12
7.67226e-13
9.11525e-10
4.66085e-11
5.50717e-11
-4.79502e-11
-5.52192e-11
1.20213e-13
4.20908e-13
1.1546e-09
-3.82085e-13
-1.4292e-13
1.14373e-09
1.95845e-14
-5.51308e-14
1.13586e-09
-5.55149e-14
-2.07143e-13
1.13572e-09
-1.79341e-14
3.59275e-14
1.13604e-09
-5.04174e-14
-7.45407e-14
1.13698e-09
-4.76326e-14
6.782e-14
1.1382e-09
-6.06195e-14
3.4175e-14
1.13953e-09
-5.60421e-14
1.18041e-13
1.14065e-09
-4.64076e-14
1.21725e-13
1.14162e-09
-2.57147e-14
1.61636e-13
1.14219e-09
1.66804e-13
1.14252e-09
-2.93288e-11
-2.55533e-12
-9.67998e-12
-8.43638e-13
4.24077e-11
-2.27337e-13
6.50533e-11
7.3368e-10
5.79682e-11
6.16457e-11
-5.75243e-11
-6.0904e-11
4.4737e-11
-6.46668e-11
-4.52818e-11
1.02606e-12
-7.7564e-13
1.13495e-09
-5.92193e-14
9.42241e-13
1.15051e-09
7.48718e-14
-1.82935e-13
1.13283e-09
-4.16826e-14
-1.18581e-13
1.13172e-09
-3.00667e-14
2.32566e-15
1.13305e-09
-6.89863e-14
-7.04628e-14
1.13472e-09
-8.0657e-14
5.70269e-14
1.13652e-09
-1.07439e-13
3.99141e-14
1.13817e-09
-9.38277e-14
1.00993e-13
1.13953e-09
-8.04623e-14
1.10675e-13
1.14058e-09
-4.27797e-14
1.35118e-13
1.14111e-09
1.42748e-13
1.14144e-09
-5.28374e-11
1.63304e-11
-1.44845e-11
1.40474e-11
1.01997e-10
-1.41759e-12
1.80948e-12
8.91673e-10
4.70101e-11
5.89548e-11
-4.81621e-11
-5.89426e-11
6.26441e-16
-4.504e-13
1.1445e-09
-1.58402e-13
-3.32594e-14
1.13364e-09
1.4313e-13
-4.2551e-13
1.12713e-09
7.75974e-14
3.89666e-14
1.12933e-09
6.10448e-14
-8.87592e-14
1.13224e-09
6.32764e-14
1.85011e-14
1.13473e-09
5.84013e-14
7.26114e-15
1.13692e-09
4.66269e-14
8.32497e-14
1.13866e-09
3.16461e-14
9.6968e-14
1.1397e-09
1.51291e-14
1.29219e-13
1.14013e-09
1.41465e-13
1.14039e-09
-3.53206e-11
-1.87862e-12
-1.13356e-11
-3.10462e-12
5.16394e-11
-1.78707e-13
5.84265e-11
7.58594e-10
5.84838e-11
6.28514e-11
-5.7949e-11
-6.19293e-11
4.3831e-11
-5.72536e-11
-4.44386e-11
1.21519e-12
-1.83478e-12
1.13946e-09
-1.50986e-13
1.36502e-12
1.1399e-09
-4.28885e-14
-5.51582e-13
1.12232e-09
-5.02774e-14
3.4347e-14
1.12472e-09
-1.65919e-14
-1.54807e-13
1.12942e-09
-4.71272e-14
2.4247e-14
1.13301e-09
-1.14707e-13
4.25416e-14
1.13596e-09
-9.54949e-14
4.04094e-14
1.13798e-09
-9.38428e-14
7.38973e-14
1.13892e-09
-4.69927e-14
6.48093e-14
1.13902e-09
7.79526e-14
1.13906e-09
-7.24293e-11
1.14556e-11
-1.43804e-11
6.03182e-12
1.27748e-10
-1.80488e-12
1.20224e-12
8.90354e-10
4.52622e-11
5.2855e-11
-4.62904e-11
-5.30345e-11
5.48154e-13
-9.88927e-13
1.13011e-09
5.43081e-13
-5.52545e-13
1.12396e-09
4.1695e-13
1.40976e-13
1.12253e-09
1.05067e-13
1.48776e-13
1.12713e-09
1.61936e-13
-7.43947e-14
1.13165e-09
1.92575e-13
-2.5278e-14
1.1356e-09
1.51445e-13
4.44819e-14
1.138e-09
1.15789e-13
7.01092e-14
1.1386e-09
6.10509e-14
7.88902e-14
1.13793e-09
1.00813e-13
1.13735e-09
-1.38248e-11
2.64795e-12
-1.23543e-11
2.35311e-11
9.65324e-13
4.32579e-11
7.28692e-10
5.68255e-11
5.06008e-11
-5.63461e-11
-5.08344e-11
3.37005e-11
-4.22866e-11
-3.46565e-11
9.80484e-13
-9.71231e-13
1.12613e-09
-1.3736e-12
1.8006e-12
1.13018e-09
2.22535e-14
-1.22506e-12
1.13983e-09
1.66478e-13
-9.78037e-15
1.1335e-09
4.15633e-14
5.0423e-14
1.13267e-09
-3.74923e-13
3.71075e-13
1.13569e-09
-2.7573e-13
-6.83314e-14
1.13842e-09
-2.65549e-13
3.52596e-14
1.13853e-09
-1.26857e-13
-7.91665e-14
1.13633e-09
-4.24069e-14
1.13444e-09
-1.25273e-11
1.06224e-11
4.51629e-11
-1.20629e-12
5.05436e-11
7.27415e-10
3.3857e-11
4.32879e-11
-3.48106e-11
-4.23302e-11
5.68182e-11
-5.07755e-11
-5.63355e-11
1.82393e-12
5.29952e-11
8.89726e-10
4.53145e-11
-5.31723e-11
-4.63461e-11
4.41454e-13
1.68247e-13
1.13903e-09
-9.49075e-13
1.40325e-12
1.14423e-09
1.36376e-13
-1.03617e-12
1.15029e-09
6.27632e-13
-1.29452e-13
1.14351e-09
4.0003e-13
1.37849e-13
1.14201e-09
2.82756e-13
1.28016e-13
1.13915e-09
1.51242e-13
2.14354e-14
1.13387e-09
7.66335e-14
1.1296e-09
-1.54989e-11
1.88867e-11
4.71564e-11
-4.09779e-11
-6.8823e-12
3.2506e-13
1.02351e-11
9.02962e-11
-1.80981e-12
6.28598e-11
7.5831e-10
4.37814e-11
5.83879e-11
-4.43937e-11
-5.72192e-11
5.84953e-11
-6.19376e-11
-5.79631e-11
7.6619e-13
5.89646e-11
8.91426e-10
4.70174e-11
-5.89556e-11
-4.81734e-11
-4.29923e-13
2.16004e-13
1.13475e-09
-1.87189e-12
1.33074e-12
1.15438e-09
-7.3316e-13
-9.57564e-13
1.16404e-09
-6.14624e-13
-2.62654e-15
1.14997e-09
-2.42472e-13
-3.45922e-13
1.13449e-09
-1.62571e-13
1.12678e-09
-5.66215e-11
5.802e-12
-4.48926e-12
1.08471e-11
1.07321e-10
-4.30773e-11
5.5647e-12
-6.9636e-12
1.27343e-11
9.07081e-11
-7.67934e-13
6.16455e-11
7.3359e-10
4.47309e-11
6.50456e-11
-4.52766e-11
-6.46632e-11
5.7968e-11
-6.09067e-11
-5.75277e-11
2.09384e-12
5.50712e-11
9.11369e-10
4.66027e-11
-5.52229e-11
-4.79489e-11
8.88616e-13
2.35235e-13
1.1639e-09
6.47983e-13
2.61476e-13
1.18159e-09
2.94243e-13
1.86781e-14
1.13673e-09
1.21798e-13
1.1243e-09
-1.8782e-11
-2.93023e-12
-4.90915e-12
2.66214e-11
-6.90632e-11
1.14079e-11
-8.44114e-12
7.99885e-12
1.19743e-10
-4.40055e-11
5.86492e-12
-7.01927e-12
1.00721e-11
9.01579e-11
-9.19447e-13
4.83283e-11
7.71919e-10
4.45046e-11
5.78546e-11
-4.49009e-11
-5.66947e-11
4.26942e-11
-4.82236e-11
-4.23604e-11
-1.17579e-14
4.00973e-11
9.85846e-10
5.74581e-11
-4.07485e-11
-5.74103e-11
-1.99907e-13
6.60336e-11
8.88169e-10
6.46854e-11
-6.59408e-11
-6.45287e-11
6.28082e-11
8.83304e-10
6.20212e-11
-6.2816e-11
-6.20291e-11
-2.41466e-11
3.43276e-12
6.9416e-12
6.21025e-11
-4.19434e-11
-7.7004e-12
-9.81778e-13
9.0722e-11
-5.18007e-11
4.37111e-12
-1.52527e-12
1.30627e-11
1.01925e-10
-4.83073e-11
-9.48429e-13
1.08224e-12
1.43865e-11
9.65958e-11
-4.15838e-11
-1.43813e-11
-5.88745e-13
5.65528e-11
-1.81169e-13
2.01241e-13
8.83593e-10
6.2041e-11
6.2885e-11
-6.20386e-11
-6.28846e-11
1.17469e-13
-3.09741e-13
1.12459e-09
-1.55952e-13
2.6043e-13
1.12697e-09
-6.70345e-14
-1.53502e-13
1.12979e-09
-2.34602e-13
1.24754e-13
1.13455e-09
-2.40397e-13
-6.15412e-14
1.13746e-09
-3.21494e-13
5.57432e-14
1.13909e-09
-3.38647e-13
-1.229e-15
1.14041e-09
-3.64938e-13
6.41429e-14
1.14139e-09
-3.48494e-13
5.21204e-14
1.14242e-09
-3.04362e-13
9.02819e-14
1.14337e-09
-2.27858e-13
9.22611e-14
1.14443e-09
-1.25911e-13
1.09839e-13
1.14542e-09
1.12789e-13
1.14626e-09
-3.49436e-11
1.40883e-12
-1.42275e-11
-2.03509e-12
4.97974e-11
-3.75902e-14
1.00418e-14
8.88895e-10
6.47814e-11
6.6123e-11
-6.46167e-11
-6.60253e-11
2.9357e-13
-6.53543e-13
1.13738e-09
-8.30067e-14
6.21691e-13
1.13489e-09
-1.5521e-14
-2.78442e-13
1.13417e-09
-2.06139e-13
2.78952e-13
1.13651e-09
-2.16949e-13
-1.10612e-13
1.13808e-09
-3.05004e-13
1.2412e-13
1.13909e-09
-3.26776e-13
6.92087e-15
1.14017e-09
-3.53119e-13
1.33859e-13
1.14108e-09
-3.37062e-13
1.07996e-13
1.14212e-09
-2.96298e-13
1.7732e-13
1.14308e-09
-2.239e-13
1.77933e-13
1.14409e-09
-1.22752e-13
2.0892e-13
1.14494e-09
2.14792e-13
1.14547e-09
-8.69675e-12
1.96777e-12
-8.46384e-12
1.51928e-11
-2.7593e-13
9.1988e-13
9.86297e-10
5.75181e-11
4.01203e-11
-5.74666e-11
-4.07658e-11
-2.13876e-14
-8.97383e-13
1.1821e-09
-2.01238e-13
8.10296e-13
1.15034e-09
-1.35835e-13
-3.9615e-13
1.13948e-09
-1.90181e-13
2.93702e-13
1.13875e-09
-2.16769e-13
-1.44819e-13
1.13879e-09
-2.59388e-13
1.41102e-13
1.13902e-09
-2.87408e-13
1.28352e-14
1.13977e-09
-2.98799e-13
1.72138e-13
1.14057e-09
-2.88457e-13
1.46606e-13
1.14157e-09
-2.55881e-13
2.34819e-13
1.14255e-09
-1.93424e-13
2.38909e-13
1.14347e-09
-1.04292e-13
2.82584e-13
1.14411e-09
2.89725e-13
1.14445e-09
-2.44707e-13
5.78627e-11
7.72044e-10
4.27085e-11
4.8343e-11
-4.23723e-11
-4.82345e-11
4.45092e-11
-5.67081e-11
-4.49009e-11
9.13366e-13
-2.05548e-12
1.16421e-09
-1.83963e-13
1.907e-12
1.16433e-09
-5.89243e-15
-6.24464e-13
1.14231e-09
-1.5169e-13
4.06106e-13
1.13864e-09
-1.70081e-13
-1.88862e-13
1.1382e-09
-2.34608e-13
1.74194e-13
1.1381e-09
-2.66428e-13
1.41268e-14
1.13874e-09
-2.84988e-13
2.02459e-13
1.13958e-09
-2.80552e-13
1.68385e-13
1.14068e-09
-2.4798e-13
2.67969e-13
1.14169e-09
-1.89585e-13
2.76841e-13
1.14254e-09
-1.01394e-13
3.26037e-13
1.14309e-09
3.33308e-13
1.14341e-09
-6.41784e-11
6.50529e-12
-1.35329e-11
1.24063e-11
1.16662e-10
-1.36727e-12
7.67159e-13
9.1154e-10
4.66219e-11
5.50885e-11
-4.79561e-11
-5.52261e-11
9.52458e-14
4.47941e-13
1.15459e-09
-4.32125e-13
-1.279e-13
1.14376e-09
-5.61584e-14
-1.38913e-14
1.13591e-09
-1.53555e-13
-1.58762e-13
1.13578e-09
-1.35207e-13
1.10854e-13
1.13608e-09
-1.82135e-13
1.5367e-14
1.13702e-09
-1.80262e-13
1.84822e-13
1.13822e-09
-1.83299e-13
1.68333e-13
1.13953e-09
-1.57978e-13
2.74551e-13
1.14062e-09
-1.20029e-13
2.89673e-13
1.14157e-09
-6.49773e-14
3.4365e-13
1.14212e-09
3.54015e-13
1.14244e-09
-2.93318e-11
-2.55575e-12
-9.68351e-12
-8.43895e-13
4.2415e-11
-2.35067e-13
6.50685e-11
7.33639e-10
5.79826e-11
6.16593e-11
-5.75357e-11
-6.09182e-11
4.4753e-11
-6.4683e-11
-4.52869e-11
1.02157e-12
-7.72827e-13
1.13491e-09
-1.03811e-13
9.80713e-13
1.15053e-09
3.98299e-15
-1.47351e-13
1.13286e-09
-1.27704e-13
-7.53986e-14
1.13177e-09
-1.36376e-13
7.93644e-14
1.13309e-09
-1.84551e-13
1.56667e-14
1.13477e-09
-1.96364e-13
1.73686e-13
1.13654e-09
-2.14723e-13
1.71623e-13
1.13819e-09
-1.83195e-13
2.56813e-13
1.13952e-09
-1.45355e-13
2.78393e-13
1.14055e-09
-7.62411e-14
3.18274e-13
1.14107e-09
3.30384e-13
1.1414e-09
-5.28459e-11
1.63369e-11
-1.44916e-11
1.4051e-11
1.02018e-10
-1.46722e-12
1.83734e-12
8.91661e-10
4.70227e-11
5.89677e-11
-4.8168e-11
-5.89557e-11
-3.66832e-14
-4.4953e-13
1.1445e-09
-2.02589e-13
-6.92644e-15
1.13366e-09
8.21321e-14
-4.03062e-13
1.12718e-09
3.14347e-15
1.06619e-13
1.12938e-09
-2.54865e-14
-1.41847e-14
1.13229e-09
-2.5677e-14
1.26176e-13
1.13477e-09
-2.55894e-14
1.25024e-13
1.13697e-09
-2.42855e-14
2.25489e-13
1.13869e-09
-1.86816e-14
2.50776e-13
1.13973e-09
-1.10349e-14
2.97213e-13
1.14014e-09
3.13906e-13
1.1404e-09
-3.53239e-11
-1.87846e-12
-1.13399e-11
-3.10514e-12
5.16474e-11
-1.90452e-13
5.84392e-11
7.58584e-10
5.84993e-11
6.28646e-11
-5.79605e-11
-6.19459e-11
4.38464e-11
-5.7267e-11
-4.4444e-11
1.22181e-12
-1.84067e-12
1.13944e-09
-2.02193e-13
1.421e-12
1.1399e-09
-1.01538e-13
-5.45029e-13
1.12236e-09
-1.18281e-13
9.13909e-14
1.12475e-09
-9.12165e-14
-9.2191e-14
1.12948e-09
-1.22383e-13
1.16939e-13
1.13305e-09
-1.85153e-13
1.43327e-13
1.136e-09
-1.51316e-13
1.63552e-13
1.13801e-09
-1.39604e-13
2.09106e-13
1.13895e-09
-7.25062e-14
2.11009e-13
1.13904e-09
2.31848e-13
1.13907e-09
-7.24387e-11
1.14591e-11
-1.43864e-11
6.03392e-12
1.2777e-10
-1.82954e-12
1.19335e-12
8.90348e-10
4.5276e-11
5.28668e-11
-4.62962e-11
-5.30452e-11
5.55497e-13
-9.74297e-13
1.13012e-09
5.35529e-13
-5.6072e-13
1.12399e-09
3.95922e-13
1.92385e-13
1.12257e-09
6.80824e-14
1.91388e-13
1.12717e-09
1.52355e-13
-1.22075e-14
1.13169e-09
1.8809e-13
4.67489e-14
1.13566e-09
1.4291e-13
1.44508e-13
1.13807e-09
1.06038e-13
1.80198e-13
1.13867e-09
5.42753e-14
2.00645e-13
1.13799e-09
2.26734e-13
1.13741e-09
-1.38267e-11
2.64793e-12
-1.23569e-11
2.35357e-11
9.5639e-13
4.3264e-11
7.28676e-10
5.68382e-11
5.06126e-11
-5.63588e-11
-5.08463e-11
3.3706e-11
-4.22995e-11
-3.46657e-11
9.64636e-13
-9.57713e-13
1.12611e-09
-1.43052e-12
1.82323e-12
1.13019e-09
-2.87064e-15
-1.23162e-12
1.13983e-09
1.38766e-13
2.54246e-14
1.13353e-09
2.45579e-15
9.60322e-14
1.1327e-09
-4.15385e-13
4.2008e-13
1.13573e-09
-3.05513e-13
-1.372e-15
1.13845e-09
-2.91479e-13
1.27007e-13
1.13857e-09
-1.38391e-13
1.07722e-14
1.13637e-09
5.71575e-14
1.13448e-09
-1.25423e-11
1.06326e-11
4.51738e-11
-1.20058e-12
5.05527e-11
7.27394e-10
3.38666e-11
4.33043e-11
-3.48169e-11
-4.23336e-11
5.68298e-11
-5.0789e-11
-5.63498e-11
1.8289e-12
5.30062e-11
8.89721e-10
4.53283e-11
-5.31836e-11
-4.63516e-11
4.40146e-13
1.78843e-13
1.13901e-09
-9.87985e-13
1.45356e-12
1.14423e-09
1.23107e-13
-1.03123e-12
1.15031e-09
6.13485e-13
-1.04845e-13
1.14354e-09
3.87275e-13
1.742e-13
1.14207e-09
2.71963e-13
1.88519e-13
1.13921e-09
1.45788e-13
7.77341e-14
1.13393e-09
1.47036e-13
1.12966e-09
-1.55027e-11
1.88891e-11
4.7166e-11
-4.09875e-11
-6.88083e-12
3.18825e-13
1.02368e-11
9.0317e-11
-1.8402e-12
6.28736e-11
7.58303e-10
4.37972e-11
5.84003e-11
-4.43986e-11
-5.72326e-11
5.8512e-11
-6.19525e-11
-5.79744e-11
7.63785e-13
5.89777e-11
8.91419e-10
4.70299e-11
-5.89687e-11
-4.81791e-11
-4.56704e-13
2.24069e-13
1.13471e-09
-1.9108e-12
1.35045e-12
1.15438e-09
-8.16106e-13
-9.2157e-13
1.16405e-09
-6.33987e-13
1.23541e-14
1.14997e-09
-2.70994e-13
-3.0107e-13
1.13451e-09
-1.26475e-13
1.12679e-09
-5.66283e-11
5.80274e-12
-4.49007e-12
1.08509e-11
1.07339e-10
-4.30872e-11
5.56646e-12
-6.96876e-12
1.2739e-11
9.07297e-11
-7.69344e-13
6.1659e-11
7.3355e-10
4.47471e-11
6.50611e-11
-4.52811e-11
-6.46793e-11
5.79835e-11
-6.09201e-11
-5.75395e-11
2.04388e-12
5.50876e-11
9.11388e-10
4.66169e-11
-5.52297e-11
-4.79545e-11
8.86824e-13
2.33271e-13
1.16391e-09
6.45156e-13
2.61919e-13
1.18159e-09
3.01427e-13
3.11445e-14
1.13675e-09
1.70195e-13
1.1243e-09
-1.87838e-11
-2.93107e-12
-4.91071e-12
2.66256e-11
-6.90715e-11
1.14079e-11
-8.4428e-12
8.00121e-12
1.19764e-10
-4.40151e-11
5.86607e-12
-7.02e-12
1.00776e-11
9.01802e-11
-9.1971e-13
4.83406e-11
7.7188e-10
4.4517e-11
5.78635e-11
-4.49104e-11
-5.67134e-11
4.27042e-11
-4.82343e-11
-4.23709e-11
-1.79553e-14
4.0109e-11
9.85808e-10
5.74699e-11
-4.07561e-11
-5.74242e-11
-2.09615e-13
6.605e-11
8.88134e-10
6.47023e-11
-6.59551e-11
-6.45425e-11
6.28244e-11
8.83281e-10
6.20366e-11
-6.28289e-11
-6.20411e-11
-2.41503e-11
3.4337e-12
6.94338e-12
6.21146e-11
-4.19512e-11
-7.70056e-12
-9.81128e-13
9.0742e-11
-5.18103e-11
4.37174e-12
-1.52575e-12
1.30675e-11
1.01948e-10
-4.83181e-11
-9.49291e-13
1.08323e-12
1.43908e-11
9.66184e-11
-4.15887e-11
-1.4386e-11
-5.88339e-13
5.65637e-11
-2.22324e-13
2.12152e-13
8.83592e-10
6.20593e-11
6.29035e-11
-6.20541e-11
-6.29006e-11
5.95639e-14
-3.13562e-13
1.12462e-09
-2.58358e-13
2.80191e-13
1.127e-09
-2.20621e-13
-1.47641e-13
1.12989e-09
-4.27295e-13
1.47807e-13
1.1346e-09
-4.70027e-13
-5.16455e-14
1.13754e-09
-5.77119e-13
9.48091e-14
1.13909e-09
-6.14285e-13
3.97145e-14
1.1404e-09
-6.38112e-13
1.14859e-13
1.14128e-09
-6.0108e-13
1.11388e-13
1.14227e-09
-5.38388e-13
1.62254e-13
1.14315e-09
-3.9924e-13
1.66018e-13
1.14412e-09
-2.26343e-13
2.01629e-13
1.14505e-09
2.03951e-13
1.14584e-09
-3.49482e-11
1.40877e-12
-1.42327e-11
-2.03515e-12
4.98073e-11
-5.32302e-14
2.01732e-14
8.88874e-10
6.48008e-11
6.61407e-11
-6.46327e-11
-6.60439e-11
2.28103e-13
-6.43257e-13
1.13743e-09
-1.73831e-13
6.44411e-13
1.13493e-09
-1.57325e-13
-2.64165e-13
1.13427e-09
-3.88112e-13
3.24027e-13
1.13656e-09
-4.39301e-13
-8.88101e-14
1.13817e-09
-5.54675e-13
2.02653e-13
1.13909e-09
-5.95088e-13
8.28871e-14
1.14016e-09
-6.19126e-13
2.3067e-13
1.14099e-09
-5.85178e-13
2.18109e-13
1.14198e-09
-5.26372e-13
3.07613e-13
1.14288e-09
-3.91626e-13
3.17895e-13
1.14381e-09
-2.20484e-13
3.71491e-13
1.1446e-09
3.76327e-13
1.14509e-09
-8.69912e-12
1.96768e-12
-8.46632e-12
1.51978e-11
-2.82335e-13
9.20532e-13
9.8627e-10
5.7533e-11
4.01342e-11
-5.74833e-11
-4.07743e-11
-5.76334e-14
-8.83195e-13
1.18212e-09
-2.90575e-13
8.52366e-13
1.15036e-09
-2.68909e-13
-3.79135e-13
1.13957e-09
-3.56686e-13
3.44845e-13
1.13882e-09
-4.25054e-13
-1.08387e-13
1.13888e-09
-4.89584e-13
2.28074e-13
1.13906e-09
-5.36008e-13
1.17706e-13
1.13978e-09
-5.46019e-13
3.04816e-13
1.1405e-09
-5.2002e-13
2.97293e-13
1.14147e-09
-4.47501e-13
4.12068e-13
1.14237e-09
-3.31851e-13
4.34271e-13
1.14323e-09
-1.81883e-13
5.08218e-13
1.14383e-09
5.17321e-13
1.14414e-09
-2.39845e-13
5.7874e-11
7.72005e-10
4.2719e-11
4.83567e-11
-4.23853e-11
-4.82474e-11
4.45248e-11
-5.67307e-11
-4.49123e-11
8.69104e-13
-2.0137e-12
1.16423e-09
-2.55084e-13
1.95833e-12
1.16435e-09
-1.15506e-13
-6.10923e-13
1.14241e-09
-3.02799e-13
4.71435e-13
1.1387e-09
-3.5821e-13
-1.44437e-13
1.13829e-09
-4.47729e-13
2.79803e-13
1.13814e-09
-4.9609e-13
1.38689e-13
1.13877e-09
-5.12734e-13
3.62892e-13
1.13954e-09
-4.92836e-13
3.52851e-13
1.1406e-09
-4.3001e-13
4.82105e-13
1.14156e-09
-3.23683e-13
5.08645e-13
1.14236e-09
-1.76601e-13
5.75606e-13
1.14288e-09
5.87918e-13
1.14317e-09
-6.41896e-11
6.50914e-12
-1.35418e-11
1.24073e-11
1.16689e-10
-1.40517e-12
8.34003e-13
9.1155e-10
4.66371e-11
5.51075e-11
-4.79633e-11
-5.5236e-11
4.36084e-14
4.80762e-13
1.15462e-09
-5.18776e-13
-1.21437e-13
1.14384e-09
-1.70302e-13
4.05916e-14
1.13599e-09
-3.12e-13
-9.16494e-14
1.13587e-09
-3.14242e-13
2.22804e-13
1.13614e-09
-3.78324e-13
1.48028e-13
1.13707e-09
-3.75485e-13
3.57078e-13
1.13822e-09
-3.6401e-13
3.65246e-13
1.1395e-09
-3.08264e-13
5.02582e-13
1.14054e-09
-2.28956e-13
5.35834e-13
1.14146e-09
-1.21508e-13
6.09779e-13
1.14198e-09
6.25544e-13
1.14228e-09
-2.93351e-11
-2.55597e-12
-9.68792e-12
-8.44272e-13
4.24232e-11
-2.25211e-13
6.50852e-11
7.33646e-10
5.80007e-11
6.16757e-11
-5.75497e-11
-6.09349e-11
4.47718e-11
-6.47051e-11
-4.52944e-11
1.01494e-12
-7.58144e-13
1.13491e-09
-1.76426e-13
1.02764e-12
1.15057e-09
-9.64171e-14
-1.06395e-13
1.13293e-09
-2.61793e-13
-8.24014e-15
1.13185e-09
-2.94124e-13