/*--------------------------------*- C++ -*----------------------------------*\
| =========                 |                                                 |
| \\      /  F ield         | OpenFOAM: The Open Source CFD Toolbox           |
|  \\    /   O peration     | Version:  2.1.1                                 |
|   \\  /    A nd           | Web:      www.OpenFOAM.org                      |
|    \\/     M anipulation  |                                                 |
\*---------------------------------------------------------------------------*/
FoamFile
{
    version     2.0;
    format      ascii;
    class       volVectorField;
    location    "0.0035";
    object      U;
}
// * * * * * * * * * * * * * * * * * * * * * * * * * * * * * * * * * * * * * //

dimensions      [0 1 -1 0 0 0 0];

internalField   nonuniform List<vector> 
10233
(
(0.000300139 0.00030306 0.073027)
(0.0162779 0.000434788 0.080418)
(0.00694465 0.000101357 0.083833)
(0.00313844 -2.23294e-05 0.0847459)
(0.0013025 -6.10619e-05 0.0847838)
(0.00112906 -7.44819e-05 0.0848545)
(0.000833315 -7.71591e-05 0.0849555)
(0.000728687 -7.67821e-05 0.0850493)
(0.000568217 -7.42075e-05 0.0851296)
(0.000471454 -7.13527e-05 0.0852032)
(0.000360115 -6.86675e-05 0.0852701)
(0.000273133 -6.64168e-05 0.0853337)
(0.000181105 -6.54607e-05 0.0853952)
(9.97964e-05 -6.49667e-05 0.0854559)
(1.48478e-05 -6.37139e-05 0.0855165)
(0.00159498 0.00226091 0.0703601)
(0.0146685 0.00233275 0.0801406)
(0.00608897 -0.00010735 0.0836201)
(0.00301495 -0.000235661 0.0847995)
(0.00134986 -0.000217651 0.084904)
(0.00115497 -0.00021815 0.0849535)
(0.000845757 -0.000204367 0.085042)
(0.00073089 -0.00019322 0.0851276)
(0.000568701 -0.000181755 0.0852025)
(0.000470164 -0.000172688 0.0852719)
(0.000358268 -0.000164606 0.0853359)
(0.000271245 -0.000158124 0.0853981)
(0.000180019 -0.00015337 0.085458)
(9.86915e-05 -0.000149997 0.0855183)
(1.56355e-05 -0.000147895 0.0855793)
(-0.00631609 0.0116769 0.0447024)
(0.00802195 0.00285769 0.0816198)
(0.00387523 -0.000345017 0.0838468)
(0.00257483 -0.00082523 0.0850372)
(0.00137388 -0.000610785 0.0851105)
(0.00117284 -0.000473032 0.0850771)
(0.000863627 -0.000388929 0.0851339)
(0.000738624 -0.000340431 0.0852076)
(0.000575106 -0.000307222 0.0852746)
(0.000473929 -0.000284473 0.0853398)
(0.000360201 -0.000267388 0.0854018)
(0.000272145 -0.000255102 0.0854619)
(0.000179517 -0.000246096 0.0855214)
(9.82675e-05 -0.000239679 0.0855825)
(1.41999e-05 -0.000235672 0.0856453)
(-0.00892885 -0.00271108 0.0814651)
(0.00198573 -0.00155402 0.0838181)
(0.00237102 -0.00188404 0.0856434)
(0.00149135 -0.00111123 0.0854524)
(0.00112748 -0.000732623 0.0852427)
(0.000852281 -0.000557266 0.0852445)
(0.000727677 -0.000475632 0.0852973)
(0.000574935 -0.000425591 0.0853548)
(0.000475668 -0.000393344 0.0854136)
(0.000361194 -0.000370114 0.0854719)
(0.000272782 -0.000352339 0.0855303)
(0.000179776 -0.00033929 0.0855906)
(9.8612e-05 -0.000329971 0.0856535)
(1.23641e-05 -0.000324959 0.0857174)
(-0.0131222 0.0063246 0.0745259)
(0.00576392 -0.001301 0.0822718)
(0.00358742 -0.00291674 0.085184)
(0.00217782 -0.00183208 0.0857287)
(0.00128294 -0.00111856 0.0854205)
(0.000898261 -0.000808771 0.085342)
(0.000746858 -0.000663498 0.0853799)
(0.000586312 -0.000582095 0.0854311)
(0.000485197 -0.000529272 0.0854867)
(0.000365977 -0.000493994 0.0855434)
(0.000278067 -0.000466589 0.0856026)
(0.0001812 -0.000447873 0.0856646)
(9.97584e-05 -0.000435387 0.0857285)
(1.06402e-05 -0.000428758 0.0857952)
(-0.000878083 -0.00336789 0.0630815)
(0.00844631 -0.00311457 0.0809015)
(0.00550577 -0.00307944 0.0838392)
(0.0033638 -0.00242285 0.0858859)
(0.00164732 -0.00140479 0.085614)
(0.000990618 -0.000966093 0.0854614)
(0.000781013 -0.000801268 0.085473)
(0.000599344 -0.000717964 0.085524)
(0.000495843 -0.000659202 0.0855751)
(0.000370321 -0.000617175 0.0856281)
(0.000284204 -0.000582067 0.0856863)
(0.000181973 -0.000558313 0.0857491)
(0.000101824 -0.000541698 0.0858162)
(9.37519e-06 -0.000533148 0.0858878)
(-0.00253404 -0.00339617 0.084923)
(0.00979794 -0.00366636 0.0814346)
(0.00491673 -0.00325207 0.0850404)
(0.00247965 -0.0019038 0.0858542)
(0.0012521 -0.00127568 0.0856271)
(0.000904226 -0.00103869 0.0855871)
(0.000652975 -0.000930964 0.0856283)
(0.000529511 -0.000849174 0.0856762)
(0.000380986 -0.000788244 0.0857249)
(0.000294258 -0.000735952 0.0857809)
(0.000183601 -0.000702974 0.085845)
(0.000106023 -0.000680222 0.0859164)
(8.61253e-06 -0.000670226 0.0859926)
(0.0021723 0.00789751 0.0626842)
(0.0090952 -0.00124149 0.0805959)
(0.00626183 -0.00280069 0.0838484)
(0.00340433 -0.00219188 0.0861884)
(0.00157935 -0.00155929 0.0859567)
(0.00103794 -0.00129138 0.0857958)
(0.000727608 -0.00117133 0.0857887)
(0.000585559 -0.00106832 0.0858165)
(0.000393696 -0.000983873 0.0858541)
(0.000306783 -0.000904529 0.0859047)
(0.000183481 -0.00085239 0.085972)
(0.000113334 -0.000819169 0.0860504)
(9.52393e-06 -0.000806527 0.0861344)
(-0.00614097 0.00152277 0.0821697)
(0.00913012 -0.00239488 0.0825594)
(0.00485574 -0.00301849 0.0861785)
(0.00218291 -0.00231929 0.0866607)
(0.00139029 -0.00199353 0.0863351)
(0.000856621 -0.00171676 0.0861141)
(0.000710976 -0.00148538 0.0860395)
(0.000426212 -0.00131597 0.086022)
(0.000328271 -0.0011741 0.0860542)
(0.000173046 -0.00108923 0.0861229)
(0.000122378 -0.00104131 0.0862104)
(1.28034e-05 -0.00102834 0.0863044)
(-0.00486878 -0.00406102 0.0593952)
(0.0122259 -0.00424338 0.0852957)
(0.00573477 -0.00409157 0.0861259)
(0.00327004 -0.00419852 0.088255)
(0.0019917 -0.00354532 0.0876567)
(0.00117705 -0.00289901 0.0869785)
(0.000975687 -0.00228778 0.0865944)
(0.000514947 -0.00184309 0.0863518)
(0.000378005 -0.0015389 0.0862926)
(0.000161461 -0.00135485 0.0863565)
(0.00014198 -0.00126915 0.0864699)
(2.66049e-05 -0.00125078 0.0865855)
(-0.00292647 0.00297616 0.0617914)
(0.00957151 -0.00595378 0.0910915)
(0.00422291 -0.00549593 0.0874772)
(0.00345037 -0.00602523 0.0889184)
(0.00205869 -0.00542652 0.0887784)
(0.00180028 -0.00409515 0.0878934)
(0.000869426 -0.00305308 0.0870875)
(0.000539875 -0.00235273 0.0867619)
(0.000116585 -0.00196767 0.0867256)
(0.000164016 -0.00183108 0.086862)
(5.43556e-05 -0.00182555 0.0870066)
(-0.00368827 -0.000267791 0.0622598)
(0.00683867 0.00272474 0.0863381)
(0.00588375 -0.00483359 0.0868272)
(0.00347738 -0.00604256 0.0874565)
(0.00338705 -0.00550745 0.08861)
(0.00202249 -0.00484733 0.0883962)
(0.00122263 -0.00379662 0.0878437)
(0.000232886 -0.00298062 0.0877913)
(0.000194827 -0.00275331 0.0881082)
(0.000107017 -0.0027225 0.0883931)
(-0.00638372 0.00667169 0.0746706)
(0.00340325 -0.00185695 0.0866985)
(0.0074433 -0.00337929 0.0852072)
(0.00403281 -0.00308282 0.0863952)
(0.00251212 -0.00432494 0.08807)
(3.16178e-05 -0.00472734 0.0897907)
(-0.000234955 -0.0052576 0.0904849)
(-7.60136e-06 -0.00538609 0.0906719)
(0.000225612 0.00581632 0.0542488)
(0.00092955 0.0115922 0.0768346)
(0.00721213 0.0119941 0.0843486)
(0.00578237 -0.00245406 0.0852514)
(-0.00198625 -0.00141782 0.0878119)
(-0.00253737 -0.00492722 0.0899547)
(-0.000843918 -0.00756125 0.0900566)
(0.00137796 0.00280505 0.0612026)
(-0.0184897 0.00852967 0.0628415)
(-0.00952829 -0.0014887 0.084821)
(-0.00247905 -0.000101223 0.0858225)
(-0.00642429 0.000899495 0.0582787)
(0.0517852 0.000763455 0.121772)
(0.0229275 0.000538136 0.144325)
(0.0158506 2.98683e-05 0.139721)
(0.00951442 -0.000169151 0.13473)
(0.00796903 -0.000299516 0.134335)
(0.00570458 -0.000279388 0.133758)
(0.00467109 -0.000280924 0.133727)
(0.00355528 -0.000260715 0.133511)
(0.00286328 -0.00024901 0.133498)
(0.00217629 -0.000237589 0.133421)
(0.00164881 -0.000228413 0.133417)
(0.00113032 -0.000222677 0.133389)
(0.000676205 -0.000218047 0.13339)
(0.000216862 -0.000215509 0.133384)
(-0.00577155 0.00220158 0.0526502)
(0.0467851 0.000910698 0.123298)
(0.0204189 0.0004164 0.146359)
(0.0148922 -0.00136496 0.140752)
(0.00924464 -0.00146997 0.135131)
(0.0078973 -0.0014725 0.134491)
(0.00573655 -0.00118681 0.133872)
(0.00469417 -0.00104286 0.133781)
(0.00358882 -0.000907663 0.133546)
(0.00288703 -0.000825023 0.133517)
(0.00219718 -0.000767472 0.133435)
(0.00166376 -0.00072434 0.133428)
(0.00114053 -0.000700582 0.133398)
(0.00068246 -0.000681991 0.133397)
(0.000218821 -0.000675222 0.13339)
(-0.00274276 -0.000265263 0.0240958)
(0.0384357 -0.00448917 0.136286)
(0.0189256 0.000601214 0.152486)
(0.0142955 -0.00225082 0.142953)
(0.0096664 -0.00199092 0.135493)
(0.00832936 -0.00221431 0.134432)
(0.00616196 -0.00182983 0.133869)
(0.00495992 -0.00165508 0.133772)
(0.00377807 -0.00147505 0.133542)
(0.00300556 -0.00135737 0.133513)
(0.00227828 -0.00127722 0.133432)
(0.00171624 -0.00120873 0.133427)
(0.0011729 -0.00117257 0.133398)
(0.000701473 -0.00114024 0.133397)
(0.000224249 -0.00112956 0.133389)
(0.0246054 -0.0214204 0.116523)
(0.0216861 -0.0111574 0.152379)
(0.0131977 -0.00754141 0.147312)
(0.0095487 -0.00469549 0.137568)
(0.00808895 -0.00382265 0.134794)
(0.00630924 -0.00300327 0.134081)
(0.00505205 -0.00253897 0.133897)
(0.00388916 -0.00222865 0.133636)
(0.00308617 -0.00200916 0.133571)
(0.00234696 -0.00188519 0.133476)
(0.00176884 -0.00176913 0.133466)
(0.00120907 -0.00171574 0.133429)
(0.000725095 -0.00166361 0.133427)
(0.00022994 -0.0016477 0.133417)
(-0.00878579 -0.0153525 0.0953996)
(0.0341673 -0.013296 0.12226)
(0.0226654 -0.00896439 0.148665)
(0.0133445 -0.00605718 0.140702)
(0.00985892 -0.00465185 0.135305)
(0.00740921 -0.00385228 0.134031)
(0.00572146 -0.00328326 0.133886)
(0.00430374 -0.00295706 0.133642)
(0.00334772 -0.0026624 0.133581)
(0.00251827 -0.0025189 0.133481)
(0.00188569 -0.00234783 0.133476)
(0.00127802 -0.00227833 0.133433)
(0.000768898 -0.00219783 0.133434)
(0.000239595 -0.00217542 0.133421)
(-0.00373754 0.00337701 0.0457758)
(0.0366519 -0.0258142 0.105912)
(0.0293113 -0.016041 0.149777)
(0.0151134 -0.00909755 0.146305)
(0.00999587 -0.00628244 0.137287)
(0.0075572 -0.00518701 0.134441)
(0.00591394 -0.0043579 0.134069)
(0.00450019 -0.00397434 0.13381)
(0.00352165 -0.0035238 0.133715)
(0.00266145 -0.00334906 0.133582)
(0.00200942 -0.00308796 0.133571)
(0.00135794 -0.0030063 0.133514)
(0.000826616 -0.0028882 0.133517)
(0.00025099 -0.00286244 0.133498)
(-0.00283705 -0.0194978 0.116597)
(0.0387861 -0.01215 0.122954)
(0.0243748 -0.00860296 0.148663)
(0.0135074 -0.00681627 0.140802)
(0.00918432 -0.00614014 0.135228)
(0.00689277 -0.00536219 0.13418)
(0.00512921 -0.00513104 0.133885)
(0.00397289 -0.00450316 0.13381)
(0.00295681 -0.0043055 0.133644)
(0.00222977 -0.00389176 0.133635)
(0.00147642 -0.00377883 0.133544)
(0.00091055 -0.00359075 0.133545)
(0.000263241 -0.00355384 0.133512)
(-0.00300081 0.00547133 0.0506028)
(0.0406889 -0.02335 0.113361)
(0.0298468 -0.0152104 0.151156)
(0.0141007 -0.00890963 0.146047)
(0.00897706 -0.00834657 0.137544)
(0.00686031 -0.00687051 0.134818)
(0.00535888 -0.00689871 0.134184)
(0.00435554 -0.00591948 0.134071)
(0.00328269 -0.00572498 0.13389)
(0.00254025 -0.00505583 0.133899)
(0.00165637 -0.00496135 0.133776)
(0.00104661 -0.00469718 0.133781)
(0.000283791 -0.0046694 0.133729)
(-0.000280686 -0.0150759 0.103525)
(0.0361996 -0.00835199 0.124003)
(0.0208209 -0.00901072 0.149292)
(0.0110649 -0.0110797 0.142822)
(0.00833774 -0.00898588 0.137545)
(0.00614132 -0.00919025 0.135234)
(0.00518797 -0.00756202 0.134445)
(0.00385396 -0.00741297 0.134036)
(0.00300672 -0.00631353 0.134084)
(0.00183209 -0.00616389 0.133874)
(0.00119275 -0.00574093 0.133872)
(0.000283733 -0.00570196 0.133761)
(-0.00842518 0.00372918 0.0336213)
(0.0248112 -0.0199884 0.118795)
(0.0165795 -0.0167022 0.154822)
(0.00900371 -0.0208726 0.149309)
(0.00890326 -0.0141269 0.146062)
(0.00681613 -0.0135224 0.140814)
(0.00628285 -0.0100044 0.137294)
(0.0046523 -0.00986476 0.135314)
(0.00382626 -0.00809494 0.1348)
(0.00221574 -0.00833266 0.134441)
(0.00148074 -0.00790346 0.134493)
(0.000304441 -0.00796649 0.13434)
(0.00217431 -0.0292821 0.0619275)
(0.0199396 -0.0247802 0.1189)
(0.00845314 -0.0362001 0.124041)
(0.0152532 -0.0298467 0.151175)
(0.00862635 -0.0243814 0.148675)
(0.00910901 -0.0151164 0.146311)
(0.00606206 -0.0133482 0.140711)
(0.00470188 -0.00955559 0.137575)
(0.00199351 -0.00966882 0.135506)
(0.00148176 -0.00925602 0.135137)
(0.00017688 -0.00950926 0.134737)
(0.00233612 -0.0317399 0.0619649)
(0.00433694 -0.0275158 0.116045)
(0.0233575 -0.0406737 0.113373)
(0.0121457 -0.0387825 0.122965)
(0.0160422 -0.029309 0.149784)
(0.00896089 -0.0226666 0.148676)
(0.00754667 -0.0132035 0.147323)
(0.00224735 -0.0143017 0.142977)
(0.00138096 -0.0149066 0.140764)
(-1.87194e-05 -0.0158486 0.139738)
(-0.00322786 -0.00619284 0.0952289)
(0.00250795 -0.0300669 0.110391)
(0.0258164 -0.0366535 0.105912)
(0.0132941 -0.0341725 0.122264)
(0.0111596 -0.0216976 0.152391)
(-0.000606555 -0.018933 0.152515)
(-0.000399098 -0.0204656 0.14638)
(-0.00051468 -0.0229163 0.144341)
(-0.00349022 -0.000920068 0.0319262)
(0.00368469 -0.00265198 0.094859)
(0.0084246 -0.0226971 0.107401)
(0.0214321 -0.0246139 0.116529)
(0.00446506 -0.0384718 0.13632)
(-0.000892626 -0.0468411 0.123305)
(-0.000739119 -0.0517929 0.121802)
(-0.00349287 -0.0251218 0.0654618)
(-0.00459082 -0.0358185 0.0837611)
(-0.0103892 -0.0199398 0.116017)
(-0.00419748 -0.0256923 0.114237)
(-0.00595878 0.000430401 0.0303672)
(0.011378 0.000102174 0.0929743)
(0.00358605 0.000394131 0.124651)
(0.00912323 -0.000277969 0.108285)
(0.00720175 -0.000237065 0.10022)
(0.00759729 -0.000359348 0.0967922)
(0.00608144 -0.000330126 0.0949115)
(0.0055112 -0.000351528 0.0935431)
(0.00448055 -0.000338358 0.0926417)
(0.0037789 -0.000334682 0.0920423)
(0.00296841 -0.000326784 0.0916337)
(0.00229489 -0.000320109 0.0913642)
(0.00159716 -0.000315575 0.091185)
(0.000961957 -0.000311514 0.0910794)
(0.000311187 -0.000309465 0.0910295)
(-0.00618827 0.000609257 0.026875)
(0.0101134 -0.00211033 0.0925987)
(0.00272157 -0.00112362 0.124778)
(0.00849465 -0.00243846 0.108434)
(0.00713059 -0.00172887 0.100335)
(0.00749977 -0.00164006 0.096986)
(0.00608423 -0.00134055 0.0951078)
(0.00549983 -0.00125587 0.0936893)
(0.00449523 -0.00114614 0.0927532)
(0.00378915 -0.00108647 0.0921304)
(0.00298222 -0.00103954 0.0917085)
(0.00230567 -0.00100343 0.0914282)
(0.0016054 -0.000983106 0.0912426)
(0.000967144 -0.000966017 0.091132)
(0.000312028 -0.000959777 0.0910795)
(-0.00283128 -0.00128903 0.0125906)
(0.0106874 -0.00189411 0.102613)
(0.00450973 0.000991863 0.130338)
(0.00894285 -0.00275981 0.111434)
(0.00801827 -0.00210335 0.101266)
(0.00795691 -0.00233923 0.0975521)
(0.00645803 -0.0020089 0.0955944)
(0.00570169 -0.00196564 0.0940574)
(0.00464834 -0.00184352 0.0930187)
(0.00388455 -0.00177337 0.0923306)
(0.00305108 -0.00171564 0.0918715)
(0.0023511 -0.00166169 0.0915644)
(0.00163453 -0.00163354 0.0913635)
(0.000985258 -0.00160483 0.0912424)
(0.000316903 -0.00159521 0.0911857)
(0.00571441 -0.0040095 0.081023)
(0.00396946 -0.000198032 0.126308)
(0.00611441 -0.00373692 0.116374)
(0.00743733 -0.00338874 0.10315)
(0.00753581 -0.00339203 0.0980614)
(0.00645982 -0.00299276 0.0960546)
(0.00566532 -0.00284286 0.0945012)
(0.00468624 -0.002677 0.0933925)
(0.00391577 -0.00255251 0.0926283)
(0.00309343 -0.00247411 0.0921291)
(0.00238753 -0.00238717 0.0917865)
(0.00166228 -0.00235029 0.091565)
(0.00100548 -0.00230517 0.091428)
(0.000321347 -0.00229313 0.0913651)
(-0.00762812 0.001135 0.0341774)
(0.00645787 0.00137105 0.0994023)
(0.00653461 -0.00316701 0.124838)
(0.00775556 -0.00421326 0.110035)
(0.00815774 -0.00412914 0.100428)
(0.00701976 -0.00379215 0.0972011)
(0.0060323 -0.00360182 0.0953658)
(0.00494148 -0.00345343 0.0940623)
(0.00408693 -0.0032949 0.0931279)
(0.00321627 -0.00321687 0.0925402)
(0.00247493 -0.00309462 0.0921295)
(0.00171679 -0.00305156 0.0918718)
(0.00104262 -0.00298294 0.0917083)
(0.000328687 -0.00296729 0.0916344)
(-0.00588982 0.00119239 0.0237957)
(0.00970775 -0.00714237 0.0790898)
(0.00594983 -0.00394607 0.126263)
(0.00633049 -0.00492647 0.117104)
(0.00752241 -0.00506149 0.102911)
(0.00693902 -0.00476031 0.0980904)
(0.00602307 -0.00450703 0.0961354)
(0.00500034 -0.00437474 0.0948622)
(0.00415239 -0.00415581 0.0937917)
(0.00329371 -0.00408919 0.0931284)
(0.002553 -0.00391857 0.0926285)
(0.00177444 -0.00388572 0.092331)
(0.00109014 -0.00379101 0.0921305)
(0.000336719 -0.00377799 0.0920429)
(-0.00890894 0.000683018 0.0371177)
(0.00762345 0.000330858 0.0999739)
(0.0064481 -0.00396006 0.125452)
(0.0076809 -0.00567347 0.109975)
(0.00741097 -0.00559086 0.100965)
(0.0064192 -0.00539516 0.0976548)
(0.00530257 -0.00530625 0.096206)
(0.00437247 -0.00500501 0.0948621)
(0.00345346 -0.00494499 0.0940627)
(0.00267891 -0.00469033 0.0933925)
(0.00184561 -0.00465017 0.093019)
(0.00115132 -0.00449816 0.092753)
(0.000341584 -0.00447908 0.0926418)
(-0.00540486 0.00081726 0.0272789)
(0.0106999 -0.007888 0.0827575)
(0.00675119 -0.00418649 0.126521)
(0.00632148 -0.0057774 0.116477)
(0.00696113 -0.00634377 0.104287)
(0.0062353 -0.00624857 0.099098)
(0.00539041 -0.00642723 0.097656)
(0.00450378 -0.00603081 0.0961363)
(0.00360119 -0.00603787 0.0953666)
(0.00284502 -0.00567099 0.0945016)
(0.00196787 -0.00570474 0.094058)
(0.00126282 -0.00550372 0.0936894)
(0.000355728 -0.00550944 0.0935438)
(-0.00641471 0.000273735 0.0406563)
(0.00785537 0.000209591 0.0998002)
(0.00593189 -0.00495865 0.124323)
(0.00684693 -0.00687755 0.114221)
(0.00633449 -0.00697623 0.104284)
(0.00559199 -0.00741913 0.100966)
(0.0047607 -0.00694567 0.0980915)
(0.00379432 -0.00702461 0.0972029)
(0.00299721 -0.00646595 0.0960561)
(0.00201275 -0.00646079 0.0955954)
(0.00135056 -0.00608953 0.0951088)
(0.000336654 -0.00607833 0.0949122)
(-0.00645976 -0.00129446 0.019468)
(0.00474726 -0.00765006 0.0779611)
(0.00441464 -0.00450367 0.127488)
(0.00494238 -0.00598467 0.124328)
(0.00578034 -0.00634314 0.116483)
(0.0056761 -0.00769395 0.109981)
(0.00506249 -0.00753019 0.102915)
(0.00412937 -0.00816328 0.100432)
(0.00339635 -0.00754277 0.098065)
(0.0023423 -0.00796105 0.0975555)
(0.00165296 -0.00750685 0.0969888)
(0.00036743 -0.00759533 0.0967939)
(0.000187845 -0.013696 0.0129403)
(0.00763518 -0.00471755 0.0781547)
(-0.000161891 -0.00784488 0.099865)
(0.00421689 -0.00674621 0.126564)
(0.0039768 -0.00644968 0.125474)
(0.00493518 -0.00633111 0.117114)
(0.00421652 -0.00775748 0.110044)
(0.00339459 -0.00744368 0.103157)
(0.00210722 -0.00802046 0.101273)
(0.00174524 -0.00714266 0.100343)
(0.00024964 -0.00719551 0.100221)
(0.00533514 -0.00998607 0.0140298)
(-0.0020963 1.96214e-05 0.0263009)
(0.00788044 -0.0106857 0.0827575)
(-0.000336181 -0.00761958 0.0999839)
(0.0039447 -0.00594721 0.126269)
(0.00316091 -0.00653499 0.124847)
(0.00374031 -0.00611915 0.116385)
(0.00275676 -0.00894805 0.111449)
(0.00246057 -0.0085066 0.108452)
(0.000294607 -0.00912153 0.108292)
(-0.002343 0.00159619 0.03738)
(-0.00523613 0.0012536 0.028062)
(0.00714263 -0.00970892 0.0790915)
(-0.00137461 -0.00646197 0.0994074)
(0.000196574 -0.00397901 0.126323)
(-0.00099631 -0.00451089 0.130362)
(0.00114834 -0.00274858 0.124809)
(-0.000364526 -0.00357317 0.124661)
(-0.00315061 0.00108748 0.0237806)
(-0.00184947 0.00231433 0.0408474)
(-0.00437436 0.00193512 0.028019)
(0.00401574 -0.0057207 0.0810348)
(0.00187696 -0.010711 0.102626)
(0.00213992 -0.0101438 0.0926228)
(-8.02724e-05 -0.011394 0.0929806)
(-0.00369833 -0.00786693 0.0213349)
(0.00375548 -0.00600428 0.0264283)
(-0.000976445 0.00265153 0.03333)
(-0.000347888 0.00299938 0.0317241)
(-0.00520278 5.54588e-05 0.0231529)
(-0.002317 0.000331677 0.0892204)
(0.00234675 0.000196665 0.119142)
(0.00766566 -0.000192589 0.110305)
(0.0065651 -0.000158447 0.10871)
(0.0065143 -0.000278653 0.107263)
(0.00527631 -0.000271699 0.106421)
(0.00478733 -0.00029979 0.105442)
(0.00390204 -0.000290756 0.104839)
(0.0033095 -0.000290622 0.104354)
(0.00260859 -0.000285429 0.10402)
(0.00203202 -0.000281549 0.103773)
(0.00141716 -0.00027878 0.103606)
(0.000858671 -0.000276389 0.103501)
(0.000275787 -0.00027412 0.103452)
(-0.0048937 -0.000423305 0.0207622)
(-0.00221469 -0.00124467 0.089213)
(0.00179284 -0.00142852 0.118726)
(0.00731038 -0.00190877 0.1103)
(0.00647213 -0.00132401 0.108761)
(0.00640149 -0.00129512 0.107454)
(0.00525354 -0.00111652 0.106568)
(0.00476616 -0.00107669 0.105547)
(0.00390931 -0.000993637 0.104919)
(0.00331334 -0.000950344 0.104424)
(0.00261661 -0.000914434 0.104083)
(0.00203796 -0.000888039 0.10383)
(0.0014221 -0.000873852 0.103659)
(0.000861939 -0.000860949 0.103551)
(0.000277146 -0.000857183 0.103501)
(-0.00131562 -0.00149934 0.0103155)
(-0.00148798 -0.00101294 0.0965358)
(0.00273989 -0.000620651 0.123072)
(0.00777419 -0.00275392 0.112521)
(0.00711453 -0.00189377 0.109344)
(0.00671943 -0.00196069 0.107975)
(0.00549867 -0.00171084 0.106983)
(0.00490819 -0.00169997 0.10585)
(0.00402705 -0.00160001 0.105129)
(0.00338794 -0.00154791 0.10459)
(0.00267056 -0.00150196 0.104225)
(0.0020724 -0.00146251 0.103955)
(0.00144419 -0.00144315 0.103775)
(0.000875337 -0.00142163 0.10366)
(0.000280233 -0.00141563 0.103605)
(-0.00165859 0.00232884 0.0757248)
(0.00145262 0.000147618 0.118842)
(0.00597202 -0.00308417 0.115079)
(0.00706797 -0.00291787 0.109615)
(0.00659803 -0.00281431 0.108003)
(0.00553555 -0.00252431 0.107234)
(0.00487473 -0.00244705 0.10616)
(0.00405759 -0.00231894 0.10539)
(0.00340971 -0.00222547 0.104815)
(0.00270152 -0.00216278 0.104434)
(0.00209655 -0.00209625 0.104145)
(0.00146298 -0.00207145 0.103955)
(0.000889508 -0.00203755 0.10383)
(0.000282974 -0.00203026 0.103772)
(-0.00587266 0.00128075 0.0292086)
(-0.00215433 0.00107042 0.0930903)
(0.00411072 -0.00315968 0.119021)
(0.00679527 -0.00384135 0.112449)
(0.00709639 -0.00358658 0.108752)
(0.00592433 -0.00323274 0.107825)
(0.0051212 -0.00310889 0.106765)
(0.00424324 -0.00298721 0.105876)
(0.00354127 -0.00286639 0.105193)
(0.00279933 -0.00279944 0.104763)
(0.00216373 -0.00270224 0.104434)
(0.0015031 -0.00267046 0.104226)
(0.000916734 -0.0026171 0.104083)
(0.000287381 -0.00260739 0.10402)
(-0.00347937 0.000913474 0.0185088)
(-0.00103829 0.00134364 0.0732236)
(0.00113997 -0.0020647 0.118547)
(0.00574965 -0.00380459 0.115582)
(0.00698583 -0.00423123 0.109225)
(0.00607101 -0.00393047 0.107994)
(0.00514648 -0.00382714 0.107244)
(0.00429805 -0.00373651 0.106426)
(0.00359439 -0.00359676 0.105663)
(0.00286569 -0.00354244 0.105194)
(0.00222599 -0.00341152 0.104817)
(0.0015486 -0.0033885 0.104591)
(0.000952922 -0.00331467 0.104424)
(0.000292485 -0.00330833 0.104354)
(-0.0084519 0.0020935 0.0312564)
(-0.00201296 0.000125272 0.0920677)
(0.00357108 -0.00375705 0.119169)
(0.00643243 -0.0049087 0.112135)
(0.00629865 -0.00468268 0.108972)
(0.00535237 -0.00456849 0.108027)
(0.00448138 -0.00448283 0.107323)
(0.00373526 -0.00430094 0.106427)
(0.00298763 -0.00424498 0.105878)
(0.00232049 -0.00406044 0.105392)
(0.00160164 -0.00402791 0.10513)
(0.000997662 -0.00391143 0.10492)
(0.000293428 -0.0039001 0.104838)
(-0.00432475 -1.10682e-05 0.0209028)
(-0.00115513 0.00125815 0.0757088)
(0.00166143 -0.00190361 0.119114)
(0.0053841 -0.00452614 0.115464)
(0.00612321 -0.00515769 0.109816)
(0.00531615 -0.00533039 0.108356)
(0.00456526 -0.00535795 0.108027)
(0.00382423 -0.00515199 0.107246)
(0.00310821 -0.00512439 0.106768)
(0.00244846 -0.0048788 0.106163)
(0.00170139 -0.00490943 0.105852)
(0.00108206 -0.00476879 0.105549)
(0.000303013 -0.00478497 0.105442)
(-0.00564057 0.000804253 0.0320317)
(-0.00162938 -0.000316433 0.0926051)
(0.00294936 -0.00392932 0.118742)
(0.0053027 -0.00531828 0.11375)
(0.00515077 -0.00613011 0.109819)
(0.00468927 -0.0063013 0.108976)
(0.00393205 -0.00607459 0.107999)
(0.00323486 -0.00592678 0.10783)
(0.00252788 -0.00553932 0.107238)
(0.00171394 -0.00549913 0.106986)
(0.00112418 -0.0052574 0.106571)
(0.000276142 -0.00527255 0.106421)
(-0.00448513 -0.00115872 0.014752)
(-0.00155929 0.000543279 0.0724145)
(0.00204989 -0.00209575 0.120254)
(0.00391596 -0.00297447 0.118757)
(0.00452193 -0.00538994 0.115475)
(0.00491139 -0.00643981 0.112144)
(0.0042308 -0.00699032 0.109231)
(0.00358624 -0.00709936 0.108758)
(0.00281783 -0.00660207 0.10801)
(0.00196209 -0.00672093 0.107981)
(0.00130469 -0.0064065 0.107459)
(0.000283461 -0.0065113 0.107264)
(0.0027009 -0.0120308 0.0147456)
(-0.000564697 0.00158036 0.072494)
(0.000339118 0.00163781 0.0926366)
(0.00191898 -0.0016582 0.119143)
(0.00376846 -0.00357242 0.119187)
(0.00381143 -0.00575044 0.115592)
(0.00384399 -0.00679648 0.112459)
(0.00292303 -0.0070727 0.109624)
(0.00189602 -0.00711523 0.109352)
(0.00133602 -0.00648179 0.108771)
(0.000165453 -0.00655769 0.108711)
(0.00455813 -0.00907015 0.0171228)
(-4.81815e-05 -0.00139659 0.0249506)
(-0.00126758 0.0011663 0.0757118)
(-0.000127211 0.00201627 0.0920749)
(0.00206282 -0.00113738 0.118554)
(0.00315474 -0.00411049 0.11903)
(0.00308794 -0.00597585 0.115091)
(0.00275032 -0.00777745 0.112533)
(0.0019263 -0.00731925 0.110319)
(0.000200728 -0.00766191 0.110306)
(-0.00235107 0.00197561 0.0293198)
(-0.00377879 -0.000476535 0.025087)
(-0.00134386 0.00103819 0.0732287)
(-0.00107407 0.00215156 0.0930981)
(-0.000148659 -0.00145796 0.118858)
(0.000617116 -0.00273704 0.123096)
(0.00144789 -0.00181528 0.118759)
(-0.00017908 -0.00232635 0.119149)
(-0.00275837 0.00113322 0.0173456)
(-0.00268727 0.00231123 0.0322012)
(-0.00287296 -0.000459501 0.0260858)
(-0.00232614 0.00165744 0.0757379)
(0.000990058 0.00148049 0.0965478)
(0.00127863 0.00220901 0.0892438)
(-0.000316324 0.00230694 0.0892115)
(-0.00254968 -0.00705363 0.0214216)
(0.00303819 -0.00739854 0.0241118)
(-0.00106685 0.00175693 0.0300394)
(-0.000105788 0.00150751 0.0270662)
(-0.00522491 6.66506e-07 0.0225199)
(-0.000795382 0.000215837 0.0925693)
(0.00313088 0.000129097 0.118686)
(0.00478136 -4.86294e-05 0.114005)
(0.00409285 -5.76262e-05 0.113033)
(0.00430656 -0.000184417 0.11108)
(0.00384177 -0.000197862 0.109856)
(0.0036563 -0.000230053 0.108631)
(0.00309951 -0.000230175 0.107908)
(0.00269606 -0.000236531 0.1073)
(0.0021621 -0.000235945 0.106898)
(0.00170398 -0.000235552 0.106584)
(0.00119567 -0.000234539 0.106378)
(0.000729234 -0.000233732 0.106242)
(0.000233892 -0.000232038 0.106179)
(-0.0049379 -0.000677314 0.0203529)
(-0.00068143 -0.000468637 0.0927497)
(0.0027376 -0.000781929 0.118744)
(0.00455319 -0.000892469 0.114221)
(0.00396542 -0.000693175 0.113277)
(0.00417547 -0.000829794 0.111359)
(0.00379673 -0.00080259 0.110027)
(0.00362297 -0.000817032 0.108753)
(0.00309198 -0.000783921 0.108005)
(0.00268927 -0.000771256 0.107386)
(0.00216216 -0.000756125 0.106975)
(0.00170463 -0.000743149 0.106655)
(0.00119724 -0.000736535 0.106445)
(0.000730236 -0.000729197 0.106306)
(0.000234602 -0.000727635 0.106242)
(-0.00134881 -0.00166916 0.0105349)
(-0.000748919 -0.000843164 0.0989256)
(0.00277182 -0.000690944 0.122706)
(0.00470153 -0.00150919 0.116112)
(0.00415932 -0.00100603 0.114034)
(0.00422596 -0.00124123 0.112064)
(0.00386132 -0.00121609 0.110523)
(0.00367418 -0.00128199 0.109101)
(0.00314534 -0.00125206 0.108255)
(0.00272381 -0.00124661 0.107591)
(0.00219008 -0.00123233 0.107152)
(0.00172348 -0.00121576 0.106813)
(0.00120959 -0.00120852 0.106592)
(0.000738133 -0.00119668 0.106445)
(0.000236173 -0.00119428 0.106378)
(-0.000785697 0.000924869 0.078886)
(0.00215595 -0.000692035 0.119684)
(0.00397788 -0.00176183 0.118113)
(0.00422679 -0.00159131 0.114408)
(0.00403524 -0.00168939 0.112445)
(0.00376734 -0.00172688 0.110976)
(0.00357993 -0.00180203 0.109498)
(0.00312458 -0.00178153 0.108569)
(0.00270848 -0.00176762 0.107865)
(0.00219285 -0.00175397 0.107403)
(0.00172833 -0.00172783 0.107044)
(0.00121631 -0.00172236 0.106813)
(0.0007445 -0.00170421 0.106656)
(0.000236617 -0.00170254 0.106585)
(-0.00590784 0.00127415 0.0302949)
(-0.000533085 -0.000549563 0.0946235)
(0.00329497 -0.00211528 0.119435)
(0.00416613 -0.00220863 0.116022)
(0.00422068 -0.00210987 0.113219)
(0.00378403 -0.00213301 0.111799)
(0.0036064 -0.00223328 0.110231)
(0.0031705 -0.00224573 0.109136)
(0.00274927 -0.00223352 0.108323)
(0.00222967 -0.00222929 0.107808)
(0.0017551 -0.00219314 0.107404)
(0.00123332 -0.00218954 0.107152)
(0.000758045 -0.00216242 0.106976)
(0.000237508 -0.00216087 0.106899)
(-0.00338342 0.000549543 0.0185112)
(-0.000492627 0.000703637 0.0759609)
(0.00187931 -0.00171329 0.118706)
(0.00401471 -0.00209704 0.118012)
(0.00422627 -0.00242385 0.113773)
(0.00372439 -0.00241538 0.112358)
(0.0034654 -0.00262312 0.110972)
(0.00311175 -0.00270229 0.109806)
(0.0027213 -0.00272264 0.108886)
(0.00223323 -0.00274962 0.108324)
(0.00176829 -0.00270955 0.107867)
(0.00124719 -0.00272386 0.107592)
(0.000773291 -0.00269002 0.107387)
(0.000237827 -0.00269475 0.107301)
(-0.00874465 0.00184017 0.0324739)
(-0.000555201 -0.000986575 0.0931884)
(0.00296528 -0.00245419 0.119223)
(0.00388091 -0.00281365 0.115513)
(0.00368882 -0.00275274 0.113342)
(0.00335082 -0.00293186 0.112054)
(0.00306753 -0.00306901 0.110907)
(0.0027019 -0.00311384 0.109808)
(0.00224637 -0.00317123 0.109138)
(0.00178297 -0.00312637 0.108571)
(0.00125337 -0.00314535 0.108257)
(0.000787194 -0.00309335 0.108007)
(0.000232152 -0.00309749 0.107908)
(-0.00463393 -0.000424245 0.0200691)
(-0.00067382 0.000791939 0.0783055)
(0.00207017 -0.00159204 0.119367)
(0.00358028 -0.00260564 0.117912)
(0.00356685 -0.00295572 0.114146)
(0.00317162 -0.0031801 0.112881)
(0.00292924 -0.00335296 0.112055)
(0.00262225 -0.00346876 0.110976)
(0.0022333 -0.0036079 0.110235)
(0.00180345 -0.00358254 0.109502)
(0.001283 -0.00367425 0.109104)
(0.000821075 -0.00362462 0.108756)
(0.000232128 -0.00365412 0.108631)
(-0.00584637 0.000513245 0.0326946)
(-0.000604834 -0.00107019 0.0941969)
(0.00220396 -0.00222181 0.119188)
(0.00303322 -0.00303743 0.116415)
(0.00295229 -0.00357002 0.114162)
(0.00275598 -0.00368881 0.113352)
(0.00241611 -0.00372634 0.112367)
(0.0021347 -0.00378507 0.111806)
(0.00172987 -0.00376944 0.110982)
(0.0012184 -0.00386086 0.110528)
(0.000808087 -0.00379913 0.110032)
(0.000200564 -0.00383855 0.109856)
(-0.00440173 -0.00172099 0.0150619)
(-0.000771204 0.000682799 0.0749431)
(0.00199102 -0.0020196 0.119763)
(0.00221564 -0.00221424 0.119202)
(0.0026028 -0.00358519 0.117932)
(0.00281592 -0.00388607 0.115524)
(0.00242347 -0.00422914 0.113782)
(0.00211001 -0.00422228 0.113226)
(0.00169242 -0.00403741 0.112454)
(0.00124197 -0.00422621 0.112071)