/*--------------------------------*- C++ -*----------------------------------*\
| =========                 |                                                 |
| \\      /  F ield         | OpenFOAM: The Open Source CFD Toolbox           |
|  \\    /   O peration     | Version:  2.1.1                                 |
|   \\  /    A nd           | Web:      www.OpenFOAM.org                      |
|    \\/     M anipulation  |                                                 |
\*---------------------------------------------------------------------------*/
FoamFile
{
    version     2.0;
    format      ascii;
    class       volVectorField;
    location    "0.003";
    object      U;
}
// * * * * * * * * * * * * * * * * * * * * * * * * * * * * * * * * * * * * * //

dimensions      [0 1 -1 0 0 0 0];

internalField   nonuniform List<vector> 
10343
(
(-0.0131536 0.00496595 0.0631328)
(-0.00132438 0.000561561 0.0725044)
(0.0023078 -0.00721586 0.0533663)
(-0.00454814 -0.0068857 0.0628911)
(0.00247868 -0.00536562 0.0795897)
(-0.00212663 -0.00768052 0.0804154)
(-0.00428171 0.0140195 0.0813696)
(-0.00133389 0.0160808 0.0804745)
(0.000959345 -0.00404333 0.0557908)
(-0.00127708 -0.00886185 0.0774779)
(0.00696765 0.00411061 0.0800568)
(0.00250169 0.00534967 0.0777878)
(0.00204698 0.00297916 0.0805666)
(-6.36203e-08 0.00202002 0.08318)
(-0.000113871 0.00508025 0.0838953)
(6.84448e-05 0.00662395 0.0840052)
(-0.00495711 -0.000175381 0.0621041)
(0.00197549 0.00769374 0.0821438)
(0.00157459 0.00806334 0.0786321)
(0.00443238 0.00603474 0.0802494)
(0.00311292 0.00429942 0.0823381)
(0.0022527 0.00297111 0.083739)
(0.000666049 0.0023336 0.0845133)
(0.000230378 0.00265944 0.0847596)
(6.32562e-05 0.00298128 0.0847683)
(-0.000968183 0.00284616 0.0771249)
(0.00224946 0.00937456 0.0812491)
(0.00317479 0.00698357 0.080895)
(0.00308167 0.00538167 0.0825585)
(0.00291902 0.00388411 0.0834842)
(0.00187466 0.00272151 0.0839791)
(0.00122881 0.00197919 0.0842731)
(0.000454935 0.00148198 0.0845415)
(0.000198662 0.00129877 0.084685)
(2.22338e-05 0.00126811 0.0847394)
(0.00285191 -0.000961727 0.0771112)
(0.00390841 0.00390381 0.0843243)
(0.00379195 0.00515404 0.0838242)
(0.0024612 0.0037838 0.0840699)
(0.00179938 0.00287451 0.0841583)
(0.00155073 0.00217682 0.0842061)
(0.00104616 0.0017651 0.0843236)
(0.000743071 0.00144972 0.0844558)
(0.000354781 0.00127561 0.0846121)
(0.000186505 0.00115474 0.0847154)
(2.93992e-05 0.00111705 0.0847913)
(-0.000171938 -0.00495591 0.0620989)
(0.00938256 0.0022549 0.0812451)
(0.00514889 0.00380179 0.0838172)
(0.00236739 0.00237415 0.0845812)
(0.00159761 0.00187813 0.0843142)
(0.00116045 0.00159221 0.0842887)
(0.000998012 0.00133518 0.0843436)
(0.00070083 0.00119266 0.0844531)
(0.000533218 0.00105468 0.084588)
(0.000291257 0.000953859 0.0847138)
(0.000166753 0.000871268 0.0848107)
(2.85904e-05 0.000834717 0.0848872)
(-0.00404362 0.000956734 0.0557896)
(0.007695 0.00197293 0.0821428)
(0.00698682 0.00317363 0.0808923)
(0.00378142 0.00246516 0.0840659)
(0.00187505 0.00159991 0.0843136)
(0.00124914 0.00125027 0.0843023)
(0.000923133 0.00111901 0.0843687)
(0.000774049 0.000997663 0.084477)
(0.000565011 0.000927489 0.0845995)
(0.000435192 0.000850388 0.084717)
(0.000261814 0.000799717 0.0848206)
(0.000151176 0.000754295 0.0849057)
(2.76635e-05 0.000733012 0.0849804)
(-0.00886045 -0.0012783 0.0774775)
(0.00806451 0.00157355 0.0786313)
(0.00538279 0.00308145 0.0825565)
(0.00287373 0.0018011 0.0841563)
(0.00159164 0.00116239 0.0842884)
(0.00111851 0.000924138 0.0843683)
(0.000826287 0.00082687 0.0844889)
(0.000674185 0.000753749 0.0846118)
(0.00049844 0.000705927 0.0847208)
(0.000381565 0.000656542 0.084821)
(0.000239813 0.000621377 0.0849099)
(0.000137928 0.000590432 0.0849891)
(2.51739e-05 0.000573854 0.0850616)
(-0.00721583 0.00230817 0.0533665)
(0.00411071 0.00696717 0.0800565)
(0.00603558 0.00443139 0.0802485)
(0.00388441 0.0029187 0.0834824)
(0.00217723 0.00155104 0.0842049)
(0.00133529 0.000998568 0.0843427)
(0.000997619 0.000774388 0.0844765)
(0.000753486 0.000674369 0.0846116)
(0.000608327 0.000608329 0.084725)
(0.000456237 0.000568076 0.0848222)
(0.000347219 0.00053268 0.0849115)
(0.000224757 0.00050895 0.0849928)
(0.000127944 0.000488747 0.0850672)
(2.35422e-05 0.000477078 0.0851369)
(-0.0068858 -0.00454834 0.0628912)
(0.00534981 0.00250156 0.0777879)
(0.00429986 0.00311265 0.0823374)
(0.00272193 0.00187476 0.0839781)
(0.00176556 0.00104654 0.0843228)
(0.00119288 0.000701234 0.0844523)
(0.000927562 0.000565316 0.0845991)
(0.000705744 0.000498639 0.0847206)
(0.000568053 0.000456129 0.084822)
(0.000428833 0.000428735 0.0849107)
(0.000324729 0.000405402 0.0849931)
(0.000213349 0.000388379 0.0850685)
(0.00012001 0.000373843 0.0851387)
(2.21091e-05 0.000364838 0.0852056)
(-0.00536579 0.00247879 0.0795896)
(0.00297956 0.00204691 0.0805664)
(0.00297145 0.00225235 0.0837384)
(0.00197953 0.00122862 0.0842724)
(0.00145008 0.000743002 0.0844551)
(0.00105486 0.00053322 0.0845874)
(0.000850497 0.000435213 0.0847166)
(0.000656408 0.000381634 0.0848207)
(0.00053251 0.000347399 0.0849113)
(0.000405261 0.000324329 0.0849929)
(0.000306361 0.000305584 0.0850689)
(0.000203509 0.000292995 0.0851396)
(0.000114044 0.000282902 0.0852068)
(2.05807e-05 0.000276573 0.085271)
(-0.00768057 -0.00212684 0.0804154)
(0.0020204 -1.2357e-07 0.0831798)
(0.00233389 0.000665943 0.0845129)
(0.0014822 0.000454824 0.0845411)
(0.00127587 0.0003547 0.0846117)
(0.000954006 0.000291292 0.0847134)
(0.000799813 0.000261906 0.0848203)
(0.000621349 0.000239962 0.0849096)
(0.000508859 0.000224898 0.0849927)
(0.000388126 0.000213661 0.0850683)
(0.000293096 0.000203604 0.0851393)
(0.000195487 0.00019517 0.0852063)
(0.000109468 0.000188562 0.0852706)
(1.99297e-05 0.000184154 0.0853334)
(0.00496594 -0.0131537 0.0631328)
(0.0140195 -0.00428193 0.0813696)
(0.00508063 -0.000114084 0.0838951)
(0.00265974 0.00023014 0.0847593)
(0.00129895 0.000198441 0.0846848)
(0.00115492 0.000186356 0.0847153)
(0.000871376 0.000166632 0.0848103)
(0.000754369 0.000151101 0.0849054)
(0.000590417 0.0001379 0.0849889)
(0.000488703 0.000127963 0.085067)
(0.000373768 0.000120135 0.0851385)
(0.000283002 0.000114213 0.0852067)
(0.000188751 0.000109551 0.0852706)
(0.000104983 0.000105215 0.0853329)
(1.88842e-05 0.000102024 0.0853942)
(0.000561545 -0.00132439 0.0725044)
(0.0160807 -0.00133393 0.0804746)
(0.00662437 6.82855e-05 0.084005)
(0.00298166 6.31038e-05 0.0847683)
(0.00126838 2.21189e-05 0.0847393)
(0.0011172 2.9353e-05 0.0847912)
(0.000834778 2.8555e-05 0.084887)
(0.000733055 2.76536e-05 0.0849801)
(0.000573829 2.5217e-05 0.0850613)
(0.000477041 2.36366e-05 0.0851366)
(0.000364799 2.22426e-05 0.0852054)
(0.000276608 2.07103e-05 0.0852709)
(0.000184154 2.00063e-05 0.0853333)
(0.00010195 1.89228e-05 0.0853943)
(1.65782e-05 1.66198e-05 0.0854548)
(-0.00588726 -0.00476419 0.0402483)
(-0.00215578 -0.00593467 0.0572097)
(0.00247399 -0.00505902 0.0343896)
(-0.00543844 -0.00582926 0.0588824)
(0.0214385 0.0246116 0.116535)
(0.00447042 0.0384678 0.136332)
(-0.000888178 0.0468382 0.123317)
(-0.000737181 0.0517854 0.121814)
(-0.000779703 -0.00662991 0.0369088)
(-0.00455711 -0.0100706 0.0785942)
(0.0258169 0.0366534 0.105921)
(0.013284 0.0341647 0.122272)
(0.0111439 0.0216745 0.152395)
(-0.000613233 0.0189008 0.15251)
(-0.000394864 0.020433 0.146376)
(-0.000511661 0.0228788 0.144336)
(-0.0113785 -0.00248862 0.0535645)
(0.023368 0.0406835 0.113383)
(0.0121489 0.0387831 0.122974)
(0.0160383 0.029292 0.149792)
(0.00895321 0.0226495 0.148677)
(0.00754325 0.0131981 0.147317)
(0.00225411 0.0143082 0.142966)
(0.00139167 0.0149155 0.140757)
(-1.4758e-05 0.0158546 0.139732)
(0.0199811 0.0248156 0.118888)
(0.00842298 0.0362182 0.124058)
(0.0152244 0.0298388 0.151183)
(0.00861267 0.024365 0.148679)
(0.00910489 0.0151047 0.146307)
(0.00606557 0.0133518 0.140702)
(0.00470935 0.00957338 0.137567)
(0.00200157 0.00969135 0.135499)
(0.00148761 0.0092747 0.135132)
(0.000177899 0.0095242 0.134731)
(0.0247969 0.0199648 0.118813)
(0.0166948 0.016663 0.154812)
(0.00900709 0.0208448 0.149294)
(0.0089126 0.0141165 0.146055)
(0.0068246 0.013525 0.140806)
(0.00629583 0.0100191 0.137288)
(0.00466331 0.00988459 0.135308)
(0.00383491 0.00811416 0.1348)
(0.00222039 0.00834898 0.134441)
(0.00148258 0.00791617 0.134494)
(0.000304175 0.00797786 0.134338)
(-0.00249102 -0.0113779 0.0535533)
(0.0361904 0.00844636 0.124011)
(0.0208126 0.00901286 0.149271)
(0.011075 0.0110877 0.142806)
(0.0083521 0.00899943 0.13754)
(0.00615043 0.00920922 0.13523)
(0.00519575 0.00757889 0.134444)
(0.00385773 0.00742593 0.134035)
(0.00300884 0.00632208 0.134083)
(0.00183281 0.0061704 0.13387)
(0.00119305 0.00574633 0.133868)
(0.00028348 0.00570821 0.133756)
(-0.00663037 -0.000776825 0.0369087)
(0.040676 0.0233473 0.113366)
(0.0298252 0.0152069 0.15115)
(0.0140987 0.00891112 0.146036)
(0.00899178 0.0083579 0.137531)
(0.00687913 0.00688163 0.134818)
(0.00536696 0.00690961 0.134182)
(0.0043615 0.00592712 0.134071)
(0.00328576 0.00573128 0.133887)
(0.00254332 0.00506176 0.133896)
(0.00165827 0.0049678 0.133771)
(0.00104823 0.00470392 0.133777)
(0.000284192 0.00467682 0.133725)
(-0.0100705 -0.00455692 0.0785935)
(0.0387809 0.012141 0.122963)
(0.024355 0.00860665 0.148664)
(0.0135132 0.0068242 0.140797)
(0.00920205 0.00615497 0.135226)
(0.00690449 0.00536944 0.134182)
(0.00513321 0.00513698 0.133883)
(0.00397639 0.00450755 0.133807)
(0.00295953 0.00431061 0.133639)
(0.0022325 0.00389673 0.133631)
(0.0014781 0.00378418 0.133539)
(0.000911847 0.00359576 0.133541)
(0.000263552 0.00355934 0.133508)
(-0.00505941 0.00247486 0.0343898)
(0.0366527 0.0258117 0.105917)
(0.0292912 0.0160282 0.149785)
(0.0151005 0.00909726 0.1463)
(0.0100136 0.0062925 0.137282)
(0.00757483 0.00519557 0.134439)
(0.00592413 0.00436173 0.134069)
(0.00450511 0.0039782 0.133805)
(0.00352687 0.0035282 0.133711)
(0.00266533 0.00335431 0.133577)
(0.00201279 0.00309308 0.133568)
(0.0013599 0.00301158 0.13351)
(0.000828469 0.00289315 0.133513)
(0.000251488 0.00286773 0.133494)
(-0.00582937 -0.00543831 0.0588829)
(0.0341658 0.0132819 0.12227)
(0.0226493 0.00894869 0.148674)
(0.0133492 0.0060624 0.140699)
(0.00988073 0.00466172 0.135305)
(0.0074226 0.00385816 0.134032)
(0.00572828 0.00328624 0.133886)
(0.00430802 0.00296092 0.133639)
(0.00335252 0.00266638 0.133578)
(0.00252178 0.00252289 0.133477)
(0.00188852 0.0023517 0.133472)
(0.00127951 0.00228236 0.133428)
(0.000770167 0.0022015 0.133429)
(0.000239661 0.00217938 0.133416)
(0.0246111 0.0214381 0.116535)
(0.0216749 0.0111413 0.152392)
(0.0131979 0.00753983 0.147315)
(0.00957195 0.00470659 0.137564)
(0.00811197 0.00383321 0.134797)
(0.00632004 0.00300841 0.13408)
(0.0050598 0.00254326 0.133894)
(0.00389496 0.00223325 0.13363)
(0.00309158 0.00201354 0.133567)
(0.00235063 0.00188943 0.133472)
(0.00177222 0.0017728 0.133462)
(0.00121085 0.00171947 0.133424)
(0.000726848 0.00166723 0.133423)
(0.000230047 0.00165152 0.133413)
(0.0384677 0.00447004 0.136333)
(0.0189007 -0.000614016 0.152509)
(0.0143081 0.00225274 0.142965)
(0.00969023 0.00200049 0.135498)
(0.00834736 0.00221968 0.13444)
(0.00616865 0.00183275 0.133869)
(0.00496597 0.00165834 0.133771)
(0.00378243 0.00147863 0.133539)
(0.00301001 0.00136039 0.13351)
(0.00228108 0.00128034 0.133428)
(0.00171857 0.00121137 0.133425)
(0.00117438 0.00117503 0.133393)
(0.000702862 0.00114274 0.133393)
(0.000224022 0.00113178 0.133385)
(-0.00476423 -0.00588739 0.0402484)
(0.0468377 -0.000888597 0.123316)
(0.0204328 -0.000395053 0.146375)
(0.014915 0.00139112 0.140755)
(0.00927383 0.00148718 0.135131)
(0.00791494 0.00148234 0.134492)
(0.00574502 0.00119317 0.133867)
(0.00470254 0.00104844 0.133776)
(0.00359443 0.000912339 0.13354)
(0.00289195 0.000828946 0.133512)
(0.0022005 0.00077085 0.133429)
(0.0016665 0.0007274 0.133423)
(0.0011422 0.000703467 0.133392)
(0.000683903 0.000684355 0.133391)
(0.000219276 0.000676439 0.133385)
(-0.00593467 -0.00215596 0.0572098)
(0.0517853 -0.000736749 0.121815)
(0.0228785 -0.000511428 0.144336)
(0.0158543 -1.46798e-05 0.139731)
(0.00952343 0.00017787 0.13473)
(0.00797673 0.000304061 0.134337)
(0.00570686 0.000283468 0.133755)
(0.00467535 0.000284081 0.133725)
(0.00355786 0.000263583 0.133508)
(0.00286636 0.000251431 0.133494)
(0.00217819 0.000239779 0.133416)
(0.00165055 0.000230046 0.133413)
(0.00113102 0.00022422 0.133385)
(0.000675823 0.000219324 0.133385)
(0.000217016 0.000217404 0.133378)
(-0.000462917 -0.00580455 0.0187982)
(-0.00078354 -0.00586 0.0293732)
(0.00146644 -0.00384211 0.0180462)
(-0.00574892 -0.00567493 0.0287324)
(0.00402189 0.00572247 0.0810639)
(0.00188289 0.0107135 0.102675)
(0.00214663 0.0101483 0.0926751)
(-7.92999e-05 0.0113966 0.0930387)
(0.000286708 -0.0047221 0.0187364)
(-0.00587023 -0.00664371 0.0381922)
(0.00714395 0.00971115 0.0791349)
(-0.00138287 0.00645593 0.0994513)
(0.00018166 0.00395152 0.126322)
(-0.00100389 0.00447606 0.130325)
(0.00115415 0.00271813 0.124784)
(-0.000363515 0.00354049 0.124653)
(-0.00578318 -0.00576146 0.02454)
(0.00789774 0.0107001 0.0828047)
(-0.000334757 0.00762313 0.100029)
(0.00394512 0.00592377 0.126295)
(0.00316689 0.0065241 0.124829)
(0.00375317 0.00613014 0.11632)
(0.00277395 0.00897781 0.11137)
(0.00247431 0.00854044 0.108399)
(0.000296077 0.00915363 0.108254)
(0.00766841 0.00476393 0.0781419)
(-0.000198551 0.00786808 0.099889)
(0.00418225 0.00672999 0.126578)
(0.00396604 0.00643839 0.12545)
(0.00493758 0.00633146 0.117058)
(0.00422472 0.00777677 0.109988)
(0.00340158 0.00746828 0.103128)
(0.00210941 0.00803973 0.101268)
(0.00174368 0.00715321 0.100352)
(0.000246068 0.00720296 0.100228)
(0.00474525 0.00764471 0.0781169)
(0.00446569 0.00444447 0.127501)
(0.00494599 0.0059448 0.124313)
(0.00577479 0.00633368 0.11644)
(0.00567889 0.00771167 0.109934)
(0.00506864 0.00755608 0.102885)
(0.00413165 0.00818372 0.100431)
(0.00339625 0.00755134 0.0980904)
(0.00233961 0.00796231 0.0975875)
(0.00165023 0.00750597 0.0970158)
(0.00036499 0.00759552 0.096814)
(-0.00576345 -0.00578305 0.0245373)
(0.00784136 -0.000179955 0.0998413)
(0.00592527 0.00495446 0.124286)
(0.0068694 0.00686921 0.114163)
(0.00633824 0.00698322 0.104261)
(0.00558748 0.00743479 0.100971)
(0.00475661 0.00695317 0.098115)
(0.00378868 0.00702372 0.097231)
(0.00299337 0.00645961 0.0960826)
(0.00200943 0.00645414 0.0956148)
(0.00134847 0.00608371 0.0951234)
(0.000335002 0.00607377 0.0949243)
(-0.00472244 0.000288583 0.018737)
(0.0106942 0.00788752 0.0827928)
(0.00672067 0.00418011 0.126549)
(0.00631762 0.00578566 0.116419)
(0.00697822 0.00634519 0.104249)
(0.0062437 0.00624573 0.099116)
(0.0053861 0.00642549 0.0976879)
(0.00450123 0.00602602 0.0961629)
(0.00359879 0.00603325 0.095385)
(0.00284458 0.00566744 0.0945145)
(0.00196718 0.00570268 0.094068)
(0.00126255 0.00550233 0.0936991)
(0.000355386 0.00550892 0.0935537)
(-0.00664454 -0.00587036 0.0381922)
(0.00762249 -0.000337359 0.100011)
(0.00643191 0.00396463 0.125431)
(0.00770193 0.0056817 0.109922)
(0.00742721 0.00559314 0.100964)
(0.00641896 0.00538902 0.0976866)
(0.0052968 0.00530149 0.0962285)
(0.00437 0.00500065 0.0948756)
(0.00345094 0.00494199 0.0940723)
(0.00267739 0.00468749 0.0934021)
(0.0018439 0.00464737 0.0930284)
(0.00115064 0.00449531 0.0927634)
(0.000341197 0.00447633 0.0926522)
(-0.00384245 0.00146727 0.0180467)
(0.00971099 0.00714019 0.0791337)
(0.00592453 0.00393801 0.126285)
(0.00632888 0.00493178 0.11705)
(0.00755077 0.0050663 0.102879)
(0.00694835 0.00475643 0.0981109)
(0.00602195 0.00450174 0.0961614)
(0.00499731 0.00437247 0.094875)
(0.00415183 0.00415386 0.0938005)
(0.0032922 0.00408792 0.0931374)
(0.00255209 0.0039169 0.0926384)
(0.00177349 0.00388436 0.092341)
(0.00108989 0.00378954 0.0921409)
(0.000336838 0.00377676 0.0920529)
(-0.0056751 -0.00574911 0.0287328)
(0.00645756 -0.00138459 0.0994479)
(0.00652498 0.00316311 0.124823)
(0.00777483 0.00422197 0.109984)
(0.00817981 0.00413025 0.100428)
(0.00701965 0.00378914 0.0972288)
(0.00602918 0.00359937 0.0953839)
(0.00493858 0.00345272 0.0940719)
(0.0040854 0.00329372 0.0931375)
(0.0032138 0.00321567 0.0925502)
(0.00247322 0.00309324 0.0921397)
(0.00171526 0.0030501 0.0918815)
(0.00104207 0.00298153 0.0917184)
(0.000328529 0.00296612 0.0916437)
(0.00572234 0.00402098 0.0810631)
(0.00395249 0.000179448 0.12632)
(0.0061301 0.00374986 0.116316)
(0.00746728 0.00339884 0.103125)
(0.007549 0.00339446 0.0980881)
(0.00645705 0.00299277 0.0960809)
(0.00566478 0.00284452 0.0945136)
(0.00468505 0.00267832 0.0934015)
(0.00391492 0.00255305 0.0926382)
(0.0030917 0.00247458 0.0921397)
(0.00238638 0.0023875 0.0917971)
(0.00166132 0.00235086 0.0915744)
(0.0010055 0.00230558 0.0914378)
(0.000321389 0.00229382 0.0913741)
(0.010714 0.00188236 0.102673)
(0.00447664 -0.00100487 0.130323)
(0.00897758 0.00277278 0.111368)
(0.00803884 0.0021084 0.101266)
(0.0079605 0.00233883 0.0975863)
(0.00645193 0.00200932 0.095614)
(0.00570021 0.00196723 0.0940675)
(0.00464498 0.00184454 0.0930282)
(0.00388225 0.00177411 0.092341)
(0.00304837 0.00171621 0.0918816)
(0.00234949 0.00166207 0.0915746)
(0.00163309 0.00163406 0.0913726)
(0.000984835 0.00160515 0.0912515)
(0.000316526 0.001596 0.0911945)
(-0.00580462 -0.00046311 0.0187985)
(0.0101479 0.00214668 0.0926736)
(0.00271834 0.00115398 0.124782)
(0.00854 0.00247414 0.108398)
(0.00715251 0.00174355 0.100351)
(0.00750461 0.00165018 0.0970145)
(0.00608204 0.00134873 0.0951225)
(0.00550045 0.00126287 0.0936985)
(0.00449345 0.0011513 0.092763)
(0.00378785 0.0010905 0.0921407)
(0.00298012 0.0010429 0.0917182)
(0.00230447 0.00100615 0.0914378)
(0.00160439 0.00098565 0.0912514)
(0.000967417 0.000967985 0.0911409)
(0.000312157 0.000960905 0.0910886)
(-0.00586005 -0.000783629 0.0293734)
(0.0113969 -7.86991e-05 0.0930384)
(0.00354076 -0.000363065 0.124653)
(0.00915345 0.000296425 0.108254)
(0.00720223 0.00024632 0.100228)
(0.00759414 0.00036507 0.0968136)
(0.00607195 0.000335155 0.0949241)
(0.00550686 0.000355365 0.0935537)
(0.00447424 0.000341323 0.0926523)
(0.00377481 0.000336814 0.0920531)
(0.00296441 0.000328697 0.0916438)
(0.00229244 0.000321392 0.0913742)
(0.00159495 0.000316816 0.0911946)
(0.000960089 0.000312239 0.0910886)
(0.000309983 0.000310492 0.0910377)
(0.000174685 -0.00397216 0.0150788)
(-1.71326e-05 -0.00509535 0.0224907)
(0.000947222 -0.00201775 0.014707)
(-0.00414358 -0.00417609 0.0230964)
(-0.00232474 -0.00165482 0.0757702)
(0.000992519 -0.00147568 0.0966007)
(0.001278 -0.00220336 0.0892949)
(-0.000318776 -0.00230224 0.0892662)
(0.000927128 -0.00315347 0.0149438)
(-0.00484075 -0.00526313 0.0293984)
(-0.00134273 -0.00103479 0.0732788)
(-0.00107227 -0.00214941 0.09315)
(-0.000152312 0.00145228 0.118847)
(0.000612576 0.00273222 0.123034)
(0.00144278 0.00181737 0.118715)
(-0.000184172 0.00233065 0.119124)
(-0.00307224 -0.00506893 0.0188888)
(-0.00125596 -0.00115582 0.0757614)
(-0.000124352 -0.00200841 0.0921188)
(0.00206367 0.00113198 0.118566)
(0.00316556 0.00411029 0.118995)
(0.0030972 0.00598045 0.11502)
(0.00275014 0.00778214 0.112466)
(0.00191698 0.00732433 0.110286)
(0.000193866 0.00766891 0.110277)
(-0.000544494 -0.00155464 0.0725067)
(0.000322292 -0.00162242 0.0926763)
(0.0019 0.00165441 0.119152)
(0.00376291 0.00357801 0.119143)
(0.00380227 0.0057584 0.115519)
(0.00382962 0.00679436 0.112413)
(0.00290363 0.00704882 0.109627)
(0.00187594 0.0070753 0.109385)
(0.00132013 0.00644078 0.10881)
(0.000159291 0.00652053 0.108736)
(-0.00155881 -0.000544652 0.0724793)
(0.00206342 0.00206755 0.120267)
(0.00392157 0.00296016 0.118721)
(0.00450928 0.00539461 0.115416)
(0.00489181 0.00644399 0.112101)
(0.00421094 0.00698093 0.109221)
(0.0035668 0.00707328 0.108781)
(0.00280378 0.00656847 0.108047)
(0.00195327 0.00668975 0.108009)
(0.00130015 0.00638319 0.107474)
(0.000282177 0.00649204 0.107269)
(-0.00507197 -0.00307025 0.0188843)
(-0.00162308 0.000333527 0.09265)
(0.00294624 0.00392568 0.118712)
(0.00529901 0.00529796 0.113699)
(0.00512737 0.00611153 0.109813)
(0.00465633 0.00627876 0.109002)
(0.00391294 0.00604528 0.108032)
(0.00322195 0.00589857 0.107853)
(0.00252141 0.00551845 0.107245)
(0.00171024 0.0054844 0.106981)
(0.00112199 0.00524645 0.106562)
(0.000275544 0.00526201 0.106413)
(-0.00315404 0.000927944 0.0149447)
(-0.00115677 -0.00125713 0.0757539)
(0.00165119 0.00189982 0.119136)
(0.00537839 0.0045108 0.115404)
(0.00610803 0.00512926 0.109807)
(0.00530202 0.0052959 0.108392)
(0.00454907 0.0053342 0.108056)
(0.00381855 0.00513366 0.107254)
(0.00310465 0.00511316 0.106762)
(0.00244707 0.00487286 0.106152)
(0.00170016 0.00490557 0.10584)
(0.00108108 0.00476586 0.10554)
(0.000302663 0.00478212 0.105433)
(-0.00526379 -0.00484077 0.0293988)
(-0.00200656 -0.000124777 0.0921054)
(0.00357653 0.00376188 0.11913)
(0.00643726 0.00489458 0.112092)
(0.00627301 0.00466617 0.108996)
(0.0053309 0.00455062 0.108053)
(0.00446916 0.00447283 0.107323)
(0.00373073 0.00429399 0.106415)
(0.00298364 0.00424071 0.105866)
(0.00231778 0.00405662 0.105382)
(0.00159956 0.00402431 0.105122)
(0.000996374 0.00390794 0.104913)
(0.000293138 0.00389698 0.10483)
(-0.00201801 0.000947639 0.0147075)
(-0.00103471 -0.0013442 0.0732767)
(0.00113308 0.00206007 0.118558)
(0.00575706 0.00379859 0.115513)
(0.00697642 0.00420913 0.109215)
(0.0060421 0.00391416 0.108028)
(0.00513158 0.00381814 0.107251)
(0.00429176 0.00373249 0.106414)
(0.00359254 0.00359375 0.105652)
(0.0028634 0.00354033 0.105186)
(0.00222472 0.00340979 0.104809)
(0.0015479 0.00338741 0.104583)
(0.000952572 0.00331381 0.104416)
(0.000292812 0.00330745 0.104344)
(-0.0041762 -0.00414369 0.0230968)
(-0.00214812 -0.00107361 0.0931464)
(0.00411124 0.00316299 0.118989)
(0.0067932 0.00382779 0.112407)
(0.00707005 0.00356605 0.108777)
(0.00589584 0.00322332 0.10785)
(0.00511043 0.00310504 0.10676)
(0.00423825 0.00298518 0.105865)
(0.00353846 0.00286447 0.105186)
(0.00279654 0.00279803 0.104755)
(0.00216229 0.0027013 0.104425)
(0.00150207 0.00266951 0.104216)
(0.000915695 0.00261618 0.104074)
(0.000287404 0.00260621 0.104009)
(-0.00165526 -0.00232551 0.0757686)
(0.00145288 -0.000153751 0.118843)
(0.00598053 0.00309521 0.115016)
(0.00704843 0.00290177 0.109623)
(0.00656667 0.00280273 0.108044)
(0.00551696 0.00252146 0.107243)
(0.00487124 0.00244708 0.10615)
(0.00405502 0.00231865 0.105381)
(0.00340846 0.00222545 0.104808)
(0.00270021 0.00216344 0.104425)
(0.00209581 0.00209667 0.104136)
(0.00146231 0.00207181 0.103945)
(0.000888934 0.00203774 0.103821)
(0.000283235 0.00203062 0.103762)
(-0.00147529 0.00099218 0.0965985)
(0.00273271 0.000612201 0.123031)
(0.00778201 0.00274983 0.112463)
(0.00707484 0.00187537 0.109383)
(0.00668842 0.00195295 0.108007)
(0.00548294 0.0017105 0.10698)
(0.00490382 0.00170028 0.105839)
(0.00402257 0.00160018 0.105121)
(0.00338579 0.00154835 0.104582)
(0.00266813 0.00150284 0.104216)
(0.00207065 0.00146285 0.103945)
(0.00144292 0.00144374 0.103765)
(0.000874316 0.00142199 0.10365)
(0.000280364 0.00141613 0.103595)
(-0.00397219 0.000174374 0.0150789)
(-0.00220386 0.00127874 0.0892928)
(0.00181774 0.00144321 0.118712)
(0.00732405 0.00191753 0.110283)
(0.00644045 0.00132047 0.108807)
(0.0063823 0.00130055 0.107472)
(0.00524544 0.0011226 0.10656)
(0.00476464 0.00108159 0.105538)
(0.00390669 0.000997139 0.104912)
(0.00331262 0.000953165 0.104415)
(0.00261516 0.000916477 0.104074)
(0.00203691 0.000889477 0.10382)
(0.00142146 0.000875061 0.10365)
(0.000861277 0.000861715 0.103542)
(0.000277096 0.000857153 0.10349)
(-0.00509526 -1.72265e-05 0.0224908)
(-0.00230175 -0.000317949 0.0892652)
(0.00233083 -0.000183605 0.119122)
(0.00766877 0.000194308 0.110275)
(0.00652002 0.000159575 0.108735)
(0.00649101 0.000282281 0.107268)
(0.00526066 0.000275734 0.106412)
(0.00478054 0.000302625 0.105432)
(0.00389532 0.000293254 0.10483)
(0.00330585 0.000292721 0.104344)
(0.00260478 0.00028753 0.104009)
(0.00202942 0.000283149 0.103762)
(0.00141521 0.000280607 0.103595)
(0.000856407 0.000277075 0.10349)
(0.000276661 0.000277133 0.103439)
(0.00058183 -0.00404547 0.0150269)
(0.000134381 -0.00515969 0.0220527)
(0.000788475 -0.00173024 0.0148614)
(-0.00393232 -0.00445589 0.0224714)
(-0.000921458 -0.000784773 0.0789355)
(0.000835374 -0.000746547 0.0989947)
(0.000481996 -0.000680367 0.0928433)
(-0.000210212 -0.00079278 0.0926)
(0.000979785 -0.00293279 0.0150481)
(-0.00463224 -0.0051571 0.0278043)
(-0.000704756 -0.000490879 0.0760136)
(0.000552152 -0.000529192 0.0946827)
(0.000698189 0.00216069 0.119709)
(0.000690583 0.00277165 0.122694)
(0.000784878 0.00275278 0.118759)
(-0.000126279 0.00312793 0.118676)
(-0.00254352 -0.00525754 0.0184355)
(-0.000792501 -0.000674557 0.0783611)
(0.000988424 -0.000551591 0.0932407)
(0.00170876 0.00188256 0.118729)
(0.00211279 0.0032938 0.119425)
(0.00176083 0.00396471 0.118098)
(0.0014961 0.00467517 0.116108)
(0.000889918 0.00452947 0.114249)
(4.7086e-05 0.00475303 0.114)
(-0.000671288 -0.000770327 0.0750407)
(0.0010809 -0.000598922 0.0942757)
(0.00159226 0.0020754 0.119411)
(0.00245739 0.00297127 0.119221)
(0.0020868 0.00401428 0.117988)
(0.00219083 0.00414766 0.116021)
(0.00157673 0.00419565 0.114441)
(0.000995859 0.0041207 0.114076)
(0.000695582 0.00394095 0.113316)
(6.11655e-05 0.00406136 0.113048)
(-0.000768399 -0.000681725 0.074994)
(0.00200062 0.00200681 0.119788)
(0.00221733 0.00221072 0.119193)
(0.00259054 0.00358471 0.117899)
(0.00279736 0.00387015 0.115516)
(0.00240992 0.00420342 0.113796)
(0.00210222 0.00419524 0.113246)
(0.00169191 0.00402177 0.112462)
(0.0012457 0.00422093 0.112062)
(0.000839922 0.00418002 0.111352)
(0.000188732 0.00430578 0.111065)
(-0.00526551 -0.00253986 0.0184302)
(-0.000598 0.00108208 0.0942472)
(0.00220607 0.00221891 0.11918)
(0.00301963 0.00301985 0.116405)
(0.00293767 0.00354954 0.114167)
(0.00274387 0.00366698 0.113371)
(0.00241576 0.00370936 0.112378)
(0.00213647 0.00377845 0.1118)
(0.00173263 0.00377234 0.110964)
(0.00122007 0.00386593 0.110507)
(0.000808221 0.00380317 0.110017)
(0.000200822 0.00384063 0.109845)
(-0.00293313 0.00098038 0.0150483)
(-0.000675415 -0.000791646 0.0783505)
(0.00207214 0.00159234 0.119395)
(0.00357877 0.00259109 0.117891)
(0.00354805 0.00293832 0.114171)
(0.00316981 0.00316571 0.112901)
(0.00293314 0.00334954 0.112052)
(0.00262805 0.00347043 0.110959)
(0.00223615 0.00361311 0.110217)
(0.00180502 0.00358767 0.109488)
(0.00128353 0.00367791 0.109094)
(0.000820619 0.00362729 0.108751)
(0.000232033 0.00365652 0.108625)
(-0.00515791 -0.004632 0.0278044)
(-0.000550993 0.000988223 0.0932277)
(0.00297016 0.00245684 0.119207)
(0.00386765 0.00280006 0.115506)
(0.00366319 0.00274876 0.113367)
(0.00334689 0.00293338 0.112049)
(0.0030717 0.00307269 0.110886)
(0.00270437 0.00311723 0.109792)
(0.00224609 0.00317355 0.10913)
(0.00178249 0.0031272 0.108567)
(0.00125311 0.00314577 0.108254)
(0.000786558 0.00309373 0.108003)
(0.000232067 0.00309866 0.107904)
(-0.00173049 0.000788765 0.0148619)
(-0.000491104 -0.000705261 0.0760103)
(0.00188259 0.00170766 0.118722)
(0.00401288 0.0020848 0.11798)
(0.00420068 0.00240958 0.113789)
(0.00370771 0.00241636 0.112375)
(0.00346949 0.00262888 0.110957)
(0.00311643 0.00270564 0.109791)
(0.0027236 0.00272431 0.108881)
(0.00223363 0.0027508 0.10832)
(0.00176919 0.00271087 0.107863)
(0.00124806 0.00272557 0.107587)
(0.000773743 0.00269218 0.107381)
(0.000238219 0.0026973 0.107294)
(-0.00445612 -0.00393236 0.0224719)
(-0.000528408 0.000551562 0.0946783)
(0.00329348 0.00211165 0.119419)
(0.00414651 0.00218979 0.116015)
(0.00419369 0.00210234 0.11324)
(0.00377701 0.00213783 0.111796)
(0.0036115 0.00223681 0.110215)
(0.00317215 0.00224723 0.109129)
(0.00274946 0.00223429 0.10832)
(0.00222954 0.00223064 0.107804)
(0.00175555 0.00219491 0.107398)
(0.00123396 0.00219152 0.107146)
(0.000758189 0.0021648 0.106969)
(0.000237762 0.00216317 0.106891)
(-0.000785343 -0.000921839 0.0789332)
(0.00216111 0.000697576 0.119705)
(0.00396416 0.00176009 0.118094)
(0.00419535 0.00157643 0.114436)
(0.00402103 0.00169196 0.112458)
(0.00377147 0.00173317 0.110961)
(0.0035868 0.0018054 0.109486)
(0.00312635 0.0017833 0.108566)
(0.00271005 0.00176975 0.107862)
(0.00219423 0.0017565 0.107398)
(0.00172984 0.00173045 0.107037)
(0.00121772 0.00172537 0.106806)
(0.000745263 0.00170732 0.106649)
(0.000236956 0.0017056 0.106577)
(-0.0007461 0.000835326 0.0989917)
(0.00277209 0.00069037 0.122691)
(0.0046749 0.00149599 0.116105)
(0.00412048 0.000995933 0.114072)
(0.00422029 0.00124554 0.112059)
(0.00386498 0.00122048 0.110505)
(0.00367671 0.00128373 0.109093)
(0.00314456 0.00125367 0.108252)
(0.00272434 0.00124836 0.107586)
(0.00219045 0.00123457 0.107145)
(0.00172441 0.00121806 0.106806)
(0.00121069 0.00121136 0.106585)
(0.000738329 0.00119913 0.106439)
(0.00023619 0.00119699 0.10637)
(-0.00404552 0.000581405 0.0150271)
(-0.000680943 0.000483272 0.0928404)
(0.002753 0.000786184 0.118755)
(0.00452929 0.000891279 0.114246)
(0.00394083 0.00069689 0.113312)
(0.00417959 0.000840877 0.111348)
(0.00380262 0.000809275 0.110014)
(0.00362658 0.000821405 0.108748)
(0.00309298 0.000787461 0.108002)
(0.00269141 0.00077436 0.10738)
(0.00216414 0.000758967 0.106968)
(0.00170674 0.000745737 0.106648)
(0.00119878 0.000739031 0.106438)
(0.00073087 0.000731208 0.106299)
(0.000234535 0.00072909 0.106234)
(-0.00515963 0.000134297 0.0220528)
(-0.00079203 -0.000209108 0.0925988)
(0.00312825 -0.000125339 0.118675)
(0.00475284 4.77735e-05 0.113999)
(0.00406086 6.17258e-05 0.113046)
(0.00430486 0.000188934 0.111063)
(0.00383947 0.000201092 0.109844)
(0.00365517 0.000232016 0.108624)
(0.00309728 0.00023219 0.107903)
(0.00269594 0.000238087 0.107293)
(0.00216196 0.000237865 0.106891)
(0.00170455 0.000236803 0.106577)
(0.00119618 0.000236412 0.10637)
(0.000728386 0.000234438 0.106234)
(0.000234975 0.000235428 0.10617)
(0.000616374 -0.00398327 0.0149952)
(0.000173196 -0.00502935 0.0218936)
(0.000665251 -0.00171848 0.0147143)
(-0.00379023 -0.00435613 0.0222052)
(-0.000487354 -0.000659903 0.077322)
(0.000535453 -0.00037948 0.0966828)
(0.000245196 -0.00032079 0.0911411)
(-6.31863e-05 -0.000403709 0.0906291)
(0.000944607 -0.00292026 0.0149236)
(-0.00446466 -0.00502798 0.0272613)
(-0.000516139 -0.000413017 0.0744189)
(0.000379218 -0.000326216 0.091955)