/*--------------------------------*- C++ -*----------------------------------*\
| =========                 |                                                 |
| \\      /  F ield         | OpenFOAM: The Open Source CFD Toolbox           |
|  \\    /   O peration     | Version:  2.1.1                                 |
|   \\  /    A nd           | Web:      www.OpenFOAM.org                      |
|    \\/     M anipulation  |                                                 |
\*---------------------------------------------------------------------------*/
FoamFile
{
    version     2.0;
    format      ascii;
    class       surfaceScalarField;
    location    "0.001";
    object      phi;
}
// * * * * * * * * * * * * * * * * * * * * * * * * * * * * * * * * * * * * * //

dimensions      [0 3 -1 0 0 0 0];

internalField   nonuniform List<scalar> 
29182
(
-1.97042e-12
2.03439e-12
-1.30761e-11
3.31245e-11
-2.01124e-11
-1.41158e-12
5.9675e-13
-1.44223e-11
5.47282e-11
-3.94911e-11
8.38373e-13
-7.99666e-12
2.12783e-11
-1.412e-11
2.56969e-12
-1.24003e-11
-1.01137e-11
6.49846e-11
-4.50403e-11
-9.47921e-13
-2.63154e-13
7.92383e-10
4.82731e-11
4.26281e-11
-4.81658e-11
-4.22869e-11
5.78286e-11
4.4442e-11
-5.66325e-11
-4.48238e-11
-7.92434e-10
-1.61936e-14
-2.86945e-13
1.00219e-09
4.00334e-11
5.74141e-11
-4.06842e-11
-5.73705e-11
-1.00223e-09
-2.00411e-13
-4.59497e-14
9.03691e-10
6.59957e-11
6.46668e-11
-6.58911e-11
-6.44943e-11
-9.03739e-10
-1.36969e-13
9.00282e-10
6.27874e-11
6.19989e-11
-6.27925e-11
-6.20031e-11
-9.00332e-10
3.10135e-12
-1.08399e-11
2.15363e-11
-1.37978e-11
2.95224e-12
1.89287e-12
-1.40646e-11
-1.27895e-11
9.2704e-11
-7.0695e-11
-8.04428e-13
-1.77135e-13
7.56439e-10
6.16024e-11
5.79261e-11
-6.08683e-11
-5.74861e-11
6.50087e-11
4.46684e-11
-6.45985e-11
-4.52098e-11
-7.56501e-10
2.07343e-12
-1.31185e-12
9.2768e-10
5.50324e-11
4.65524e-11
-5.51978e-11
-4.79164e-11
-9.27718e-10
8.77154e-13
9.47126e-13
1.16337e-09
-1.16339e-09
6.46559e-13
-1.88379e-14
1.17402e-09
-1.17406e-09
2.88527e-13
3.20389e-13
1.13316e-09
-1.13317e-09
1.66952e-13
1.12171e-09
-1.12172e-09
-2.66209e-12
-5.98137e-12
-1.02492e-11
4.94659e-11
-3.05733e-11
-1.6878e-12
-2.59134e-13
7.81387e-10
6.27972e-11
5.8445e-11
-6.18771e-11
-5.7918e-11
5.83692e-11
4.37366e-11
-5.71898e-11
-4.43476e-11
-7.81456e-10
8.39089e-13
-1.37246e-12
9.07667e-10
5.89291e-11
4.69578e-11
-5.89188e-11
-4.81276e-11
-9.07663e-10
-3.15799e-13
1.01269e-12
1.13628e-09
-1.13632e-09
-1.73083e-12
1.23051e-13
1.15032e-09
-1.15034e-09
-6.51984e-13
-9.44633e-14
1.15736e-09
-1.15739e-09
-5.72156e-13
-9.49158e-14
1.14528e-09
-1.14528e-09
-2.26172e-13
5.54855e-15
1.13163e-09
-1.13166e-09
-4.02021e-14
1.12408e-09
-1.12409e-09
-1.1829e-12
9.31851e-13
7.48457e-10
5.05291e-11
5.67831e-11
-5.07586e-11
-5.63059e-11
4.3116e-11
3.36096e-11
-4.21478e-11
-3.45607e-11
-7.48471e-10
1.84527e-12
-1.78765e-12
9.05881e-10
5.28242e-11
4.52091e-11
-5.29999e-11
-4.62485e-11
-9.05908e-10
4.53111e-13
1.15118e-12
1.14048e-09
-1.1405e-09
-9.10322e-13
2.81719e-14
1.14089e-09
-1.14093e-09
1.29523e-13
-1.64641e-14
1.14427e-09
-1.14429e-09
5.9606e-13
-3.29735e-13
1.13954e-09
-1.13955e-09
3.85147e-13
1.25622e-13
1.1393e-09
-1.13931e-09
2.76514e-13
1.03367e-14
1.13712e-09
-1.13712e-09
1.44841e-13
1.3122e-13
1.13201e-09
-1.13201e-09
9.76243e-14
1.12787e-09
-1.12785e-09
9.31626e-13
-1.18253e-12
7.47558e-10
4.31634e-11
3.37724e-11
-4.22025e-11
-3.47205e-11
5.04911e-11
5.67755e-11
-5.07208e-11
-5.62957e-11
-7.4757e-10
9.61672e-13
9.5933e-13
1.12858e-09
-1.12864e-09
-1.2876e-12
4.86838e-13
1.1263e-09
-1.12633e-09
1.36821e-14
-1.18379e-13
1.13426e-09
-1.1343e-09
1.78678e-13
-1.40861e-13
1.1302e-09
-1.1302e-09
5.39535e-14
1.28486e-13
1.13045e-09
-1.13048e-09
-3.38229e-13
5.97479e-14
1.13374e-09
-1.13373e-09
-2.41738e-13
2.68231e-14
1.13638e-09
-1.13638e-09
-2.35588e-13
-7.60835e-15
1.13637e-09
-1.13636e-09
-1.13644e-13
1.76377e-15
1.13423e-09
-1.13422e-09
-2.06365e-14
1.13244e-09
-1.13243e-09
-2.6728e-12
-1.02556e-11
-5.96757e-12
4.945e-11
-3.0554e-11
-1.78794e-12
1.84582e-12
9.05149e-10
5.28263e-11
4.52304e-11
-5.3002e-11
-4.62701e-11
-9.05176e-10
4.85299e-13
-1.29028e-12
1.12617e-09
-1.12619e-09
4.93461e-13
4.9445e-13
1.12011e-09
-1.12013e-09
3.83299e-13
-7.42241e-15
1.12046e-09
-1.12046e-09
9.32173e-14
1.67517e-13
1.12556e-09
-1.12558e-09
1.75379e-13
2.65828e-14
1.1299e-09
-1.12987e-09
2.10625e-13
7.3784e-15
1.13354e-09
-1.13352e-09
1.70149e-13
4.27427e-14
1.13576e-09
-1.13574e-09
1.26652e-13
1.04539e-14
1.13631e-09
-1.13628e-09
6.51777e-14
3.5817e-14
1.13567e-09
-1.13564e-09
2.20166e-14
1.13512e-09
-1.13509e-09
-1.08424e-11
3.10294e-12
2.1537e-11
-1.37975e-11
-2.58246e-13
-1.68894e-12
7.81177e-10
5.83524e-11
4.3717e-11
-5.71731e-11
-4.43288e-11
6.28006e-11
5.84527e-11
-6.188e-11
-5.79251e-11
-7.81245e-10
1.15246e-12
4.5346e-13
1.14007e-09
-1.14009e-09
-1.18822e-13
1.3099e-14
1.13398e-09
-1.13402e-09
-7.61685e-15
3.84134e-13
1.12064e-09
-1.12064e-09
-8.15413e-15
-7.88555e-15
1.12341e-09
-1.12341e-09
3.59311e-14
1.08523e-13
1.12754e-09
-1.12753e-09
2.87211e-15
4.65356e-14
1.131e-09
-1.13098e-09
-6.28709e-14
5.40045e-14
1.13379e-09
-1.13377e-09
-5.22051e-14
1.29022e-14
1.13573e-09
-1.13571e-09
-6.31651e-14
-1.01786e-15
1.13663e-09
-1.1366e-09
-3.33165e-14
-1.47318e-14
1.13672e-09
-1.1367e-09
-2.52459e-14
1.13676e-09
-1.13673e-09
1.89119e-12
2.95308e-12
-1.27916e-11
-1.40633e-11
9.27054e-11
-7.06947e-11
-1.37276e-12
8.38984e-13
9.0751e-10
5.8935e-11
4.6965e-11
-5.89243e-11
-4.81351e-11
-9.07507e-10
2.80235e-14
-9.10248e-13
1.14065e-09
-1.14069e-09
-1.41777e-13
1.7849e-13
1.13001e-09
-1.13001e-09
1.66834e-13
9.34214e-14
1.12552e-09
-1.12554e-09
1.07628e-13
3.61515e-14
1.12764e-09
-1.12762e-09
9.603e-14
9.66856e-14
1.13019e-09
-1.13016e-09
1.04478e-13
1.40155e-14
1.13255e-09
-1.13253e-09
9.82101e-14
2.82412e-14
1.13468e-09
-1.13464e-09
8.1076e-14
-1.55939e-15
1.13636e-09
-1.13633e-09
5.48984e-14
-8.01581e-15
1.13735e-09
-1.13732e-09
2.53562e-14
-1.57075e-14
1.13776e-09
-1.13773e-09
-2.19758e-14
1.13801e-09
-1.13798e-09
-7.99691e-12
8.38455e-13
2.12784e-11
-1.41199e-11
-1.77061e-13
-8.0406e-13
7.56418e-10
6.50061e-11
4.46626e-11
-6.45962e-11
-4.52041e-11
6.16032e-11
5.79277e-11
-6.0869e-11
-5.74877e-11
-7.56479e-10
1.01254e-12
-3.15832e-13
1.13618e-09
-1.13622e-09
-1.63731e-14
1.29459e-13
1.14413e-09
-1.14414e-09
1.28163e-13
5.38292e-14
1.13032e-09
-1.13034e-09
2.63767e-14
1.75286e-13
1.12984e-09
-1.12982e-09
4.6113e-14
3.01398e-15
1.13098e-09
-1.13096e-09
1.35273e-14
1.05039e-13
1.13257e-09
-1.13255e-09
2.19368e-15
2.71917e-15
1.13431e-09
-1.13428e-09
-2.85514e-14
3.18125e-14
1.13587e-09
-1.13585e-09
-2.85896e-14
-2.04847e-14
1.1372e-09
-1.13719e-09
-3.49887e-14
-2.00958e-14
1.1382e-09
-1.13819e-09
-2.1955e-14
-4.22368e-14
1.13872e-09
-1.13871e-09
-4.60477e-14
1.13904e-09
-1.13903e-09
2.56952e-12
-1.01141e-11
-1.23999e-11
6.49846e-11
-4.50401e-11
-1.31186e-12
2.07371e-12
9.27652e-10
5.50337e-11
4.65542e-11
-5.51989e-11
-4.79182e-11
-9.2769e-10
1.2315e-13
-1.73087e-12
1.15026e-09
-1.15028e-09
-3.29909e-13
5.96275e-13
1.13947e-09
-1.13949e-09
5.93411e-14
-3.38242e-13
1.13368e-09
-1.13368e-09
6.85478e-15
2.10512e-13
1.13349e-09
-1.13347e-09
5.33329e-14
-6.26789e-14
1.13376e-09
-1.13374e-09
2.76326e-14
9.87217e-14
1.13466e-09
-1.13462e-09
3.1198e-14
-2.79482e-14
1.13587e-09
-1.13584e-09
1.68048e-14
1.73963e-14
1.13716e-09
-1.13713e-09
1.15254e-14
-3.49788e-14
1.13825e-09
-1.13823e-09
8.04328e-16
-2.82065e-14
1.13918e-09
-1.13916e-09
-4.86525e-15
-4.80086e-14
1.13975e-09
-1.13974e-09
-4.86064e-14
1.14006e-09
-1.14006e-09
-2.63131e-13
-9.47887e-13
7.9238e-10
5.7828e-11
4.44405e-11
-5.66319e-11
-4.48223e-11
4.82732e-11
4.26283e-11
-4.81659e-11
-4.22871e-11
-7.92432e-10
9.47175e-13
8.77405e-13
1.16336e-09
-1.16337e-09
-9.46174e-14
-6.51876e-13
1.15733e-09
-1.15737e-09
1.25426e-13
3.85414e-13
1.13926e-09
-1.13926e-09
2.64809e-14
-2.41564e-13
1.13633e-09
-1.13633e-09
4.23941e-14
1.70145e-13
1.13572e-09
-1.1357e-09
1.24946e-14
-5.19151e-14
1.1357e-09
-1.13568e-09
-1.91729e-15
8.16224e-14
1.13634e-09
-1.13631e-09
-2.09394e-14
-2.79554e-14
1.1372e-09
-1.13718e-09
-3.55075e-14
1.22043e-14
1.13831e-09
-1.13829e-09
-3.89384e-14
-3.84837e-14
1.13935e-09
-1.13934e-09
-3.79602e-14
-3.1252e-14
1.14014e-09
-1.14014e-09
-2.63588e-14
-5.25927e-14
1.14076e-09
-1.14077e-09
-5.22012e-14
1.14108e-09
-1.14108e-09
-2.8695e-13
-1.60834e-14
1.00218e-09
4.00335e-11
5.74146e-11
-4.06843e-11
-5.7371e-11
-1.00222e-09
-1.89132e-14
6.46807e-13
1.174e-09
-1.17404e-09
-9.51848e-14
-5.71895e-13
1.14524e-09
-1.14524e-09
1.0081e-14
2.76855e-13
1.13708e-09
-1.13707e-09
-7.90331e-15
-2.35203e-13
1.13633e-09
-1.13632e-09
1.01131e-14
1.26949e-13
1.13627e-09
-1.13625e-09
-1.43747e-15
-6.26703e-14
1.1366e-09
-1.13658e-09
-8.48869e-15
5.55472e-14
1.13733e-09
-1.1373e-09
-2.06351e-14
-3.4265e-14
1.13819e-09
-1.13817e-09
-2.87637e-14
1.62246e-15
1.13919e-09
-1.13918e-09
-3.1716e-14
-3.71313e-14
1.14024e-09
-1.14024e-09
-3.04561e-14
-2.97961e-14
1.14111e-09
-1.14112e-09
-2.2708e-14
-4.56331e-14
1.14175e-09
-1.14177e-09
-4.43128e-14
1.14213e-09
-1.14215e-09
-1.97047e-12
-1.30762e-11
2.03448e-12
3.31246e-11
-2.01124e-11
-4.58424e-14
-2.00302e-13
9.03685e-10
6.5996e-11
6.4667e-11
-6.58915e-11
-6.44945e-11
-9.03734e-10
3.20434e-13
2.88746e-13
1.13315e-09
-1.13316e-09
5.41411e-15
-2.2587e-13
1.1316e-09
-1.13164e-09
1.31107e-13
1.45193e-13
1.13199e-09
-1.13198e-09
1.62083e-15
-1.13208e-13
1.1342e-09
-1.13419e-09
3.56584e-14
6.552e-14
1.13564e-09
-1.13561e-09
-1.49345e-14
-3.28428e-14
1.1367e-09
-1.13668e-09
-1.59665e-14
2.59721e-14
1.13774e-09
-1.13771e-09
-4.2558e-14
-2.11775e-14
1.13872e-09
-1.1387e-09
-4.83766e-14
-3.84804e-15
1.13975e-09
-1.13974e-09
-5.29985e-14
-2.53575e-14
1.14079e-09
-1.14081e-09
-4.63321e-14
-2.16588e-14
1.14184e-09
-1.14186e-09
-3.12499e-14
-2.98462e-14
1.14267e-09
-1.1427e-09
-2.9065e-14
1.14317e-09
-1.1432e-09
-1.41159e-12
-1.44223e-11
5.96807e-13
5.47281e-11
-3.9491e-11
-1.37072e-13
9.00279e-10
6.27874e-11
6.19987e-11
-6.27925e-11
-6.2003e-11
-9.00329e-10
1.6675e-13
1.12171e-09
-1.12171e-09
-4.02179e-14
1.12407e-09
-1.12408e-09
9.75668e-14
1.12785e-09
-1.12784e-09
-2.07477e-14
1.13243e-09
-1.13241e-09
2.18285e-14
1.13511e-09
-1.13508e-09
-2.54498e-14
1.13675e-09
-1.13672e-09
-2.21522e-14
1.138e-09
-1.13797e-09
-4.61783e-14
1.13903e-09
-1.13902e-09
-4.87817e-14
1.14007e-09
-1.14006e-09
-5.25246e-14
1.14109e-09
-1.1411e-09
-4.50614e-14
1.14214e-09
-1.14217e-09
-2.96997e-14
1.14318e-09
-1.14322e-09
1.144e-09
-1.14404e-09
-2.01143e-11
-1.97056e-12
2.03472e-12
-1.30794e-11
3.31296e-11
-3.94943e-11
-1.41158e-12
5.96842e-13
-1.44261e-11
5.47352e-11
-1.41218e-11
8.38688e-13
-7.99905e-12
2.12822e-11
-4.50438e-11
2.57003e-12
-1.24017e-11
-1.01179e-11
6.49934e-11
-9.50486e-13
-2.58875e-13
7.92334e-10
4.82832e-11
4.26362e-11
-4.81748e-11
-4.22962e-11
5.78368e-11
4.44524e-11
-5.66486e-11
-4.48324e-11
-1.29019e-14
-2.9207e-13
1.00214e-09
4.00434e-11
5.74253e-11
-4.06908e-11
-5.73835e-11
-1.99478e-13
-4.86319e-14
9.03648e-10
6.60089e-11
6.46806e-11
-6.59052e-11
-6.45071e-11
-1.34989e-13
9.00227e-10
6.28012e-11
6.20127e-11
-6.28043e-11
-6.20149e-11
-1.37996e-11
3.10166e-12
-1.08421e-11
2.15401e-11
-7.0701e-11
2.95316e-12
1.89331e-12
-1.40684e-11
-1.27934e-11
9.27164e-11
-7.98887e-13
-2.16036e-13
7.56402e-10
6.16127e-11
5.79373e-11
-6.08816e-11
-5.74978e-11
6.50227e-11
4.46823e-11
-6.46115e-11
-4.52133e-11
2.07889e-12
-1.3282e-12
9.27643e-10
5.5046e-11
4.65634e-11
-5.52042e-11
-4.79217e-11
8.82729e-13
9.28229e-13
1.16338e-09
6.45575e-13
-2.65175e-14
1.17399e-09
2.8382e-13
3.27205e-13
1.13315e-09
1.45926e-13
1.12172e-09
-3.05758e-11
-2.66175e-12
-5.9832e-12
-1.02522e-11
4.94729e-11
-1.76124e-12
-2.32413e-13
7.81346e-10
6.28098e-11
5.84608e-11
-6.18893e-11
-5.79257e-11
5.8381e-11
4.37498e-11
-5.72007e-11
-4.43517e-11
8.42493e-13
-1.42054e-12
9.07639e-10
5.89398e-11
4.69677e-11
-5.89313e-11
-4.81342e-11
-3.30649e-13
1.0088e-12
1.13622e-09
-1.76288e-12
1.24959e-13
1.1503e-09
-6.78503e-13
-1.12072e-13
1.15731e-09
-5.88757e-13
-1.26976e-13
1.14529e-09
-2.33867e-13
-2.28508e-14
1.13162e-09
-8.05021e-14
1.12408e-09
-1.174e-12
9.37706e-13
7.48438e-10
5.05378e-11
5.67936e-11
-5.07695e-11
-5.6317e-11
4.31228e-11
3.36129e-11
-4.21576e-11
-3.45691e-11
1.85777e-12
-1.80772e-12
9.0586e-10
5.28348e-11
4.52219e-11
-5.30091e-11
-4.6253e-11
4.59868e-13
1.16935e-12
1.14047e-09
-9.41612e-13
3.45641e-15
1.14086e-09
1.16385e-13
-4.82174e-14
1.14427e-09
5.86583e-13
-3.53981e-13
1.13955e-09
3.74321e-13
8.20935e-14
1.13932e-09
2.67667e-13
-4.31321e-14
1.13715e-09
1.41658e-13
7.76739e-14
1.13204e-09
3.72017e-14
1.1279e-09
9.33338e-13
-1.17473e-12
7.47536e-10
4.31756e-11
3.37777e-11
-4.22078e-11
-3.47278e-11
5.04988e-11
5.67855e-11
-5.07327e-11
-5.63074e-11
9.53986e-13
9.51565e-13
1.12854e-09
-1.3557e-12
5.03743e-13
1.1263e-09
9.45526e-16
-1.57292e-13
1.13423e-09
1.5796e-13
-1.64919e-13
1.13021e-09
2.97295e-14
8.32892e-14
1.13045e-09
-3.61866e-13
1.8304e-14
1.13376e-09
-2.58067e-13
-3.42909e-14
1.13639e-09
-2.51415e-13
-7.08696e-14
1.1364e-09
-1.19754e-13
-7.10482e-14
1.13425e-09
-9.56359e-14
1.13246e-09
-3.05566e-11
-2.67248e-12
-1.02587e-11
-5.96931e-12
4.9457e-11
-1.80872e-12
1.85859e-12
9.05128e-10
5.28369e-11
4.52432e-11
-5.30112e-11
-4.62746e-11
5.0179e-13
-1.35709e-12
1.12617e-09
4.99126e-13
5.00636e-13
1.12011e-09
3.72929e-13
-4.71418e-14
1.12047e-09
6.71283e-14
1.31101e-13
1.12557e-09
1.45383e-13
-2.72218e-14
1.12993e-09
1.74239e-13
-5.03575e-14
1.13358e-09
1.37643e-13
-3.40673e-14
1.1358e-09
1.03689e-13
-7.46813e-14
1.13634e-09
5.38848e-14
-5.76855e-14
1.1357e-09
-7.4937e-14
1.13516e-09
-1.37993e-11
-1.08447e-11
3.10327e-12
2.15407e-11
-2.31812e-13
-1.76131e-12
7.81135e-10
5.8364e-11
4.37301e-11
-5.7184e-11
-4.43329e-11
6.28132e-11
5.84685e-11
-6.18922e-11
-5.79328e-11
1.1705e-12
4.60332e-13
1.14006e-09
-1.57658e-13
4.43975e-16
1.13395e-09
-4.75827e-14
3.74218e-13
1.12065e-09
-5.17344e-14
-5.11714e-14
1.12342e-09
-1.20116e-14
6.27379e-14
1.12757e-09
-4.29483e-14
-1.96881e-14
1.13102e-09
-1.05061e-13
-1.82028e-14
1.13382e-09
-8.70945e-14
-7.60195e-14
1.13575e-09
-8.86368e-14
-9.71933e-14
1.13665e-09
-4.51844e-14
-1.19633e-13
1.13674e-09
-1.34077e-13
1.13678e-09
-7.07008e-11
1.89159e-12
2.954e-12
-1.27956e-11
-1.40672e-11
9.27179e-11
-1.42075e-12
8.42565e-13
9.07482e-10
5.89457e-11
4.69749e-11
-5.89368e-11
-4.81417e-11
3.4046e-15
-9.41403e-13
1.14062e-09
-1.65796e-13
1.57762e-13
1.13002e-09
1.30172e-13
6.74403e-14
1.12554e-09
6.15112e-14
-1.16951e-14
1.12766e-09
4.48837e-14
4.56889e-14
1.13022e-09
4.95768e-14
-5.86373e-14
1.13259e-09
4.54758e-14
-5.30481e-14
1.13471e-09
3.6324e-14
-9.91569e-14
1.13638e-09
2.35597e-14
-1.13415e-13
1.13738e-09
9.17594e-15
-1.30631e-13
1.13778e-09
-1.4062e-13
1.13803e-09
-1.41217e-11
-7.9993e-12
8.38769e-13
2.12822e-11
-2.15976e-13
-7.98461e-13
7.5638e-10
6.502e-11
4.46766e-11
-6.46092e-11
-4.52077e-11
6.16134e-11
5.79389e-11
-6.08823e-11
-5.74994e-11
1.0088e-12
-3.30558e-13
1.13613e-09
-4.78678e-14
1.16394e-13
1.14413e-09
8.31101e-14
2.9611e-14
1.13032e-09
-2.7646e-14
1.45142e-13
1.12987e-09
-2.04083e-14
-4.28452e-14
1.131e-09
-5.93259e-14
5.02349e-14
1.13261e-09
-7.12762e-14
-7.06461e-14
1.13433e-09
-9.68126e-14
-5.06796e-14
1.13589e-09
-8.52986e-14
-1.18302e-13
1.13721e-09
-7.63922e-14
-1.259e-13
1.1382e-09
-4.32097e-14
-1.56898e-13
1.13871e-09
-1.6318e-13
1.13903e-09
-4.50436e-11
2.56987e-12
-1.01184e-11
-1.24013e-11
6.49934e-11
-1.3282e-12
2.07925e-12
9.27614e-10
5.50473e-11
4.65652e-11
-5.52054e-11
-4.79235e-11
1.25005e-13
-1.7628e-12
1.15024e-09
-3.54195e-13
5.86827e-13
1.13948e-09
1.78639e-14
-3.61834e-13
1.1337e-09
-5.10708e-14
1.74118e-13
1.13353e-09
-1.90502e-14
-1.04861e-13
1.13379e-09
-5.37957e-14
4.61189e-14
1.13469e-09
-5.13694e-14
-9.60712e-14
1.13589e-09
-6.14227e-14
-6.07397e-14
1.13717e-09
-5.46961e-14
-1.26923e-13
1.13824e-09
-4.64541e-14
-1.27532e-13
1.13917e-09
-2.85466e-14
-1.55796e-13
1.13973e-09
-1.58249e-13
1.14004e-09
-2.58828e-13
-9.50429e-13
7.92331e-10
5.78362e-11
4.44509e-11
-5.6648e-11
-4.48309e-11
4.82833e-11
4.26364e-11
-4.81749e-11
-4.22963e-11
9.28301e-13
8.83038e-13
1.16336e-09
-1.12238e-13
-6.7824e-13
1.15729e-09
8.18661e-14
3.74632e-13
1.13927e-09
-3.46841e-14
-2.57787e-13
1.13634e-09
-3.44567e-14
1.37654e-13
1.13576e-09
-7.65126e-14
-8.6701e-14
1.13573e-09
-9.96427e-14
3.70202e-14
1.13637e-09
-1.18841e-13
-8.44678e-14
1.13721e-09
-1.27536e-13
-5.38118e-14
1.13831e-09
-1.15168e-13
-1.14587e-13
1.13932e-09
-9.27916e-14
-1.14955e-13
1.1401e-09
-5.31835e-14
-1.42767e-13
1.1407e-09
-1.44773e-13
1.14102e-09
-2.92105e-13
-1.27731e-14
1.00214e-09
4.00436e-11
5.74257e-11
-4.0691e-11
-5.7384e-11
-2.66375e-14
6.45883e-13
1.17397e-09
-1.27304e-13
-5.88359e-13
1.14525e-09
-4.34835e-14
2.68114e-13
1.1371e-09
-7.13179e-14
-2.50804e-13
1.13636e-09
-7.49932e-14
1.04302e-13
1.13631e-09
-9.76598e-14
-8.78833e-14
1.13662e-09
-1.13973e-13
2.44229e-14
1.13736e-09
-1.26499e-13
-7.53838e-14
1.13819e-09
-1.28132e-13
-4.52766e-14
1.13918e-09
-1.15476e-13
-9.16232e-14
1.1402e-09
-9.09178e-14
-9.01048e-14
1.14106e-09
-5.35728e-14
-1.10591e-13
1.14168e-09
-1.09752e-13
1.14205e-09
-2.01143e-11
-1.97061e-12
-1.30795e-11
2.0348e-12
3.31296e-11
-4.84746e-14
-1.99359e-13
9.03643e-10
6.60092e-11
6.46808e-11
-6.59056e-11
-6.45074e-11
3.27327e-13
2.84118e-13
1.13313e-09
-2.29889e-14
-2.3281e-13
1.1316e-09
7.75495e-14
1.42122e-13
1.13201e-09
-7.12025e-14
-1.19094e-13
1.13422e-09
-5.78255e-14
5.4539e-14
1.13568e-09
-1.19836e-13
-4.44377e-14
1.13672e-09
-1.30883e-13
1.00962e-14
1.13777e-09
-1.57145e-13
-4.20543e-14
1.1387e-09
-1.56108e-13
-2.70755e-14
1.13973e-09
-1.43257e-13
-5.18172e-14
1.14074e-09
-1.11385e-13
-5.2195e-14
1.14177e-09
-6.37263e-14
-6.22763e-14
1.14258e-09
-6.25293e-14
1.14307e-09
-3.94942e-11
-1.41159e-12
-1.44262e-11
5.96892e-13
5.47351e-11
-1.35108e-13
9.00223e-10
6.28012e-11
6.20125e-11
-6.28043e-11
-6.20148e-11
1.45688e-13
1.12172e-09
-8.04275e-14
1.12407e-09
3.7183e-14
1.12788e-09
-9.5675e-14
1.13245e-09
-7.52019e-14
1.13515e-09
-1.34223e-13
1.13677e-09
-1.4066e-13
1.13802e-09
-1.63114e-13
1.13903e-09
-1.58359e-13
1.14004e-09
-1.45308e-13
1.14103e-09
-1.107e-13
1.14206e-09
-6.33399e-14
1.14308e-09
1.14387e-09
-2.01169e-11
-1.9707e-12
2.03476e-12
-1.30829e-11
3.31357e-11
-3.9498e-11
-1.4116e-12
5.96784e-13
-1.44306e-11
5.47434e-11
-1.4124e-11
8.38967e-13
-8.00178e-12
2.12869e-11
-4.50481e-11
2.57023e-12
-1.24025e-11
-1.01238e-11
6.50042e-11
-9.49209e-13
-2.51715e-13
7.9229e-10
4.82944e-11
4.26449e-11
-4.81867e-11
-4.23079e-11
5.78455e-11
4.44645e-11
-5.66691e-11
-4.48429e-11
-1.66536e-14
-2.90805e-13
1.00211e-09
4.00553e-11
5.74375e-11
-4.06984e-11
-5.73986e-11
-2.07011e-13
-5.09885e-14
9.0361e-10
6.60242e-11
6.46972e-11
-6.59221e-11
-6.45214e-11
-1.64261e-13
9.00187e-10
6.28173e-11
6.20285e-11
-6.28187e-11
-6.20283e-11
-1.38019e-11
3.10193e-12
-1.0845e-11
2.15449e-11
-7.07094e-11
2.95342e-12
1.89275e-12
-1.40717e-11
-1.27978e-11
9.27327e-11
-7.98143e-13
-2.21405e-13
7.56363e-10
6.16253e-11
5.79505e-11
-6.08973e-11
-5.75114e-11
6.50379e-11
4.46985e-11
-6.46282e-11
-4.52189e-11
2.0263e-12
-1.34594e-12
9.27663e-10
5.50627e-11
4.65767e-11
-5.52121e-11
-4.79279e-11
8.80814e-13
8.95171e-13
1.16338e-09
6.38669e-13
-4.01969e-14
1.17398e-09
2.89083e-13
2.84804e-13
1.13316e-09
1.12857e-13
1.12174e-09
-3.05791e-11
-2.66173e-12
-5.98557e-12
-1.02555e-11
4.94818e-11
-1.78514e-12
-2.51813e-13
7.81339e-10
6.28225e-11
5.84757e-11
-6.19058e-11
-5.79384e-11
5.8394e-11
4.37649e-11
-5.72153e-11
-4.43573e-11
8.41559e-13
-1.46673e-12
9.07629e-10
5.89523e-11
4.69802e-11
-5.89449e-11
-4.81406e-11
-3.51914e-13
1.00516e-12
1.13619e-09
-1.79802e-12
1.04009e-13
1.1503e-09
-7.57437e-13
-1.44633e-13
1.15731e-09
-6.07159e-13
-1.83141e-13
1.14528e-09
-2.59082e-13
-7.52289e-14
1.13163e-09
-1.45683e-13
1.12408e-09
-1.16577e-12
9.31644e-13
7.48419e-10
5.05469e-11
5.6805e-11
-5.0784e-11
-5.63313e-11
4.31355e-11
3.36207e-11
-4.21645e-11
-3.4577e-11
1.86531e-12
-1.82612e-12
9.05853e-10
5.2846e-11
4.52352e-11
-5.30213e-11
-4.62596e-11
4.56724e-13
1.17704e-12
1.14045e-09
-9.81216e-13
-2.99004e-14
1.14086e-09
1.0101e-13
-9.13973e-14
1.14428e-09
5.7156e-13
-3.98925e-13
1.13958e-09
3.61755e-13
1.79761e-14
1.13936e-09
2.58553e-13
-1.29608e-13
1.1372e-09
1.38331e-13
-8.98739e-15
1.13209e-09
-5.82334e-14
1.12795e-09
9.2874e-13
-1.16553e-12
7.47519e-10
4.31847e-11
3.37842e-11
-4.22185e-11
-3.47369e-11
5.05088e-11
5.67973e-11
-5.07465e-11
-5.63213e-11
9.41831e-13
9.39927e-13
1.12852e-09
-1.40942e-12
5.13971e-13
1.12631e-09
-2.16312e-14
-2.06372e-13
1.13423e-09
1.3462e-13
-2.06607e-13
1.13023e-09
-6.58304e-15
2.31179e-14
1.13048e-09
-3.98127e-13
-4.77931e-14
1.1338e-09
-2.84164e-13
-1.27992e-13
1.13642e-09
-2.76569e-13
-1.75478e-13
1.13643e-09
-1.30734e-13
-1.87551e-13
1.13428e-09
-2.17738e-13
1.13249e-09
-3.05598e-11
-2.67249e-12
-1.0262e-11
-5.97161e-12
4.94659e-11
-1.82723e-12
1.86652e-12
9.05121e-10
5.28482e-11
4.52565e-11
-5.30234e-11
-4.62812e-11
5.11884e-13
-1.41037e-12
1.12618e-09
4.93415e-13
4.96872e-13
1.12015e-09
3.50571e-13
-1.0129e-13
1.12051e-09
3.29248e-14
7.38277e-14
1.12561e-09
1.29475e-13
-1.14492e-13
1.12997e-09
1.75699e-13
-1.48013e-13
1.13363e-09
1.39968e-13
-1.52314e-13
1.13586e-09
1.07682e-13
-2.04729e-13
1.1364e-09
5.76451e-14
-1.97512e-13
1.13576e-09
-2.20893e-13
1.13522e-09
-1.38016e-11
-1.08475e-11
3.10355e-12
2.15456e-11
-2.50973e-13
-1.785e-12
7.81128e-10
5.8377e-11
4.37451e-11
-5.71986e-11
-4.43386e-11
6.28259e-11
5.84834e-11
-6.19088e-11
-5.79456e-11
1.17832e-12
4.57394e-13
1.14004e-09
-2.06289e-13
-2.16809e-14
1.13395e-09
-1.02586e-13
3.57724e-13
1.12069e-09
-1.16752e-13
-1.15277e-13
1.12345e-09
-8.31997e-14
-7.36194e-15
1.12762e-09
-1.13995e-13
-1.21231e-13
1.13106e-09
-1.72489e-13
-1.31958e-13
1.13386e-09
-1.41868e-13
-2.1232e-13
1.13578e-09
-1.27959e-13
-2.43819e-13
1.13667e-09
-6.56688e-14
-2.79727e-13
1.13676e-09
-2.98798e-13
1.13679e-09
-7.07092e-11
1.89102e-12
2.95426e-12
-1.28e-11
-1.40704e-11
9.27343e-11
-1.4667e-12
8.41661e-13
9.07471e-10
5.89582e-11
4.69875e-11
-5.89504e-11
-4.81481e-11
-2.93704e-14
-9.81035e-13
1.14062e-09
-2.06998e-13
1.33902e-13
1.13004e-09
7.19616e-14
3.29213e-14
1.12558e-09
-9.53424e-15
-8.29724e-14
1.12771e-09
-3.70927e-14
-3.60227e-14
1.13028e-09
-3.49952e-14
-1.69034e-13
1.13263e-09
-3.43672e-14
-1.78117e-13
1.13475e-09
-3.06403e-14
-2.47672e-13
1.13641e-09
-2.50185e-14
-2.74645e-13
1.1374e-09
-1.54725e-14
-3.04994e-13
1.13779e-09
-3.1875e-13
1.13804e-09
-1.41239e-11
-8.00202e-12
8.39044e-13
2.12869e-11
-2.21239e-13
-7.9766e-13
7.56341e-10
6.50353e-11
4.46927e-11
-6.4626e-11
-4.52133e-11
6.16261e-11
5.79521e-11
-6.08981e-11
-5.7513e-11
1.00514e-12
-3.51646e-13
1.13609e-09
-9.02437e-14
9.99116e-14
1.14414e-09
2.3392e-14
-6.90238e-15
1.13034e-09
-1.15566e-13
1.28988e-13
1.12991e-09
-1.22573e-13
-1.14143e-13
1.13104e-09
-1.70067e-13
-3.42544e-14
1.13265e-09
-1.82296e-13
-1.81473e-13
1.13435e-09
-2.007e-13
-1.76618e-13
1.13591e-09
-1.71988e-13
-2.66195e-13
1.13719e-09
-1.38206e-13
-2.85624e-13
1.13818e-09
-7.37141e-14
-3.29098e-13
1.13867e-09
-3.40578e-13
1.13898e-09
-4.50479e-11
2.57007e-12
-1.01242e-11
-1.24022e-11
6.50042e-11
-1.34593e-12
2.02669e-12
9.27635e-10
5.5064e-11
4.65785e-11
-5.52133e-11
-4.79297e-11
1.04341e-13
-1.79788e-12
1.15024e-09
-3.99188e-13
5.71581e-13
1.13951e-09
-4.82435e-14
-3.98155e-13
1.13374e-09
-1.49002e-13
1.75708e-13
1.13358e-09
-1.3311e-13
-1.7237e-13
1.13383e-09
-1.79108e-13
-3.36327e-14
1.13473e-09
-1.77486e-13
-1.99796e-13
1.1359e-09
-1.80203e-13
-1.794e-13
1.13717e-09
-1.53069e-13
-2.64089e-13
1.13822e-09
-1.16516e-13
-2.77137e-13
1.13912e-09
-6.38854e-14
-3.16997e-13
1.13966e-09
-3.25453e-13
1.13997e-09
-2.5164e-13
-9.49128e-13
7.92287e-10
5.78449e-11
4.4463e-11
-5.66686e-11
-4.48414e-11
4.82946e-11
4.2645e-11
-4.81868e-11
-4.23081e-11
8.95271e-13
8.81183e-13
1.16336e-09
-1.44708e-13
-7.57109e-13
1.15729e-09
1.77074e-14
3.6208e-13
1.13932e-09
-1.28569e-13
-2.83873e-13
1.13637e-09
-1.52672e-13
1.39518e-13
1.13582e-09
-2.12935e-13
-1.41477e-13
1.13575e-09
-2.48338e-13
-2.98033e-14
1.1364e-09
-2.66876e-13
-1.70927e-13
1.13719e-09
-2.64832e-13
-1.51943e-13
1.13828e-09
-2.29722e-13
-2.29021e-13
1.13925e-09
-1.76453e-13
-2.40484e-13
1.14001e-09
-9.62389e-14
-2.77911e-13
1.14058e-09
-2.84162e-13
1.14089e-09
-2.90883e-13
-1.64912e-14
1.0021e-09
4.00555e-11
5.7438e-11
-4.06985e-11
-5.73991e-11
-4.03917e-14
6.39066e-13
1.17396e-09
-1.83523e-13
-6.06642e-13
1.14524e-09
-1.30165e-13
2.591e-13
1.13715e-09
-1.76849e-13
-2.75611e-13
1.13639e-09
-2.04324e-13
1.0418e-13
1.13637e-09
-2.44336e-13
-1.26818e-13
1.13665e-09
-2.75342e-13
-2.3907e-14
1.13738e-09
-2.86296e-13
-1.36897e-13
1.13816e-09
-2.7777e-13
-1.15047e-13
1.13913e-09
-2.41005e-13
-1.75067e-13
1.1401e-09
-1.81486e-13
-1.80668e-13
1.14094e-09
-1.00301e-13
-2.09285e-13
1.14153e-09
-2.12823e-13
1.14189e-09
-2.01168e-11
-1.97075e-12
-1.3083e-11
2.03484e-12
3.31357e-11
-5.08078e-14
-2.0689e-13
9.03605e-10
6.60245e-11
6.46974e-11
-6.59225e-11
-6.45217e-11
2.84936e-13
2.89498e-13
1.13315e-09
-7.53175e-14
-2.58386e-13
1.13161e-09
-9.10826e-15
1.38917e-13
1.13206e-09
-1.87762e-13
-1.29694e-13
1.13425e-09
-1.97596e-13
5.38674e-14
1.13574e-09
-2.7996e-13
-6.41392e-14
1.13674e-09
-3.053e-13
-1.42583e-14
1.13778e-09
-3.29338e-13
-7.22969e-14
1.13866e-09
-3.17327e-13
-6.22746e-14
1.13966e-09
-2.78436e-13
-9.47957e-14
1.14062e-09
-2.0997e-13
-9.88639e-14
1.14162e-09
-1.14353e-13
-1.13005e-13
1.14239e-09
-1.18435e-13
1.14286e-09
-3.94979e-11
-1.41161e-12
-1.44306e-11
5.96824e-13
5.47433e-11
-1.64532e-13
9.00184e-10
6.28173e-11
6.20284e-11
-6.28187e-11
-6.20282e-11
1.12624e-13
1.12173e-09
-1.45684e-13
1.12407e-09
-5.82792e-14
1.12794e-09
-2.17031e-13
1.13248e-09
-2.22102e-13
1.13521e-09
-2.99046e-13
1.13678e-09
-3.18832e-13
1.13803e-09
-3.40604e-13
1.13898e-09
-3.25625e-13
1.13997e-09
-2.84614e-13
1.1409e-09
-2.13586e-13
1.1419e-09
-1.19168e-13
1.14287e-09
1.14365e-09
-2.01202e-11
-1.97061e-12
2.03466e-12
-1.30872e-11
3.31433e-11
-3.95033e-11
-1.41176e-12
5.96657e-13
-1.44357e-11
5.47541e-11
-1.41269e-11
8.39161e-13
-8.00486e-12
2.12926e-11
-4.50545e-11
2.57034e-12
-1.24038e-11
-1.013e-11
6.50179e-11
-9.49981e-13
-2.43859e-13
7.92251e-10
4.83078e-11
4.26553e-11
-4.82002e-11
-4.23217e-11
5.78573e-11
4.44802e-11
-5.6692e-11
-4.48548e-11
-2.6982e-14
-2.96164e-13
1.00208e-09
4.00694e-11
5.74522e-11
-4.07073e-11
-5.74165e-11
-2.18747e-13
-6.0312e-14
9.03583e-10
6.60421e-11
6.47165e-11
-6.59416e-11
-6.4538e-11
-2.20785e-13
9.00191e-10
6.2836e-11
6.20471e-11
-6.28355e-11
-6.20447e-11
-1.38048e-11
3.1025e-12
-1.08483e-11
2.15506e-11
-7.07199e-11
2.95431e-12
1.8931e-12
-1.40758e-11
-1.28041e-11
9.27524e-11
-8.63314e-13
-2.11483e-13
7.56369e-10
6.16426e-11
5.7969e-11
-6.09139e-11
-5.75253e-11
6.50549e-11
4.47176e-11
-6.46503e-11
-4.52264e-11
1.98686e-12
-1.38299e-12
9.27681e-10
5.50821e-11
4.65918e-11
-5.52224e-11
-4.79359e-11
8.67084e-13
8.53824e-13
1.1634e-09
6.29929e-13
-7.48132e-14
1.174e-09
2.95618e-13
2.22675e-13
1.13321e-09
5.77918e-14
1.12176e-09
-3.05836e-11
-2.66198e-12
-5.98777e-12
-1.02593e-11
4.94927e-11
-1.81615e-12
-2.27899e-13
7.81337e-10
6.28376e-11
5.84947e-11
-6.19263e-11
-5.79533e-11
5.84085e-11
4.37828e-11
-5.72341e-11
-4.43644e-11
8.28861e-13
-1.52236e-12
9.07645e-10
5.89682e-11
4.69969e-11
-5.89601e-11
-4.81462e-11
-3.80659e-13
9.99657e-13
1.13618e-09
-1.84626e-12
5.47981e-14
1.15032e-09
-7.97062e-13
-2.09201e-13
1.15732e-09
-6.27958e-13
-2.66483e-13
1.1453e-09
-2.77029e-13
-1.62451e-13
1.13167e-09
-2.45327e-13
1.12411e-09
-1.16194e-12
9.28049e-13
7.48408e-10
5.05589e-11
5.68191e-11
-5.08002e-11
-5.63481e-11
4.31474e-11
3.36285e-11
-4.2175e-11
-3.45873e-11
1.85927e-12
-1.8521e-12
9.05874e-10
5.28598e-11
4.52517e-11
-5.30352e-11
-4.62666e-11
4.47479e-13
1.17007e-12
1.14046e-09
-1.0278e-12
-8.12943e-14
1.1409e-09
9.05418e-14
-1.60357e-13
1.14432e-09
5.57498e-13
-4.81083e-13
1.13965e-09
3.4541e-13
-8.57187e-14
1.13945e-09
2.45713e-13
-2.56976e-13
1.13728e-09
1.33687e-13
-1.4401e-13
1.13218e-09
-2.03962e-13
1.12805e-09
9.24222e-13
-1.16219e-12
7.47507e-10
4.31994e-11
3.37933e-11
-4.22275e-11
-3.47471e-11
5.05203e-11
5.68112e-11
-5.07632e-11
-5.63383e-11
9.24588e-13
9.22543e-13
1.12852e-09
-1.47792e-12
5.16965e-13
1.12634e-09
-6.09428e-14
-2.70435e-13
1.13425e-09
8.60205e-14
-2.82964e-13
1.13028e-09
-5.9934e-14
-7.43618e-14
1.13054e-09
-4.58933e-13
-1.60195e-13
1.13388e-09
-3.31688e-13
-2.72705e-13
1.13648e-09
-3.18184e-13
-3.35048e-13
1.13649e-09
-1.5126e-13
-3.60934e-13
1.13433e-09
-3.99623e-13
1.13254e-09
-3.05644e-11
-2.67276e-12
-1.02658e-11
-5.9738e-12
4.94768e-11
-1.85343e-12
1.86075e-12
9.05142e-10
5.28619e-11
4.5273e-11
-5.30373e-11
-4.62883e-11
5.13972e-13
-1.47862e-12
1.12621e-09
4.97973e-13
4.60586e-13
1.12022e-09
3.53887e-13
-1.83765e-13
1.12057e-09
-2.37262e-14
-9.24912e-15
1.12571e-09
6.43593e-14
-2.42277e-13
1.13005e-09
1.10455e-13
-2.97755e-13
1.13372e-09
8.26413e-14
-3.32135e-13
1.13594e-09
6.71305e-14
-4.02934e-13
1.13649e-09
3.50814e-14
-4.11528e-13
1.13584e-09
-4.42077e-13
1.1353e-09
-1.38045e-11
-1.08509e-11
3.10411e-12
2.15513e-11
-2.26646e-13
-1.81599e-12
7.81126e-10
5.83914e-11
4.3763e-11
-5.72174e-11
-4.43457e-11
6.2841e-11
5.85023e-11
-6.19293e-11
-5.79606e-11
1.17205e-12
4.48367e-13
1.14005e-09
-2.73347e-13
-5.81059e-14
1.13397e-09
-1.81696e-13
3.00132e-13
1.12075e-09
-2.15166e-13
-2.09648e-13
1.12351e-09
-1.89835e-13
-1.16419e-13
1.1277e-09
-2.21718e-13
-2.71589e-13
1.13111e-09
-2.73222e-13
-3.03238e-13
1.13392e-09
-2.24181e-13
-4.16062e-13
1.13582e-09
-2.00339e-13
-4.64657e-13
1.13671e-09
-1.05446e-13
-5.19613e-13
1.13677e-09
-5.44983e-13
1.1368e-09
-7.07197e-11
1.89134e-12
2.95514e-12
-1.28062e-11
-1.40745e-11
9.27539e-11
-1.52203e-12
8.29021e-13
9.07487e-10
5.8974e-11
4.70041e-11
-5.89656e-11
-4.81537e-11
-7.98924e-14
-1.02728e-12
1.14065e-09
-2.73095e-13
8.38671e-14
1.13009e-09
-2.37786e-14
-3.64251e-14
1.12567e-09
-1.20185e-13
-1.91396e-13
1.12779e-09
-1.63292e-13
-1.62141e-13
1.13036e-09
-1.61296e-13
-3.33329e-13
1.13269e-09
-1.52916e-13
-3.66024e-13
1.13481e-09
-1.31021e-13
-4.68227e-13
1.13644e-09
-9.74892e-14