/*--------------------------------*- C++ -*----------------------------------*\
| =========                 |                                                 |
| \\      /  F ield         | OpenFOAM: The Open Source CFD Toolbox           |
|  \\    /   O peration     | Version:  2.1.1                                 |
|   \\  /    A nd           | Web:      www.OpenFOAM.org                      |
|    \\/     M anipulation  |                                                 |
\*---------------------------------------------------------------------------*/
FoamFile
{
    version     2.0;
    format      ascii;
    class       volVectorField;
    location    "0.001";
    object      U;
}
// * * * * * * * * * * * * * * * * * * * * * * * * * * * * * * * * * * * * * //

dimensions      [0 1 -1 0 0 0 0];

internalField   nonuniform List<vector> 
10191
(
(0.000525688 -0.00388507 0.0145445)
(0.000179354 -0.00493717 0.0212922)
(0.000624017 -0.00166286 0.0142068)
(-0.00365141 -0.00437081 0.0214757)
(-0.000361967 -0.000472964 0.0782092)
(0.000116894 -0.000146297 0.0964417)
(-9.17964e-05 -0.000251931 0.0914928)
(3.4798e-05 -0.000238225 0.0910864)
(0.000953003 -0.00285964 0.0144378)
(-0.00435414 -0.00497824 0.0263914)
(-0.000394405 -0.000328674 0.0754545)
(0.000209146 -0.000265143 0.0911373)
(0.000173728 0.00038564 0.113482)
(4.79746e-05 0.000107419 0.11491)
(5.75066e-05 0.000231909 0.112663)
(1.32313e-05 0.000198437 0.112432)
(-0.00235304 -0.00510798 0.0176709)
(-0.000407941 -0.000390604 0.0771194)
(6.39151e-05 -0.00034327 0.0901299)
(0.000122733 0.000290413 0.112583)
(-0.000159815 8.20231e-05 0.113407)
(-0.0001127 -9.22335e-05 0.113558)
(-2.98927e-05 -6.8737e-05 0.112576)
(-5.39242e-05 -9.98583e-05 0.112024)
(5.66516e-06 -0.0001053 0.111827)
(-0.000577401 -0.000449383 0.0733088)
(0.000255653 -0.000342922 0.091172)
(0.000182257 0.000327813 0.112764)
(-6.69216e-05 0.000106875 0.113012)
(-5.19618e-05 -9.0537e-06 0.113185)
(9.29484e-05 -2.759e-05 0.112392)
(6.18569e-05 8.90292e-05 0.112118)
(4.37048e-05 7.29682e-05 0.111991)
(2.91674e-05 0.000116502 0.111834)
(1.04995e-05 0.000114995 0.111695)
(-0.000450589 -0.000577979 0.0732636)
(0.000547082 0.000546133 0.113076)
(-0.000258062 7.69127e-05 0.112985)
(1.31462e-05 -1.68841e-05 0.112797)
(1.28947e-05 -6.01403e-05 0.112052)
(4.7648e-05 3.53939e-05 0.111815)
(-1.5689e-05 1.64074e-05 0.11189)
(-1.43105e-05 -8.28271e-06 0.11199)
(-7.92126e-06 -1.17788e-05 0.112002)
(-1.49359e-05 -2.32654e-05 0.11193)
(2.97349e-06 -2.66434e-05 0.111865)
(-0.00511162 -0.00235136 0.0176664)
(-0.000342892 0.000256094 0.0911475)
(7.66787e-05 -0.000258105 0.112977)
(5.77464e-05 5.79241e-05 0.111953)
(8.92663e-05 1.76469e-05 0.111462)
(2.85351e-05 5.90111e-05 0.111607)
(2.13062e-05 2.83286e-05 0.111765)
(4.45808e-05 3.69179e-05 0.111907)
(3.14891e-05 5.79416e-05 0.111992)
(2.97507e-05 5.9539e-05 0.112013)
(1.61964e-05 7.40164e-05 0.111992)
(7.74243e-06 7.48554e-05 0.111971)
(-0.00286053 0.000953471 0.014438)
(-0.000390719 -0.000407998 0.0771111)
(0.000328136 0.000182295 0.112752)
(-1.68492e-05 1.30649e-05 0.11279)
(1.75732e-05 8.93686e-05 0.111462)
(1.14038e-05 1.14335e-05 0.111525)
(2.0776e-05 1.86714e-05 0.111697)
(2.27266e-05 2.52699e-05 0.111827)
(1.29565e-05 2.32473e-05 0.111927)
(8.15977e-06 1.76887e-05 0.111997)
(7.8288e-06 1.60333e-05 0.112029)
(-8.82928e-09 1.21463e-05 0.112035)
(3.66504e-06 1.08921e-05 0.112034)
(-0.00497907 -0.00435383 0.0263915)
(-0.000343292 6.40856e-05 0.0901229)
(0.000106917 -6.67989e-05 0.113004)
(-6.01987e-05 1.28811e-05 0.112045)
(5.89769e-05 2.86133e-05 0.111606)
(1.85893e-05 2.08518e-05 0.111698)
(4.12429e-05 4.13608e-05 0.111799)
(2.56793e-05 3.33543e-05 0.111886)
(3.6797e-05 4.30543e-05 0.111964)
(2.41852e-05 4.71665e-05 0.112024)
(2.42855e-05 5.13737e-05 0.112061)
(1.12691e-05 5.59856e-05 0.112078)
(6.49551e-06 5.71286e-05 0.112086)
(-0.00166292 0.000624072 0.0142068)
(-0.000328642 -0.00039438 0.0754538)
(0.000290398 0.000122725 0.11258)
(-9.04031e-06 -5.20224e-05 0.113181)
(3.54126e-05 4.762e-05 0.111811)
(2.8322e-05 2.12932e-05 0.111763)
(2.52788e-05 2.27152e-05 0.111827)
(3.32872e-05 2.57231e-05 0.111886)
(2.44684e-05 2.45071e-05 0.11195)
(2.66706e-05 2.70749e-05 0.11201)
(1.63702e-05 2.46176e-05 0.11206)
(1.65248e-05 2.56554e-05 0.112096)
(5.67546e-06 2.42157e-05 0.112117)
(4.98421e-06 2.41706e-05 0.112128)
(-0.00437098 -0.00365134 0.0214757)
(-0.000265171 0.0002092 0.091136)
(8.205e-05 -0.000159788 0.113405)
(-2.75887e-05 9.30204e-05 0.112389)
(1.64118e-05 -1.56687e-05 0.111887)
(3.68877e-05 4.46188e-05 0.111905)
(2.32119e-05 1.29601e-05 0.111926)
(4.29866e-05 3.68226e-05 0.111964)
(2.70383e-05 2.67035e-05 0.11201)
(3.6826e-05 3.68737e-05 0.112059)
(2.26771e-05 3.58647e-05 0.112102)
(2.38318e-05 4.03398e-05 0.112137)
(9.79413e-06 4.13131e-05 0.112159)
(6.46481e-06 4.26107e-05 0.112171)
(-0.000472984 -0.00036197 0.0782091)
(0.000385648 0.000173766 0.113481)
(-9.22251e-05 -0.000112709 0.113557)
(8.90337e-05 6.18745e-05 0.112116)
(-8.29208e-06 -1.43321e-05 0.111989)
(5.7911e-05 3.14818e-05 0.111991)
(1.76774e-05 8.14143e-06 0.111996)
(4.7116e-05 2.41929e-05 0.112023)
(2.46031e-05 1.63765e-05 0.11206)
(3.58332e-05 2.26869e-05 0.112103)
(1.98281e-05 1.98357e-05 0.112142)
(2.19454e-05 2.22451e-05 0.112176)
(7.94124e-06 2.13003e-05 0.112199)
(6.07639e-06 2.19161e-05 0.112211)
(-0.000146294 0.000116901 0.0964413)
(0.000107426 4.79946e-05 0.114909)
(-6.87387e-05 -2.98805e-05 0.112575)
(7.29594e-05 4.37242e-05 0.111989)
(-1.17954e-05 -7.91628e-06 0.112001)
(5.95159e-05 2.9776e-05 0.112012)
(1.60115e-05 7.84506e-06 0.112028)
(5.13214e-05 2.43133e-05 0.11206)
(2.56144e-05 1.65615e-05 0.112096)
(4.02997e-05 2.38606e-05 0.112138)
(2.22456e-05 2.19794e-05 0.112177)
(2.52759e-05 2.53277e-05 0.112213)
(9.44664e-06 2.52155e-05 0.112238)
(6.99833e-06 2.62999e-05 0.112253)
(-0.0038851 0.000525715 0.0145445)
(-0.000251924 -9.17889e-05 0.0914925)
(0.000231927 5.7517e-05 0.112662)
(-9.98594e-05 -5.39418e-05 0.112024)
(0.000116496 2.91724e-05 0.111833)
(-2.32656e-05 -1.49432e-05 0.111929)
(7.40024e-05 1.62086e-05 0.111991)
(1.2141e-05 -1.01869e-08 0.112034)
(5.59559e-05 1.12796e-05 0.112077)
(2.41932e-05 5.69203e-06 0.112117)
(4.12721e-05 9.82044e-06 0.112159)
(2.13102e-05 7.95804e-06 0.1122)
(2.51875e-05 9.47453e-06 0.11224)
(8.91686e-06 8.98405e-06 0.112271)
(7.13386e-06 9.46901e-06 0.112291)
(-0.00493719 0.000179376 0.0212922)
(-0.000238229 3.48118e-05 0.0910862)
(0.000198412 1.32515e-05 0.112431)
(-0.000105304 5.6768e-06 0.111827)
(0.000115 1.05175e-05 0.111695)
(-2.66512e-05 2.98444e-06 0.111865)
(7.48413e-05 7.74717e-06 0.11197)
(1.08717e-05 3.67126e-06 0.112034)
(5.70982e-05 6.50089e-06 0.112085)
(2.41449e-05 5.0076e-06 0.112128)
(4.25794e-05 6.51474e-06 0.112171)
(2.19119e-05 6.1104e-06 0.112212)
(2.63013e-05 7.0108e-06 0.112254)
(9.44155e-06 7.22841e-06 0.112291)
(7.56313e-06 7.60392e-06 0.112317)
(0.000525791 -0.00388558 0.0145464)
(0.000179328 -0.00493768 0.0212945)
(0.000624355 -0.00166324 0.0142091)
(-0.00365202 -0.00437151 0.0214783)
(-0.000361466 -0.000470171 0.0782039)
(0.000116702 -0.000144364 0.096437)
(-9.10213e-05 -0.000249325 0.0914873)
(3.45774e-05 -0.0002359 0.0910802)
(0.000953161 -0.00285988 0.0144401)
(-0.00435495 -0.00497873 0.0263945)
(-0.000394639 -0.000326172 0.075449)
(0.000215149 -0.000263559 0.0911327)
(0.000177801 0.000386031 0.113479)
(4.78067e-05 0.000112042 0.114905)
(5.82448e-05 0.000233235 0.11266)
(1.27235e-05 0.000201793 0.11243)
(-0.00235334 -0.0051089 0.017673)
(-0.000406673 -0.000388392 0.0771133)
(7.11859e-05 -0.000339814 0.090128)
(0.000125268 0.000296569 0.112576)
(-0.000161053 8.63187e-05 0.113403)
(-0.000110162 -9.00442e-05 0.113553)
(-2.91786e-05 -6.60693e-05 0.112574)
(-5.39969e-05 -9.7187e-05 0.11202)
(7.4707e-06 -0.00010224 0.111824)
(-0.000576762 -0.000447082 0.0733066)
(0.000259255 -0.000343071 0.091169)
(0.000188059 0.00033908 0.112761)
(-6.45915e-05 0.000109989 0.113007)
(-5.26268e-05 -6.53866e-06 0.113182)
(9.52236e-05 -2.47098e-05 0.112389)
(6.41459e-05 9.39642e-05 0.112116)
(4.43085e-05 7.6004e-05 0.11199)
(3.04676e-05 0.000121894 0.111833)
(1.04114e-05 0.00011907 0.111695)
(-0.000448266 -0.000577664 0.0732613)
(0.00054448 0.000543644 0.113071)
(-0.000253772 8.09516e-05 0.112982)
(1.91055e-05 -1.53996e-05 0.112792)
(1.18914e-05 -5.86155e-05 0.11205)
(4.98335e-05 3.83987e-05 0.111811)
(-1.44669e-05 2.12472e-05 0.111888)
(-1.16596e-05 -4.93071e-06 0.111989)
(-6.69991e-06 -6.8962e-06 0.112001)
(-1.3888e-05 -1.90278e-05 0.111929)
(3.44143e-06 -2.19208e-05 0.111865)
(-0.00511254 -0.00235167 0.0176686)
(-0.000343035 0.00025961 0.0911444)
(8.07061e-05 -0.000253816 0.112974)
(6.51294e-05 6.5351e-05 0.111951)
(9.24537e-05 1.83669e-05 0.11146)
(3.23616e-05 6.359e-05 0.111604)
(2.39017e-05 3.21771e-05 0.111766)
(4.7125e-05 4.23646e-05 0.111907)
(3.37694e-05 6.30394e-05 0.111993)
(3.12751e-05 6.48545e-05 0.112014)
(1.74166e-05 7.95002e-05 0.111993)
(8.0114e-06 8.0322e-05 0.111972)
(-0.00286077 0.000953627 0.0144403)
(-0.000388492 -0.000406749 0.0771051)
(0.00033939 0.000188082 0.112749)
(-1.53509e-05 1.90004e-05 0.112786)
(1.82918e-05 9.25754e-05 0.11146)
(1.44542e-05 1.45099e-05 0.111523)
(2.28672e-05 2.22893e-05 0.111697)
(2.57046e-05 2.89753e-05 0.111827)
(1.53507e-05 2.79925e-05 0.111927)
(1.06296e-05 2.22568e-05 0.111997)
(9.43363e-06 2.11605e-05 0.11203)
(1.21154e-06 1.72746e-05 0.112035)
(4.1251e-06 1.61937e-05 0.112035)
(-0.00497956 -0.00435464 0.0263945)
(-0.000339827 7.13221e-05 0.0901209)
(0.000110037 -6.44718e-05 0.112999)
(-5.86555e-05 1.18808e-05 0.112044)
(6.35577e-05 3.24496e-05 0.111603)
(2.21906e-05 2.29612e-05 0.111698)
(4.56607e-05 4.58021e-05 0.111799)
(2.93452e-05 3.72927e-05 0.111887)
(4.01429e-05 4.8067e-05 0.111966)
(2.68081e-05 5.20022e-05 0.112026)
(2.63602e-05 5.67374e-05 0.112063)
(1.2674e-05 6.13717e-05 0.11208)
(6.87089e-06 6.25372e-05 0.112088)
(-0.0016633 0.000624411 0.0142091)
(-0.00032614 -0.000394611 0.0754482)
(0.000296563 0.000125255 0.112573)
(-6.49985e-06 -5.26851e-05 0.113178)
(3.84456e-05 4.98013e-05 0.111807)
(3.21804e-05 2.38805e-05 0.111764)
(2.89743e-05 2.56861e-05 0.111827)
(3.72086e-05 2.93932e-05 0.111887)
(2.80075e-05 2.80577e-05 0.11195)
(2.99333e-05 3.13185e-05 0.112011)
(1.91576e-05 2.8878e-05 0.112061)
(1.86589e-05 3.03928e-05 0.112098)
(6.93483e-06 2.89263e-05 0.112119)
(5.4509e-06 2.90838e-05 0.11213)
(-0.00437168 -0.00365196 0.0214783)
(-0.000263587 0.000215209 0.0911314)
(8.63521e-05 -0.000161012 0.113401)
(-2.47013e-05 9.52976e-05 0.112387)
(2.12632e-05 -1.44521e-05 0.111886)
(4.23314e-05 4.71452e-05 0.111906)
(2.79515e-05 1.53395e-05 0.111926)
(4.79938e-05 4.0167e-05 0.111965)
(3.12801e-05 2.99652e-05 0.112011)
(4.08691e-05 4.09208e-05 0.112062)
(2.57711e-05 3.98704e-05 0.112104)
(2.63417e-05 4.48504e-05 0.112139)
(1.13713e-05 4.59227e-05 0.112162)
(7.10719e-06 4.75282e-05 0.112174)
(-0.000470188 -0.000361465 0.0782038)
(0.000386041 0.000177848 0.113479)
(-9.00317e-05 -0.000110172 0.113551)
(9.39746e-05 6.4167e-05 0.112114)
(-4.93047e-06 -1.16902e-05 0.111987)
(6.30078e-05 3.37504e-05 0.111992)
(2.22501e-05 1.0603e-05 0.111996)
(5.19444e-05 2.68134e-05 0.112025)
(2.8858e-05 1.91577e-05 0.112061)
(3.98402e-05 2.57749e-05 0.112105)
(2.30721e-05 2.30779e-05 0.112144)
(2.4676e-05 2.58955e-05 0.112178)
(9.60464e-06 2.49885e-05 0.1122)
(6.92327e-06 2.58784e-05 0.112214)
(-0.000144364 0.000116711 0.0964366)
(0.000112046 4.7827e-05 0.114904)
(-6.60701e-05 -2.91542e-05 0.112573)
(7.59947e-05 4.43301e-05 0.111988)
(-6.91601e-06 -6.6931e-06 0.112)
(6.48296e-05 3.12974e-05 0.112013)
(2.11423e-05 9.45143e-06 0.112029)
(5.66791e-05 2.63834e-05 0.112062)
(3.03451e-05 1.86993e-05 0.112098)
(4.48124e-05 2.63735e-05 0.11214)
(2.59042e-05 2.47205e-05 0.112179)
(2.82273e-05 2.82905e-05 0.112215)
(1.13291e-05 2.84149e-05 0.112241)
(7.69355e-06 2.96475e-05 0.112256)
(-0.00388561 0.000525817 0.0145464)
(-0.000249316 -9.10136e-05 0.091487)
(0.000233266 5.82576e-05 0.112659)
(-9.71825e-05 -5.40233e-05 0.11202)
(0.000121885 3.04805e-05 0.111832)
(-1.9023e-05 -1.38935e-05 0.111928)
(7.94864e-05 1.7439e-05 0.111993)
(1.72736e-05 1.21075e-06 0.112035)
(6.13365e-05 1.26839e-05 0.11208)
(2.89035e-05 6.95419e-06 0.112118)
(4.58881e-05 1.14078e-05 0.112162)
(2.50073e-05 9.62247e-06 0.112202)
(2.83779e-05 1.13575e-05 0.112242)
(1.0964e-05 1.10305e-05 0.112273)
(8.05481e-06 1.19995e-05 0.112293)
(-0.00493769 0.000179348 0.0212945)
(-0.000235895 3.4593e-05 0.09108)
(0.000201758 1.27498e-05 0.11243)
(-0.000102237 7.48954e-06 0.111824)
(0.000119086 1.04301e-05 0.111694)
(-2.19295e-05 3.45612e-06 0.111864)
(8.03056e-05 8.01007e-06 0.111972)
(1.61671e-05 4.13368e-06 0.112035)
(6.25041e-05 6.88141e-06 0.112088)
(2.90618e-05 5.47855e-06 0.11213)
(4.74999e-05 7.15759e-06 0.112174)
(2.58715e-05 6.94772e-06 0.112214)
(2.96356e-05 7.70561e-06 0.112257)
(1.19723e-05 8.12037e-06 0.112293)
(8.16901e-06 8.19537e-06 0.11232)
(0.0005258 -0.00388601 0.0145489)
(0.000179269 -0.00493813 0.0212973)
(0.000624669 -0.00166376 0.014212)
(-0.00365255 -0.00437257 0.0214813)
(-0.000360076 -0.000465169 0.0781987)
(0.00011662 -0.000142119 0.096432)
(-9.16532e-05 -0.000246379 0.0914819)
(3.3727e-05 -0.000232569 0.091074)
(0.000953036 -0.00286034 0.0144432)
(-0.00435537 -0.00497904 0.0263986)
(-0.000394518 -0.000323852 0.0754443)
(0.000223439 -0.000261344 0.0911302)
(0.000182513 0.000386004 0.113478)
(4.60814e-05 0.000117364 0.1149)
(6.015e-05 0.000235182 0.112657)
(1.3092e-05 0.000206427 0.112428)
(-0.00235374 -0.00511004 0.0176758)
(-0.000404755 -0.000384743 0.07711)
(7.7946e-05 -0.000335616 0.0901246)
(0.000127507 0.000303957 0.112569)
(-0.000162138 9.19381e-05 0.113399)
(-0.000106564 -8.90739e-05 0.113547)
(-2.72665e-05 -6.2542e-05 0.112571)
(-5.49395e-05 -9.39866e-05 0.112017)
(9.31311e-06 -9.93017e-05 0.111821)
(-0.000575882 -0.000443802 0.073304)
(0.000263736 -0.000341328 0.0911661)
(0.000193166 0.000350403 0.112757)
(-6.29287e-05 0.000113754 0.113002)
(-5.22282e-05 -2.96963e-06 0.11318)
(9.76958e-05 -2.11384e-05 0.112388)
(6.66061e-05 0.000100094 0.112115)
(4.52001e-05 7.8624e-05 0.111989)
(3.20087e-05 0.000127379 0.111833)
(1.04614e-05 0.000123383 0.111695)
(-0.00044503 -0.000576555 0.0732587)
(0.000543215 0.000542334 0.113065)
(-0.000250288 8.55514e-05 0.11298)
(2.4575e-05 -1.41402e-05 0.112787)
(1.15165e-05 -5.65584e-05 0.112048)
(5.17969e-05 4.20027e-05 0.111809)
(-1.29458e-05 2.65174e-05 0.111887)
(-9.07968e-06 -1.17914e-06 0.111987)
(-5.36762e-06 -1.98041e-06 0.112)
(-1.30422e-05 -1.48263e-05 0.111927)
(4.03893e-06 -1.74223e-05 0.111864)
(-0.00511368 -0.00235207 0.0176714)
(-0.000341278 0.000264146 0.0911416)
(8.53159e-05 -0.000250316 0.112972)
(7.21665e-05 7.24492e-05 0.11195)
(9.49005e-05 2.0159e-05 0.11146)
(3.6322e-05 6.81968e-05 0.111602)
(2.74252e-05 3.66586e-05 0.111765)
(4.96349e-05 4.79162e-05 0.111908)
(3.58106e-05 6.83332e-05 0.111994)
(3.26566e-05 6.99953e-05 0.112015)
(1.86413e-05 8.50961e-05 0.111995)
(8.50195e-06 8.57234e-05 0.111974)
(-0.00286123 0.000953498 0.0144433)
(-0.000384825 -0.00040484 0.0771017)
(0.000350711 0.000193201 0.112746)
(-1.4048e-05 2.44742e-05 0.112781)
(2.00684e-05 9.50881e-05 0.11146)
(1.73604e-05 1.74865e-05 0.111522)
(2.5116e-05 2.66532e-05 0.111697)
(2.85152e-05 3.23711e-05 0.111826)
(1.75861e-05 3.25131e-05 0.111928)
(1.2739e-05 2.65746e-05 0.111997)
(1.10625e-05 2.63693e-05 0.11203)
(2.34328e-06 2.23478e-05 0.112035)
(4.56474e-06 2.14143e-05 0.112035)
(-0.00497987 -0.00435505 0.0263986)
(-0.000335606 7.80521e-05 0.0901175)
(0.000113845 -6.28045e-05 0.112995)
(-5.65388e-05 1.15162e-05 0.112042)
(6.81652e-05 3.64323e-05 0.111602)
(2.64918e-05 2.52479e-05 0.111698)
(4.99944e-05 5.01938e-05 0.1118)
(3.29515e-05 4.11516e-05 0.111888)
(4.35003e-05 5.29561e-05 0.111967)
(2.94899e-05 5.6769e-05 0.112027)
(2.84846e-05 6.19922e-05 0.112065)
(1.39234e-05 6.654e-05 0.112082)
(7.46664e-06 6.79864e-05 0.11209)
(-0.00166382 0.000624722 0.014212)
(-0.000323811 -0.000394484 0.0754435)
(0.000303959 0.000127497 0.112566)
(-2.89029e-06 -5.2284e-05 0.113175)
(4.21144e-05 5.17433e-05 0.111805)
(3.66688e-05 2.73581e-05 0.111764)
(3.23384e-05 2.84742e-05 0.111826)
(4.10313e-05 3.30106e-05 0.111888)
(3.13042e-05 3.13759e-05 0.11195)
(3.30418e-05 3.53951e-05 0.112012)
(2.15913e-05 3.26965e-05 0.112061)
(2.06616e-05 3.47486e-05 0.112098)
(8.25195e-06 3.33326e-05 0.112118)
(6.11971e-06 3.37834e-05 0.11213)
(-0.00437274 -0.00365249 0.0214813)
(-0.000261367 0.000223506 0.0911289)
(9.19868e-05 -0.000162091 0.113397)
(-2.11122e-05 9.77786e-05 0.112386)
(2.65489e-05 -1.29558e-05 0.111885)
(4.788e-05 4.96037e-05 0.111906)
(3.24645e-05 1.75451e-05 0.111927)
(5.28685e-05 4.35178e-05 0.111967)
(3.5349e-05 3.30759e-05 0.112012)
(4.47111e-05 4.4772e-05 0.112063)
(2.87034e-05 4.37743e-05 0.112105)
(2.90338e-05 4.93757e-05 0.11214)
(1.2959e-05 5.05074e-05 0.112162)
(7.91009e-06 5.21814e-05 0.112175)
(-0.000465182 -0.000360071 0.0781986)
(0.000386018 0.000182571 0.113477)
(-8.90515e-05 -0.000106575 0.113546)
(0.000100116 6.66244e-05 0.112114)
(-1.17257e-06 -9.13467e-06 0.111985)
(6.83016e-05 3.57383e-05 0.111993)
(2.65786e-05 1.26883e-05 0.111996)
(5.67017e-05 2.9484e-05 0.112027)
(3.26716e-05 2.15827e-05 0.112061)
(4.37424e-05 2.87016e-05 0.112105)
(2.61704e-05 2.61804e-05 0.112143)
(2.73488e-05 2.93016e-05 0.112178)
(1.10445e-05 2.85833e-05 0.112199)
(7.69409e-06 2.95944e-05 0.112213)
(-0.000142119 0.000116631 0.0964316)
(0.000117367 4.61018e-05 0.1149)
(-6.25407e-05 -2.72445e-05 0.11257)
(7.86084e-05 4.52222e-05 0.111988)
(-2.03457e-06 -5.36231e-06 0.111999)
(6.99683e-05 3.2676e-05 0.112014)
(2.63852e-05 1.10842e-05 0.112029)
(6.19314e-05 2.85045e-05 0.112064)
(3.46971e-05 2.0711e-05 0.112098)
(4.93434e-05 2.9075e-05 0.112141)
(2.93185e-05 2.741e-05 0.112179)
(3.14043e-05 3.14874e-05 0.112215)
(1.32158e-05 3.18405e-05 0.11224)
(8.61615e-06 3.34488e-05 0.112255)
(-0.00388605 0.000525823 0.0145489)
(-0.000246371 -9.16455e-05 0.0914816)
(0.000235212 6.01696e-05 0.112657)
(-9.39724e-05 -5.49601e-05 0.112017)
(0.000127382 3.20302e-05 0.111832)
(-1.48178e-05 -1.30381e-05 0.111926)
(8.50893e-05 1.87364e-05 0.111994)
(2.23587e-05 2.3462e-06 0.112034)
(6.65001e-05 1.39339e-05 0.112081)
(3.33141e-05 8.2745e-06 0.112118)
(5.04769e-05 1.29966e-05 0.112162)
(2.86062e-05 1.10533e-05 0.112201)
(3.17887e-05 1.32476e-05 0.112242)
(1.30054e-05 1.30763e-05 0.112272)
(9.17222e-06 1.39123e-05 0.112293)
(-0.00493814 0.000179286 0.0212973)
(-0.000232549 3.3745e-05 0.0910738)
(0.000206399 1.31265e-05 0.112428)
(-9.92952e-05 9.34099e-06 0.111821)
(0.000123398 1.04827e-05 0.111695)
(-1.74009e-05 4.06362e-06 0.111863)
(8.57e-05 8.51757e-06 0.111974)
(2.13506e-05 4.58029e-06 0.112035)
(6.79513e-05 7.48191e-06 0.11209)
(3.37576e-05 6.15115e-06 0.11213)
(5.21495e-05 7.94983e-06 0.112175)
(2.95957e-05 7.71855e-06 0.112213)
(3.34318e-05 8.62294e-06 0.112256)
(1.38829e-05 9.22349e-06 0.112293)
(9.23089e-06 9.25618e-06 0.112318)
(0.00052569 -0.00388658 0.014552)
(0.000179274 -0.00493866 0.021301)
(0.000624969 -0.0016643 0.0142156)
(-0.00365306 -0.0043738 0.0214855)
(-0.000358667 -0.000458915 0.0781935)
(0.000116321 -0.000139415 0.0964272)
(-9.3217e-05 -0.0002425 0.0914766)
(3.27556e-05 -0.000228553 0.0910698)
(0.000953163 -0.00286094 0.0144469)
(-0.00435612 -0.00497977 0.0264034)
(-0.000393078 -0.000321902 0.0754414)
(0.000233392 -0.000258554 0.0911299)
(0.000185652 0.000386157 0.113476)
(4.39451e-05 0.000121793 0.114897)
(6.28008e-05 0.000237647 0.112656)
(1.34401e-05 0.000211326 0.112426)
(-0.00235417 -0.00511124 0.0176794)
(-0.000402525 -0.000381063 0.0771081)
(8.282e-05 -0.000330992 0.0901226)
(0.000129483 0.000312187 0.112564)
(-0.000162804 9.6489e-05 0.113396)
(-0.000103913 -8.83377e-05 0.113543)
(-2.512e-05 -5.82744e-05 0.112567)
(-5.57553e-05 -9.08015e-05 0.112015)
(1.07095e-05 -9.63641e-05 0.111818)
(-0.000574238 -0.000439928 0.0733014)
(0.000267964 -0.000338979 0.0911647)
(0.000197577 0.000360033 0.112753)
(-6.10852e-05 0.000117379 0.113)
(-5.11736e-05 1.34009e-06 0.113178)
(0.000101025 -1.74196e-05 0.112388)
(6.93478e-05 0.000106383 0.112117)
(4.59595e-05 8.18128e-05 0.111991)
(3.36186e-05 0.00013255 0.111834)
(1.06035e-05 0.00012768 0.111697)
(-0.000441127 -0.000575049 0.0732562)
(0.000542929 0.000542088 0.113062)
(-0.000247726 9.06405e-05 0.112978)
(2.91409e-05 -1.21879e-05 0.112784)
(1.15864e-05 -5.42987e-05 0.112047)
(5.38656e-05 4.54348e-05 0.111808)
(-1.16034e-05 3.16217e-05 0.111888)
(-7.04995e-06 2.06731e-06 0.111985)
(-4.25793e-06 2.70253e-06 0.112)
(-1.26381e-05 -1.07879e-05 0.111926)
(4.54889e-06 -1.33819e-05 0.111862)
(-0.00511488 -0.00235249 0.017675)
(-0.00033892 0.000268336 0.0911402)
(9.04099e-05 -0.000247728 0.112971)
(7.88787e-05 7.91064e-05 0.111951)
(9.63104e-05 2.2319e-05 0.111459)
(3.95613e-05 7.29238e-05 0.111604)
(3.11974e-05 4.09249e-05 0.111766)
(5.26289e-05 5.2868e-05 0.111909)
(3.80527e-05 7.32035e-05 0.111996)
(3.4269e-05 7.46708e-05 0.112017)
(1.97332e-05 9.0295e-05 0.111997)
(8.54346e-06 9.07803e-05 0.111976)
(-0.00286183 0.00095362 0.014447)
(-0.000381124 -0.000402613 0.0770998)
(0.000360356 0.000197623 0.112742)
(-1.21598e-05 2.91306e-05 0.112777)
(2.2204e-05 9.69874e-05 0.11146)
(1.99083e-05 2.00771e-05 0.11152)
(2.71978e-05 3.1331e-05 0.111698)
(3.0686e-05 3.562e-05 0.111826)
(1.94145e-05 3.67048e-05 0.111928)
(1.44226e-05 3.0166e-05 0.111995)
(1.24914e-05 3.06565e-05 0.112029)
(3.15576e-06 2.62186e-05 0.112033)
(4.80816e-06 2.56485e-05 0.112033)
(-0.0049806 -0.00435579 0.0264035)
(-0.000330948 8.29067e-05 0.0901155)
(0.000117591 -6.09438e-05 0.112992)
(-5.38009e-05 1.16122e-05 0.112041)
(7.28931e-05 3.9888e-05 0.111603)
(3.06848e-05 2.73974e-05 0.111699)
(5.38369e-05 5.41813e-05 0.111802)
(3.61494e-05 4.46109e-05 0.111889)
(4.67459e-05 5.73736e-05 0.111969)
(3.17699e-05 6.07983e-05 0.112027)
(3.03608e-05 6.65661e-05 0.112065)
(1.49772e-05 7.09911e-05 0.112082)
(7.98464e-06 7.25876e-05 0.11209)
(-0.00166437 0.000625021 0.0142156)
(-0.000321846 -0.000393036 0.0754406)
(0.000312215 0.000129468 0.112561)
(1.48125e-06 -5.12502e-05 0.113173)
(4.56865e-05 5.37101e-05 0.111803)
(4.09495e-05 3.06664e-05 0.111764)
(3.54788e-05 3.05481e-05 0.111825)
(4.44233e-05 3.62203e-05 0.111889)
(3.389e-05 3.39906e-05 0.111949)
(3.53969e-05 3.86537e-05 0.112011)
(2.33797e-05 3.55979e-05 0.112058)
(2.24755e-05 3.83201e-05 0.112095)
(9.07754e-06 3.66814e-05 0.112114)
(6.5762e-06 3.73336e-05 0.112126)
(-0.00437397 -0.00365301 0.0214854)
(-0.000258579 0.000233465 0.0911285)
(9.6537e-05 -0.000162758 0.113394)
(-1.73687e-05 0.0001011 0.112385)
(3.16945e-05 -1.16592e-05 0.111885)
(5.28343e-05 5.2475e-05 0.111908)
(3.66444e-05 1.93185e-05 0.111927)
(5.72652e-05 4.67507e-05 0.111968)
(3.85996e-05 3.54351e-05 0.112011)
(4.82234e-05 4.8299e-05 0.112062)
(3.12597e-05 4.73295e-05 0.112102)
(3.13301e-05 5.34039e-05 0.112138)
(1.39817e-05 5.46753e-05 0.112159)
(8.56463e-06 5.66443e-05 0.112171)
(-0.000458929 -0.00035866 0.0781934)
(0.000386175 0.000185721 0.113475)
(-8.83035e-05 -0.000103919 0.113542)
(0.000106422 6.93816e-05 0.112115)
(2.10081e-06 -7.11983e-06 0.111984)
(7.3175e-05 3.79874e-05 0.111995)
(3.01686e-05 1.4358e-05 0.111994)
(6.07161e-05 3.17529e-05 0.112027)
(3.55729e-05 2.3363e-05 0.112058)
(4.72938e-05 3.12572e-05 0.112103)
(2.84467e-05 2.84687e-05 0.112139)
(2.97575e-05 3.21849e-05 0.112173)
(1.2292e-05 3.17215e-05 0.112194)
(8.50609e-06 3.29903e-05 0.112207)
(-0.000139416 0.000116334 0.0964269)
(0.000121798 4.39711e-05 0.114896)
(-5.82711e-05 -2.50959e-05 0.112566)
(8.18016e-05 4.59867e-05 0.111989)
(2.68181e-06 -4.25675e-06 0.111998)
(7.46479e-05 3.42797e-05 0.112016)
(3.06422e-05 1.25063e-05 0.112028)
(6.64859e-05 3.0381e-05 0.112065)
(3.8269e-05 2.25431e-05 0.112095)
(5.33794e-05 3.13846e-05 0.112139)
(3.22059e-05 2.98497e-05 0.112174)
(3.45372e-05 3.46554e-05 0.112211)
(1.47291e-05 3.5037e-05 0.112235)
(9.85917e-06 3.71896e-05 0.11225)
(-0.00388661 0.000525713 0.014552)
(-0.000242495 -9.3202e-05 0.0914763)
(0.000237679 6.2826e-05 0.112656)
(-9.07764e-05 -5.57722e-05 0.112014)
(0.000132565 3.3647e-05 0.111833)
(-1.0765e-05 -1.26534e-05 0.111925)
(9.02907e-05 1.97601e-05 0.111996)
(2.6239e-05 3.13036e-06 0.112033)
(7.09612e-05 1.49822e-05 0.112081)
(3.6672e-05 9.09593e-06 0.112114)
(5.46511e-05 1.40106e-05 0.112159)
(3.17516e-05 1.22796e-05 0.112196)
(3.49563e-05 1.47597e-05 0.112236)
(1.48162e-05 1.48812e-05 0.112266)
(1.03489e-05 1.65364e-05 0.112286)
(-0.00493867 0.000179288 0.021301)
(-0.000228532 3.2786e-05 0.0910697)
(0.000211294 1.3478e-05 0.112426)
(-9.6354e-05 1.07455e-05 0.111817)
(0.000127677 1.06263e-05 0.111697)
(-1.34023e-05 4.58103e-06 0.111862)
(9.0753e-05 8.56286e-06 0.111976)
(2.56187e-05 4.83867e-06 0.112033)
(7.25586e-05 8.00095e-06 0.11209)
(3.73049e-05 6.61742e-06 0.112126)
(5.66073e-05 8.59996e-06 0.112171)
(3.30007e-05 8.53837e-06 0.112207)
(3.71546e-05 9.86053e-06 0.11225)
(1.65091e-05 1.03926e-05 0.112286)
(1.12487e-05 1.12787e-05 0.112313)
(0.000525619 -0.00388725 0.0145559)
(0.000179355 -0.00493943 0.0213058)
(0.000625435 -0.00166496 0.0142199)
(-0.0036539 -0.00437529 0.0214901)
(-0.000357069 -0.000451785 0.0781885)
(0.000115836 -0.000136321 0.0964236)
(-9.4455e-05 -0.000237643 0.0914735)
(3.30413e-05 -0.000224513 0.0910683)
(0.000953217 -0.00286181 0.0144513)
(-0.00435671 -0.00498062 0.0264094)
(-0.000391024 -0.000319535 0.075441)
(0.000243167 -0.000255125 0.0911298)
(0.000187884 0.000386214 0.113475)
(4.22685e-05 0.000125006 0.114895)
(6.52387e-05 0.00024027 0.112657)
(1.24203e-05 0.000214526 0.112425)
(-0.00235457 -0.00511274 0.0176837)
(-0.000399716 -0.000376839 0.0771069)
(8.60872e-05 -0.000326249 0.0901231)
(0.00013071 0.000319214 0.112561)
(-0.000163994 0.000100553 0.113395)
(-0.000102546 -8.73919e-05 0.11354)
(-2.27811e-05 -5.35038e-05 0.112565)
(-5.66394e-05 -8.83352e-05 0.112013)
(1.15551e-05 -9.27141e-05 0.111815)
(-0.000571743 -0.000434948 0.0732996)
(0.000272248 -0.000336064 0.0911662)
(0.000200952 0.000367859 0.112752)
(-5.9643e-05 0.000120213 0.112999)
(-4.97677e-05 5.806e-06 0.113177)
(0.00010571 -1.37386e-05 0.11239)
(7.22263e-05 0.000112435 0.11212)
(4.63018e-05 8.50104e-05 0.111994)
(3.53074e-05 0.000136796 0.111838)
(1.07855e-05 0.000131295 0.111701)
(-0.000436183 -0.000572454 0.0732544)
(0.000543431 0.000542586 0.113061)
(-0.000246673 9.58649e-05 0.112978)
(3.29123e-05 -1.06446e-05 0.112782)
(1.20716e-05 -5.09469e-05 0.112047)
(5.60081e-05 4.87993e-05 0.111808)
(-1.12102e-05 3.60139e-05 0.11189)
(-6.28085e-06 3.89961e-06 0.111984)
(-3.62856e-06 6.43155e-06 0.111999)
(-1.2978e-05 -7.87544e-06 0.111923)
(4.8677e-06 -1.04867e-05 0.11186)
(-0.00511637 -0.0023529 0.0176792)
(-0.000335978 0.000272625 0.0911416)
(9.56538e-05 -0.000246583 0.112971)
(8.46468e-05 8.54065e-05 0.111954)
(9.7667e-05 2.43982e-05 0.11146)
(4.27297e-05 7.73741e-05 0.111609)
(3.34696e-05 4.40686e-05 0.111767)
(5.5582e-05 5.6219e-05 0.111912)
(4.0173e-05 7.70447e-05 0.111998)
(3.5781e-05 7.83844e-05 0.11202)
(2.07438e-05 9.40747e-05 0.111999)
(8.75765e-06 9.45819e-05 0.111978)
(-0.00286271 0.000953673 0.0144513)
(-0.000376897 -0.000399816 0.0770985)
(0.000368276 0.000200994 0.11274)
(-1.00957e-05 3.28089e-05 0.112775)
(2.41947e-05 9.80077e-05 0.111461)
(2.17378e-05 2.23419e-05 0.11152)
(2.86098e-05 3.44538e-05 0.1117)
(3.15712e-05 3.77643e-05 0.111825)
(2.03633e-05 3.96735e-05 0.111928)
(1.54718e-05 3.19013e-05 0.111993)
(1.30439e-05 3.28633e-05 0.112027)
(2.93159e-06 2.79946e-05 0.112029)
(5.15618e-06 2.76211e-05 0.112029)
(-0.00498145 -0.00435638 0.0264095)
(-0.000326205 8.61612e-05 0.090116)
(0.000120385 -5.95068e-05 0.112992)
(-5.07629e-05 1.19555e-05 0.112041)
(7.73369e-05 4.2463e-05 0.111608)
(3.41456e-05 2.87851e-05 0.1117)
(5.6812e-05 5.71039e-05 0.111805)
(3.81662e-05 4.69553e-05 0.111888)
(4.91803e-05 6.03163e-05 0.111969)
(3.30576e-05 6.30213e-05 0.112026)
(3.18926e-05 6.91249e-05 0.112063)
(1.5772e-05 7.36335e-05 0.112078)
(8.33287e-06 7.54143e-05 0.112086)
(-0.00166503 0.000625487 0.0142198)
(-0.000319472 -0.000390983 0.0754402)
(0.000319238 0.000130692 0.112558)
(5.92039e-06 -4.98485e-05 0.113173)
(4.89925e-05 5.5884e-05 0.111804)
(4.41115e-05 3.32489e-05 0.111765)
(3.77293e-05 3.14836e-05 0.111825)
(4.67965e-05 3.8235e-05 0.111888)
(3.47774e-05 3.48861e-05 0.111947)
(3.61706e-05 4.04252e-05 0.112008)
(2.39793e-05 3.66541e-05 0.112053)
(2.33964e-05 3.99765e-05 0.11209)
(9.09838e-06 3.79303e-05 0.112108)
(6.93921e-06 3.90428e-05 0.112119)
(-0.00437546 -0.00365384 0.02149)
(-0.000255158 0.000243248 0.0911285)
(0.000100596 -0.000163943 0.113393)
(-1.36919e-05 0.000105807 0.112387)
(3.60927e-05 -1.12256e-05 0.111887)
(5.61926e-05 5.55263e-05 0.11191)
(3.96366e-05 2.02973e-05 0.111927)
(6.02179e-05 4.91896e-05 0.111968)
(4.03787e-05 3.62153e-05 0.112008)
(5.07945e-05 5.08973e-05 0.112058)
(3.2385e-05 4.9665e-05 0.112096)
(3.30147e-05 5.65514e-05 0.11213)
(1.48086e-05 5.82538e-05 0.11215)
(9.10822e-06 6.06564e-05 0.112161)
(-0.000451798 -0.000357062 0.0781884)
(0.000386238 0.000187971 0.113475)
(-8.73461e-05 -0.000102552 0.113539)
(0.000112484 7.22846e-05 0.112119)
(3.95346e-06 -6.34411e-06 0.111983)
(7.70206e-05 4.01272e-05 0.111997)
(3.19131e-05 1.54011e-05 0.111992)
(6.2936e-05 3.30385e-05 0.112025)
(3.66458e-05 2.3957e-05 0.112054)
(4.96232e-05 3.2392e-05 0.112097)
(2.95757e-05 2.96313e-05 0.11213)
(3.18895e-05 3.41015e-05 0.112163)
(1.31472e-05 3.38911e-05 0.112182)
(9.20622e-06 3.55257e-05 0.112194)
(-0.00013632 0.000115858 0.0964232)
(0.000125004 4.22969e-05 0.114894)
(-5.34993e-05 -2.2751e-05 0.112564)
(8.50008e-05 4.6336e-05 0.111992)
(6.41228e-06 -3.62103e-06 0.111998)
(7.83564e-05 3.57946e-05 0.112019)
(3.28506e-05 1.30662e-05 0.112026)
(6.90498e-05 3.19209e-05 0.112062)
(3.99423e-05 2.34864e-05 0.11209)
(5.65416e-05 3.30807e-05 0.112131)
(3.41168e-05 3.2007e-05 0.112164)
(3.72019e-05 3.7384e-05 0.112198)
(1.61262e-05 3.8737e-05 0.112219)
(1.10188e-05 4.12695e-05 0.112233)
(-0.00388728 0.000525643 0.0145559)
(-0.000237644 -9.44286e-05 0.0914732)
(0.000240304 6.52763e-05 0.112657)
(-8.82945e-05 -5.66495e-05 0.112012)
(0.000136824 3.53461e-05 0.111837)
(-7.83446e-06 -1.3002e-05 0.111923)