/*--------------------------------*- C++ -*----------------------------------*\
| =========                 |                                                 |
| \\      /  F ield         | OpenFOAM: The Open Source CFD Toolbox           |
|  \\    /   O peration     | Version:  2.1.1                                 |
|   \\  /    A nd           | Web:      www.OpenFOAM.org                      |
|    \\/     M anipulation  |                                                 |
\*---------------------------------------------------------------------------*/
FoamFile
{
    version     2.0;
    format      ascii;
    class       volScalarField;
    location    "0.2";
    object      p;
}
// * * * * * * * * * * * * * * * * * * * * * * * * * * * * * * * * * * * * * //

dimensions      [0 2 -2 0 0 0 0];

internalField   nonuniform List<scalar> 
163952
(
0.0416749
0.0410985
0.0363627
0.031168
0.0299712
0.0273597
0.0267696
0.0264458
0.0366829
0.0323408
0.0272992
0.0248094
0.0235658
0.0227867
0.0224723
0.022331
0.033714
0.0279772
0.0244734
0.0228336
0.0219209
0.021383
0.0210442
0.0208638
0.0207783
0.0335838
0.0260849
0.0232505
0.0219038
0.0211484
0.0206695
0.0203498
0.020138
0.0200118
0.0199482
0.033585
0.0255429
0.0227262
0.0214478
0.0207329
0.020269
0.0199448
0.0197139
0.0195543
0.0194536
0.0194011
0.0337142
0.0260849
0.0227261
0.0213043
0.0205416
0.0200527
0.019707
0.0194529
0.0192662
0.019134
0.0190483
0.0190028
0.0366825
0.027977
0.0232504
0.0214478
0.0205416
0.019983
0.0195945
0.0193077
0.0190918
0.0189311
0.018816
0.0187404
0.0186998
0.0323407
0.0244733
0.0219037
0.0207328
0.0200526
0.0195945
0.0192607
0.0190088
0.0188173
0.0186738
0.0185705
0.0185021
0.0184653
0.0363626
0.0272991
0.0228335
0.0211483
0.0202689
0.019707
0.0193076
0.0190088
0.0187805
0.018606
0.0184747
0.0183798
0.0183168
0.0182827
0.0311679
0.0248093
0.0219208
0.0206694
0.0199447
0.0194529
0.0190918
0.0188172
0.0186059
0.0184437
0.0183213
0.0182325
0.0181734
0.0181413
0.0299711
0.0235656
0.0213828
0.0203496
0.0197138
0.0192661
0.018931
0.0186738
0.0184747
0.0183213
0.0182052
0.0181209
0.0180646
0.018034
0.0273596
0.0227865
0.0210441
0.0201379
0.0195542
0.0191339
0.0188159
0.0185705
0.0183798
0.0182325
0.0181209
0.0180396
0.0179853
0.0179557
0.0416747
0.0267694
0.0224722
0.0208637
0.0200117
0.0194535
0.0190482
0.0187404
0.0185021
0.0183168
0.0181734
0.0180646
0.0179853
0.0179322
0.0179033
0.0410984
0.0264457
0.0223309
0.0207782
0.0199481
0.0194011
0.0190027
0.0186998
0.0184653
0.0182827
0.0181414
0.018034
0.0179557
0.0179034
0.0178749
0.0235009
0.0235577
0.0224958
0.023705
0.0224361
0.0221219
0.022077
0.0220561
0.0226006
0.0244146
0.0221017
0.0217894
0.0215287
0.0213378
0.021263
0.0212112
0.0233787
0.0221536
0.0217356
0.0213235
0.0209826
0.0207039
0.020519
0.0204228
0.0203733
0.0221232
0.0218328
0.0213954
0.020954
0.0205611
0.0202498
0.0200135
0.0198537
0.0197614
0.019717
0.0221238
0.0217035
0.0212112
0.0207072
0.0202801
0.0199374
0.0196777
0.0194863
0.0193544
0.0192741
0.0192354
0.0233788
0.0218329
0.0212112
0.0206271
0.020138
0.0197599
0.0194705
0.0192525
0.0190916
0.0189791
0.0189087
0.0188746
0.0226006
0.0221536
0.0213954
0.0207071
0.020138
0.0197012
0.0193716
0.019121
0.0189315
0.018791
0.0186919
0.0186289
0.0185982
0.0244144
0.0217355
0.0209539
0.02028
0.0197599
0.0193716
0.0190785
0.0188551
0.0186854
0.0185589
0.0184692
0.0184117
0.0183836
0.0224956
0.0221016
0.0213234
0.020561
0.0199373
0.0194705
0.019121
0.0188551
0.0186512
0.0184954
0.018379
0.0182959
0.0182425
0.0182163
0.0237049
0.0217892
0.0209825
0.0202497
0.0196776
0.0192524
0.0189315
0.0186853
0.0184954
0.0183497
0.0182404
0.0181621
0.0181117
0.018087
0.0224359
0.0215285
0.0207037
0.0200133
0.0194862
0.0190915
0.0187909
0.0185589
0.0183789
0.0182404
0.018136
0.0180613
0.018013
0.0179893
0.0221217
0.0213376
0.0205189
0.0198535
0.0193543
0.0189791
0.0186918
0.0184691
0.0182959
0.0181621
0.0180613
0.0179889
0.0179421
0.0179191
0.0235007
0.0220768
0.0212628
0.0204227
0.0197613
0.019274
0.0189087
0.0186288
0.0184117
0.0182425
0.0181117
0.018013
0.0179421
0.0178963
0.0178737
0.0235575
0.0220559
0.021211
0.0203732
0.019717
0.0192354
0.0188746
0.0185982
0.0183836
0.0182164
0.018087
0.0179893
0.0179192
0.0178738
0.0178514
0.0198573
0.0198716
0.0199366
0.0203185
0.0205422
0.0204264
0.0203188
0.0202782
0.0199434
0.0207875
0.0203373
0.0202592
0.0201643
0.0201254
0.0200959
0.0200704
0.0201539
0.0203512
0.0202507
0.02013
0.0199932
0.0198486
0.0197571
0.0197019
0.0196715
0.0205011
0.0202841
0.0201589
0.0199789
0.0197868
0.0196207
0.0194808
0.0193806
0.0193182
0.0192869
0.0205018
0.0202389
0.0200858
0.019864
0.0196389
0.0194361
0.0192698
0.0191384
0.0190436
0.0189835
0.0189539
0.0201538
0.0202843
0.0200857
0.0198261
0.01956
0.0193262
0.0191296
0.0189712
0.0188483
0.0187597
0.018703
0.0186751
0.0199434
0.0203512
0.0201589
0.019864
0.01956
0.0192887
0.0190602
0.0188727
0.0187234
0.0186088
0.0185261
0.0184728
0.0184466
0.0207873
0.0202506
0.0199788
0.0196388
0.0193262
0.0190602
0.0188402
0.0186622
0.0185217
0.0184142
0.0183366
0.0182864
0.0182617
0.0199364
0.0203372
0.0201299
0.0197866
0.019436
0.0191295
0.0188726
0.0186622
0.0184931
0.0183599
0.0182582
0.0181847
0.0181371
0.0181136
0.0203183
0.020259
0.019993
0.0196206
0.0192697
0.0189711
0.0187234
0.0185216
0.0183599
0.0182326
0.0181354
0.0180652
0.0180196
0.0179971
0.020542
0.0201641
0.0198484
0.0194806
0.0191383
0.0188482
0.0186088
0.0184142
0.0182582
0.0181354
0.0180417
0.0179739
0.0179298
0.0179081
0.0204262
0.0201252
0.0197569
0.0193805
0.0190435
0.0187596
0.0185261
0.0183366
0.0181847
0.0180652
0.0179739
0.0179078
0.0178648
0.0178436
0.0198571
0.0203186
0.0200957
0.0197018
0.0193181
0.0189834
0.0187029
0.0184728
0.0182864
0.0181371
0.0180196
0.0179298
0.0178648
0.0178225
0.0178016
0.0198714
0.020278
0.0200703
0.0196714
0.0192868
0.0189538
0.018675
0.0184466
0.0182617
0.0181137
0.0179971
0.0179081
0.0178436
0.0178017
0.017781
0.0185102
0.0185205
0.0186276
0.0188546
0.0191857
0.0191852
0.0191327
0.0191106
0.0186426
0.0190686
0.0191087
0.0190962
0.0190668
0.0190681
0.0190667
0.0190631
0.0187835
0.0191127
0.0191001
0.0190929
0.019064
0.0190121
0.0189762
0.0189507
0.0189363
0.019216
0.019116
0.0191098
0.0190594
0.018993
0.0189286
0.0188656
0.0188156
0.0187808
0.0187624
0.0192165
0.0190962
0.0190911
0.0190278
0.0189382
0.0188446
0.0187586
0.0186839
0.0186266
0.0185883
0.0185688
0.0187834
0.019116
0.019091
0.0190164
0.0189074
0.0187911
0.0186805
0.0185833
0.0185027
0.0184421
0.0184019
0.0183818
0.0186425
0.0191126
0.0191098
0.0190278
0.0189074
0.0187724
0.0186401
0.0185203
0.0184183
0.0183361
0.0182748
0.0182343
0.0182142
0.0190684
0.0190999
0.0190593
0.0189381
0.018791
0.0186401
0.0184991
0.0183755
0.0182723
0.0181905
0.0181298
0.0180898
0.01807
0.0186274
0.0191085
0.0190927
0.0189929
0.0188445
0.0186804
0.0185203
0.0183754
0.018251
0.0181486
0.0180678
0.0180082
0.0179691
0.0179496
0.0188543
0.0190959
0.0190638
0.0189284
0.0187584
0.0185832
0.0184182
0.0182723
0.0181485
0.0180473
0.017968
0.0179096
0.0178712
0.0178521
0.0191855
0.0190665
0.0190119
0.0188655
0.0186837
0.0185026
0.018336
0.0181904
0.0180678
0.017968
0.0178899
0.0178325
0.0177949
0.0177762
0.019185
0.0190678
0.018976
0.0188155
0.0186265
0.0184419
0.0182747
0.0181297
0.0180082
0.0179096
0.0178325
0.017776
0.0177388
0.0177204
0.01851
0.0191324
0.0190665
0.0189505
0.0187807
0.0185882
0.0184018
0.0182343
0.0180898
0.017969
0.0178712
0.0177949
0.0177388
0.0177021
0.0176838
0.0185203
0.0191104
0.0190629
0.0189362
0.0187623
0.0185687
0.0183818
0.0182141
0.01807
0.0179496
0.0178522
0.0177762
0.0177205
0.0176839
0.0176657
0.0177924
0.0178005
0.0178537
0.0180023
0.018219
0.0182623
0.0182526
0.0182509
0.0178787
0.0181113
0.0182193
0.0182383
0.0182436
0.0182558
0.0182639
0.0182683
0.0179686
0.0182208
0.018247
0.0182799
0.0182981
0.0182974
0.0182942
0.0182879
0.0182835
0.0182532
0.0182427
0.0182865
0.0182997
0.0182997
0.0182919
0.0182763
0.01826
0.0182461
0.018238
0.0182535
0.0182374
0.0182933
0.0183085
0.0182958
0.0182704
0.0182386
0.0182056
0.0181775
0.0181574
0.0181467
0.0179685
0.0182427
0.0182932
0.0183111
0.0182927
0.0182533
0.0182053
0.0181563
0.0181114
0.0180755
0.0180507
0.018038
0.0178786
0.0182206
0.0182864
0.0183084
0.0182927
0.0182472
0.0181866
0.0181224
0.0180621
0.0180101
0.0179697
0.0179422
0.0179282
0.018111
0.0182467
0.0182995
0.0182957
0.0182533
0.0181865
0.0181105
0.0180358
0.0179687
0.0179126
0.0178696
0.0178406
0.017826
0.0178534
0.018219
0.0182797
0.0182995
0.0182702
0.0182052
0.0181223
0.0180358
0.0179545
0.0178834
0.017825
0.0177807
0.017751
0.0177361
0.018002
0.018238
0.0182978
0.0182916
0.0182384
0.0181561
0.018062
0.0179686
0.0178833
0.01781
0.0177504
0.0177055
0.0176755
0.0176604
0.0182187
0.0182433
0.0182971
0.018276
0.0182054
0.0181113
0.01801
0.0179125
0.0178249
0.0177504
0.0176902
0.0176451
0.017615
0.0175999
0.018262
0.0182555
0.0182939
0.0182598
0.0181773
0.0180754
0.0179696
0.0178695
0.0177806
0.0177054
0.0176451
0.0175998
0.0175697
0.0175547
0.0177921
0.0182523
0.0182636
0.0182877
0.0182459
0.0181572
0.0180506
0.0179421
0.0178406
0.0177509
0.0176754
0.017615
0.0175697
0.0175397
0.0175247
0.0178003
0.0182506
0.0182681
0.0182833
0.0182378
0.0181466
0.0180379
0.0179282
0.017826
0.0177361
0.0176605
0.0176
0.0175547
0.0175247
0.0175097
0.0172825
0.0172891
0.017302
0.0173949
0.0175204
0.0175704
0.0175755
0.0175814
0.0173243
0.0174684
0.0175505
0.0175815
0.0176027
0.0176218
0.0176322
0.0176381
0.0173792
0.0175511
0.0175925
0.0176364
0.0176702
0.0176906
0.0177042
0.0177097
0.0177114
0.0175515
0.0175783
0.0176365
0.0176748
0.0177037
0.0177232
0.0177331
0.0177371
0.0177371
0.0177363
0.0175516
0.0175825
0.0176531
0.0176988
0.017724
0.0177365
0.0177385
0.0177336
0.0177265
0.01772
0.0177162
0.017379
0.0175783
0.0176529
0.0177072
0.0177345
0.0177413
0.0177352
0.0177211
0.0177038
0.0176879
0.0176758
0.0176694
0.0173241
0.0175509
0.0176363
0.0176987
0.0177344
0.0177427
0.0177315
0.0177092
0.0176823
0.0176558
0.0176335
0.0176176
0.0176093
0.0174681
0.0175922
0.0176746
0.0177238
0.0177412
0.0177315
0.0177046
0.0176697
0.0176335
0.0176005
0.0175738
0.0175552
0.0175456
0.0173016
0.0175502
0.0176361
0.0177034
0.0177363
0.017735
0.0177091
0.0176696
0.0176255
0.0175827
0.0175453
0.0175157
0.0174953
0.0174849
0.0173945
0.017581
0.0176698
0.0177229
0.0177383
0.0177209
0.0176822
0.0176334
0.0175827
0.0175355
0.0174951
0.0174636
0.0174421
0.0174312
0.0175199
0.0176022
0.0176902
0.0177327
0.0177333
0.0177036
0.0176557
0.0176004
0.0175452
0.0174951
0.0174528
0.0174201
0.0173979
0.0173866
0.01757
0.0176214
0.0177038
0.0177368
0.0177263
0.0176877
0.0176334
0.0175737
0.0175156
0.0174636
0.0174201
0.0173866
0.017364
0.0173525
0.0172821
0.0175751
0.0176318
0.0177094
0.0177369
0.0177198
0.0176757
0.0176175
0.0175551
0.0174953
0.0174421
0.0173979
0.017364
0.0173411
0.0173295
0.0172888
0.0175811
0.0176378
0.0177111
0.017736
0.017716
0.0176692
0.0176092
0.0175456
0.0174849
0.0174312
0.0173867
0.0173526
0.0173295
0.0173179
0.0168493
0.0168567
0.0168502
0.0169097
0.0169771
0.0170228
0.0170317
0.0170394
0.0168681
0.0169695
0.017017
0.0170482
0.0170732
0.0170958
0.0171077
0.0171143
0.0169025
0.0170172
0.0170606
0.0171045
0.0171407
0.0171672
0.0171877
0.0171991
0.0172042
0.017004
0.0170427
0.0171012
0.0171467
0.0171856
0.0172167
0.0172388
0.0172538
0.017262
0.0172656
0.017004
0.0170501
0.0171195
0.0171743
0.017216
0.0172477
0.017269
0.0172815
0.0172884
0.0172914
0.0172924
0.0169023
0.0170426
0.0171193
0.0171842
0.0172321
0.0172646
0.0172844
0.0172938
0.0172962
0.0172952
0.0172931
0.0172916
0.0168678
0.0170169
0.017101
0.0171742
0.0172321
0.0172702
0.0172906
0.0172975
0.0172956
0.017289
0.0172814
0.017275
0.0172715
0.0169691
0.0170603
0.0171464
0.0172158
0.0172645
0.0172905
0.0172981
0.0172934
0.017282
0.0172682
0.0172555
0.0172459
0.0172408
0.0168497
0.0170165
0.0171041
0.0171853
0.0172474
0.0172841
0.0172974
0.0172934
0.017279
0.0172602
0.017241
0.0172245
0.0172126
0.0172063
0.0169092
0.0170477
0.0171403
0.0172163
0.0172686
0.0172935
0.0172954
0.0172819
0.0172601
0.0172357
0.0172126
0.0171935
0.0171799
0.0171729
0.0169765
0.0170727
0.0171668
0.0172384
0.0172812
0.017296
0.0172888
0.0172681
0.0172409
0.0172126
0.0171868
0.0171658
0.0171511
0.0171435
0.0170222
0.0170953
0.0171872
0.0172534
0.0172881
0.0172949
0.0172812
0.0172553
0.0172244
0.0171934
0.0171658
0.0171435
0.0171281
0.0171202
0.0168488
0.0170312
0.0171072
0.0171986
0.0172616
0.0172911
0.0172928
0.0172748
0.0172458
0.0172125
0.0171799
0.0171511
0.0171281
0.0171122
0.017104
0.0168563
0.017039
0.0171139
0.0172038
0.0172652
0.0172921
0.0172913
0.0172713
0.0172407
0.0172063
0.0171729
0.0171435
0.0171202
0.0171041
0.0170958
0.0164596
0.0164674
0.0164574
0.0164962
0.0165287
0.0165667
0.0165762
0.0165837
0.0164705
0.016548
0.0165697
0.0165971
0.0166205
0.0166428
0.016655
0.0166619
0.0164935
0.0165698
0.0166098
0.0166498
0.0166837
0.0167101
0.0167318
0.0167452
0.0167518
0.0165512
0.0165912
0.016645
0.0166901
0.0167304
0.0167647
0.0167915
0.0168114
0.0168237
0.0168296
0.0165512
0.0165987
0.0166619
0.0167167
0.0167635
0.0168031
0.0168341
0.0168563
0.0168715
0.0168805
0.0168846
0.0164932
0.016591
0.0166617
0.0167262
0.0167812
0.0168259
0.01686
0.0168838
0.0168991
0.0169082
0.0169131
0.0169152
0.0164701
0.0165694
0.0166447
0.0167165
0.0167811
0.0168335
0.016872
0.0168976
0.0169128
0.0169207
0.0169241
0.0169251
0.0169253
0.0165475
0.0166093
0.0166897
0.0167632
0.0168257
0.0168719
0.0169017
0.0169182
0.0169252
0.0169263
0.0169248
0.0169226
0.0169211
0.0164567
0.0165691
0.0166492
0.0167299
0.0168028
0.0168597
0.0168975
0.0169181
0.0169261
0.016926
0.0169217
0.0169162
0.0169115
0.0169088
0.0164955
0.0165964
0.0166831
0.0167642
0.0168336
0.0168834
0.0169126
0.016925
0.016926
0.0169202
0.0169117
0.0169033
0.0168966
0.0168931
0.0165279
0.0166198
0.0167094
0.0167909
0.0168559
0.0168987
0.0169204
0.0169262
0.0169216
0.0169117
0.0169001
0.0168895
0.0168815
0.0168772
0.0165659
0.0166421
0.0167312
0.0168109
0.016871
0.0169079
0.0169238
0.0169246
0.0169161
0.0169032
0.0168894
0.0168773
0.0168684
0.0168637
0.0164588
0.0165755
0.0166544
0.0167447
0.0168232
0.01688
0.0169128
0.0169249
0.0169224
0.0169114
0.0168966
0.0168815
0.0168684
0.0168589
0.0168539
0.0164668
0.0165831
0.0166613
0.0167513
0.0168292
0.0168842
0.0169149
0.016925
0.016921
0.0169087
0.016893
0.0168772
0.0168637
0.016854
0.0168489
0.0161046
0.0161118
0.0161045
0.0161302
0.0161425
0.0161727
0.0161814
0.0161879
0.0161142
0.0161761
0.0161808
0.0162037
0.0162239
0.0162439
0.0162551
0.0162616
0.0161307
0.016181
0.016216
0.016251
0.016281
0.016305
0.0163253
0.0163386
0.0163453
0.0161615
0.0161985
0.016246
0.0162873
0.0163252
0.0163586
0.0163858
0.0164069
0.0164207
0.0164274
0.0161615
0.0162053
0.0162607
0.0163113
0.0163573
0.0163985
0.0164328
0.0164594
0.0164787
0.0164909
0.0164967
0.0161303
0.0161982
0.0162605
0.0163199
0.0163746
0.016423
0.0164635
0.0164949
0.0165177
0.0165332
0.0165426
0.016547
0.0161136
0.0161805
0.0162456
0.0163111
0.0163744
0.0164314
0.0164785
0.0165147
0.0165406
0.0165581
0.0165691
0.0165754
0.0165782
0.0161754
0.0162153
0.0162868
0.0163569
0.0164228
0.0164784
0.0165209
0.0165509
0.0165706
0.0165825
0.0165893
0.0165927
0.0165941
0.0161037
0.0161799
0.0162502
0.0163246
0.016398
0.0164632
0.0165145
0.0165508
0.0165743
0.0165879
0.016595
0.0165982
0.0165992
0.0165994
0.0161294
0.0162028
0.0162802
0.0163579
0.0164322
0.0164945
0.0165403
0.0165704
0.0165879
0.0165965
0.0165996
0.0165998
0.016599
0.0165982
0.0161415
0.016223
0.0163042
0.0163851
0.0164588
0.0165172
0.0165577
0.0165823
0.0165949
0.0165996
0.0165996
0.0165976
0.0165954
0.0165939
0.0161718
0.016243
0.0163245
0.0164062
0.0164781
0.0165327
0.0165687
0.016589
0.016598
0.0165997
0.0165976
0.016594
0.0165908
0.0165889
0.0161036
0.0161805
0.0162543
0.0163378
0.01642
0.0164903
0.0165422
0.0165751
0.0165925
0.0165991
0.0165989
0.0165953
0.0165908
0.0165869
0.0165847
0.016111
0.0161872
0.0162609
0.0163446
0.0164268
0.0164962
0.0165466
0.0165779
0.0165939
0.0165993
0.0165982
0.0165939
0.0165889
0.0165847
0.0165823
0.0157788
0.015785
0.0157816
0.0157993
0.0157987
0.0158226
0.0158298
0.0158351
0.0157888
0.0158396
0.0158331
0.015852
0.0158689
0.0158859
0.0158955
0.0159011
0.0158016
0.0158336
0.0158635
0.0158935
0.0159194
0.0159402
0.015958
0.0159699
0.0159761
0.0158152
0.015848
0.015889
0.0159255
0.0159593
0.0159897
0.0160151
0.0160352
0.0160487
0.0160554
0.0158151
0.0158538
0.0159016
0.0159465
0.0159887
0.0160278
0.0160618
0.0160891
0.0161097
0.016123
0.0161296
0.0158011
0.0158476
0.0159013
0.015954
0.0160046
0.0160519
0.0160936
0.0161278
0.0161541
0.0161729
0.0161848
0.0161905
0.0157881
0.0158329
0.0158885
0.0159461
0.0160044
0.01606
0.0161095
0.0161504
0.016182
0.0162051
0.0162209
0.0162306
0.0162352
0.0158387
0.0158627
0.0159248
0.0159882
0.0160515
0.0161093
0.0161576
0.0161952
0.0162227
0.0162418
0.0162543
0.0162618
0.0162652
0.0157805
0.015832
0.0158926
0.0159585
0.0160272
0.0160931
0.0161501
0.0161951
0.0162282
0.0162512
0.0162664
0.0162758
0.0162812
0.0162836
0.0157981
0.0158508
0.0159183
0.0159888
0.016061
0.0161272
0.0161816
0.0162225
0.0162511
0.01627
0.0162818
0.0162886
0.0162923
0.0162939
0.0157974
0.0158677
0.0159391
0.0160141
0.0160883
0.0161535
0.0162046
0.0162415
0.0162662
0.0162817
0.0162907
0.0162956
0.0162979
0.0162988
0.0158213
0.0158847
0.0159569
0.0160343
0.0161089
0.0161722
0.0162204
0.016254
0.0162756
0.0162885
0.0162955
0.0162989
0.0163003
0.0163007
0.0157776
0.0158286
0.0158943
0.0159689
0.0160478
0.0161223
0.0161842
0.0162302
0.0162614
0.016281
0.0162922
0.0162979
0.0163003
0.016301
0.0163011
0.0157838
0.015834
0.0159001
0.0159752
0.0160547
0.016129
0.01619
0.0162348
0.0162649
0.0162834
0.0162938
0.0162988
0.0163007
0.0163012
0.0163011
0.0154767
0.0154816
0.0154817
0.0154946
0.0154852
0.015504
0.0155095
0.0155137
0.0154873
0.0155299
0.0155156
0.0155312
0.0155451
0.015559
0.0155666
0.0155713
0.0154978
0.0155166
0.0155419
0.0155674
0.0155891
0.0156065
0.0156215
0.0156315
0.0156368
0.0154998
0.0155285
0.0155636
0.015595
0.0156243
0.0156508
0.0156731
0.0156911
0.0157032
0.0157094
0.0154996
0.0155334
0.0155743
0.0156131
0.0156503
0.0156854
0.0157167
0.0157426
0.0157625
0.0157757
0.0157822
0.0154971
0.0155281
0.015574
0.0156194
0.0156642
0.0157076
0.0157473
0.0157811
0.015808
0.0158278
0.0158407
0.015847
0.0154864
0.0155157
0.0155629
0.0156126
0.015664
0.0157152
0.0157629
0.0158042
0.0158379
0.0158635
0.0158818
0.0158934
0.015899
0.0155287
0.0155408
0.0155941
0.0156496
0.0157072
0.0157627
0.0158118
0.0158524
0.0158839
0.0159071
0.0159232
0.0159332
0.015938
0.0154802
0.0155142
0.0155661
0.0156232
0.0156846
0.0157467
0.0158039
0.0158522
0.0158904
0.015919
0.0159394
0.0159532
0.0159616
0.0159655
0.015493
0.0155296
0.0155877
0.0156496
0.0157158
0.0157804
0.0158374
0.0158836
0.0159189
0.0159445
0.0159622
0.0159739
0.0159809
0.0159841
0.0154834
0.0155435
0.0156051
0.0156718
0.0157416
0.0158072
0.015863
0.0159068
0.0159392
0.0159621
0.0159777
0.0159876
0.0159935
0.0159961
0.0155023
0.0155574
0.0156201
0.0156898
0.0157614
0.015827
0.0158812
0.0159228
0.0159529
0.0159738
0.0159876
0.0159962
0.0160012
0.0160035
0.015475
0.0155079
0.0155652
0.0156302
0.0157021
0.0157747
0.0158399
0.0158929
0.0159328
0.0159613
0.0159807
0.0159934
0.0160012
0.0160056
0.0160076
0.0154801
0.0155124
0.01557
0.0156356
0.0157084
0.0157814
0.0158463
0.0158985
0.0159376
0.0159653
0.015984
0.0159961
0.0160034
0.0160076
0.0160094
0.0151929
0.0151967
0.0151997
0.0152106
0.0151942
0.0152089
0.0152127
0.0152159
0.0152042
0.0152409
0.0152214
0.0152341
0.0152452
0.0152561
0.0152617
0.0152654
0.0152133
0.0152227
0.0152441
0.0152654
0.0152834
0.0152974
0.0153092
0.0153171
0.0153213
0.0152074
0.0152326
0.0152625
0.0152891
0.0153137
0.0153359
0.0153546
0.0153697
0.0153799
0.0153852
0.0152072
0.0152367
0.0152715
0.0153044
0.015336
0.0153663
0.0153937
0.0154167
0.0154346
0.0154466
0.0154526
0.0152124
0.0152321
0.0152711
0.0153096
0.015348
0.0153859
0.0154215
0.0154528
0.0154783
0.0154974
0.0155101
0.0155163
0.015203
0.0152216
0.0152617
0.0153038
0.0153477
0.0153926
0.0154359
0.015475
0.0155078
0.0155338
0.0155527
0.015565
0.015571
0.0152394
0.0152427
0.0152879
0.0153352
0.0153854
0.0154356
0.0154822
0.0155225
0.0155551
0.01558
0.0155979
0.0156092
0.0156147
0.0151978
0.0152195
0.0152638
0.0153123
0.0153652
0.0154208
0.0154745
0.0155222
0.0155619
0.0155931
0.0156164
0.0156328
0.015643
0.0156479
0.0152085
0.015232
0.0152815
0.0153344
0.0153924
0.0154519
0.0155072
0.0155547
0.015593
0.0156223
0.0156438
0.0156586
0.0156678
0.0156722
0.0151919
0.015243
0.0152955
0.015353
0.0154153
0.0154772
0.015533
0.0155795
0.0156162
0.0156437
0.0156635
0.015677
0.0156853
0.0156892
0.0152066
0.015254
0.0153074
0.0153681
0.0154332
0.0154964
0.015552
0.0155973
0.0156324
0.0156584
0.0156769
0.0156893
0.015697
0.0157006
0.0151908
0.0152106
0.0152598
0.0153154
0.0153785
0.0154454
0.0155091
0.0155643
0.0156087
0.0156427
0.0156676
0.0156852
0.0156969
0.0157041
0.0157075
0.0151948
0.0152141
0.0152637
0.0153198
0.0153839
0.0154515
0.0155155
0.0155703
0.0156143
0.0156476
0.015672
0.0156891
0.0157005
0.0157075
0.0157107
0.0149232
0.0149261
0.0149318
0.0149413
0.0149207
0.0149321
0.0149337
0.014936
0.0149357
0.0149681
0.0149454
0.0149557
0.0149641
0.0149721
0.0149755
0.0149781
0.0149439
0.0149471
0.0149651
0.0149827
0.0149971
0.0150077
0.0150163
0.0150217
0.0150247
0.0149329
0.0149553
0.0149807
0.0150027
0.0150226
0.0150404
0.0150551
0.0150668
0.0150748
0.0150788
0.0149326
0.0149583
0.014988
0.0150152
0.0150412
0.0150661
0.0150887
0.015108
0.015123
0.0151332
0.0151383
0.0149428
0.0149546
0.0149876
0.0150195
0.015051
0.0150827
0.015113
0.0151403
0.0151629
0.0151803
0.0151919
0.0151976
0.0149341
0.0149456
0.0149796
0.0150145
0.0150507
0.0150883
0.0151256
0.0151604
0.0151906
0.0152151
0.0152333
0.0152454
0.0152513
0.0149662
0.0149633
0.0150012
0.0150401
0.015082
0.0151253
0.015167
0.0152045
0.0152359
0.0152608
0.0152789
0.0152908
0.0152965
0.0149293
0.0149429
0.0149806
0.0150209
0.0150647
0.0151121
0.0151598
0.0152042
0.0152427
0.0152742
0.0152985
0.015316
0.0153272
0.0153326
0.0149385
0.0149529
0.0149947
0.0150384
0.0150872
0.0151391
0.0151898
0.0152355
0.015274
0.0153047
0.015328
0.0153446
0.0153552
0.0153603
0.0149176
0.0149612
0.0150051
0.015053
0.0151063
0.0151616
0.0152141
0.0152602
0.0152981
0.0153279
0.0153502
0.0153659
0.0153758
0.0153806
0.014929
0.0149692
0.0150138
0.0150647
0.0151213
0.015179
0.0152324
0.0152783
0.0153155
0.0153444
0.0153658
0.0153807
0.0153902
0.0153947
0.0149205
0.014931
0.014973
0.0150195
0.0150728
0.0151317
0.0151906
0.0152444
0.0152901
0.0153267
0.0153549
0.0153757
0.0153901
0.0153992
0.0154036
0.0149237
0.0149337
0.014976
0.0150228
0.0150772
0.015137
0.0151965
0.0152505
0.0152959
0.0153322
0.01536
0.0153805
0.0153947
0.0154036
0.0154079
0.0146646
0.0146665
0.0146754
0.0146841
0.0146617
0.01467
0.014669
0.0146702
0.0146789
0.0147087
0.0146842
0.0146925
0.0146982
0.014703
0.014704
0.0147054
0.0146866
0.0146863
0.0147015
0.0147157
0.0147265
0.0147335
0.0147385
0.0147412
0.0147429
0.014673
0.0146929
0.0147143
0.0147319
0.0147472
0.0147603
0.0147707
0.0147786
0.0147838
0.0147865
0.0146726
0.0146946
0.0147199
0.0147417
0.0147618
0.0147809
0.0147983
0.0148131
0.0148247
0.0148326
0.0148366
0.0146852
0.014692
0.0147194
0.0147449
0.0147694
0.0147941
0.0148184
0.0148406
0.0148595
0.0148742
0.0148841
0.0148891
0.0146769
0.0146845
0.0147129
0.0147408
0.014769
0.0147985
0.0148288
0.014858
0.0148842
0.014906
0.0149226
0.0149337
0.0149392
0.0147062
0.0146992
0.0147301
0.0147605
0.0147933
0.0148284
0.0148637
0.0148967
0.0149255
0.0149488
0.0149663
0.0149779
0.0149835
0.0146722
0.0146809
0.0147129
0.014745
0.0147792
0.0148172
0.0148573
0.0148964
0.0149318
0.0149619
0.0149857
0.0150033
0.0150148
0.0150205
0.0146803
0.0146888
0.0147233
0.0147577
0.0147963
0.0148392
0.0148832
0.0149249
0.0149616
0.014992
0.0150158
0.0150331
0.0150443
0.0150498
0.0146574
0.0146943
0.0147301
0.0147679
0.014811
0.0148579
0.0149049
0.0149481
0.0149853
0.0150156
0.015039
0.0150558
0.0150667
0.015072
0.0146657
0.0146992
0.0147351
0.0147759
0.0148226
0.0148726
0.0149214
0.0149655
0.0150028
0.0150328
0.0150557
0.0150722
0.0150827
0.0150879
0.0146608
0.0146652
0.0147006
0.0147383
0.0147814
0.0148306
0.0148826
0.0149326
0.014977
0.0150143
0.015044
0.0150666
0.0150827
0.015093
0.0150981
0.0146634
0.0146672
0.0147026
0.0147404
0.0147844
0.0148349
0.0148877
0.0149382
0.0149828
0.01502
0.0150495
0.0150719
0.0150878
0.0150981
0.015103
0.0144143
0.0144151
0.0144284
0.0144369
0.0144159
0.0144203
0.0144157
0.0144157
0.0144313
0.0144602
0.0144361
0.0144425
0.0144451
0.0144459
0.0144439
0.014444
0.0144391
0.0144384
0.0144509
0.0144614
0.0144686
0.0144715
0.0144722
0.0144718
0.0144719
0.0144258
0.014443
0.0144606
0.0144737
0.0144839
0.014492
0.0144976
0.0145012
0.0145034
0.0145045
0.0144253
0.0144432
0.0144643
0.0144803
0.0144941
0.0145069
0.0145186
0.0145285
0.0145362
0.0145414
0.014544
0.0144375
0.014442
0.0144637
0.0144824
0.0144992
0.0145164
0.0145339
0.0145506
0.0145651
0.0145766
0.0145845
0.0145884
0.0144289
0.0144362
0.0144589
0.0144792
0.0144987
0.0145195
0.0145419
0.0145647
0.0145861
0.0146045
0.0146188
0.0146286
0.0146335
0.014457
0.014448
0.0144715
0.0144925
0.0145154
0.0145414
0.0145693
0.0145969
0.0146219
0.014643
0.0146591
0.0146699
0.0146753
0.0144241
0.0144318
0.0144578
0.0144811
0.0145048
0.0145325
0.0145638
0.0145965
0.0146276
0.0146551
0.0146777
0.0146947
0.014706
0.0147116
0.0144317
0.0144374
0.0144644
0.0144887
0.0145161
0.0145488
0.0145849
0.0146212
0.0146548
0.0146837
0.014707
0.0147243
0.0147358
0.0147414
0.0144098
0.0144396
0.014467
0.0144941
0.0145258
0.0145631
0.0146031
0.0146421
0.0146772
0.0147068
0.0147303
0.0147477
0.014759
0.0147646
0.0144142
0.0144406
0.0144678
0.0144977
0.0145335
0.0145746
0.0146174
0.0146581
0.0146941
0.014724
0.0147475
0.0147647
0.014776
0.0147815
0.0144091
0.0144104
0.0144392
0.0144679
0.0145002
0.0145389
0.0145826
0.0146272
0.0146689
0.0147054
0.0147354
0.0147588
0.0147759
0.014787
0.0147925
0.0144109
0.0144116
0.0144403
0.0144687
0.0145019
0.0145419
0.0145868
0.0146322
0.0146744
0.014711
0.014741
0.0147644
0.0147814
0.0147925
0.0147979
0.0141696
0.0141691
0.0141882
0.0141982
0.0141839
0.0141821
0.0141718
0.0141703
0.0141902
0.0142209
0.0141998
0.0142042
0.0142028
0.014198
0.014192
0.0141904
0.0141994
0.0142024
0.0142118
0.0142176
0.0142206
0.0142186
0.0142138
0.0142095
0.0142077
0.0141911
0.014204
0.014217
0.0142248
0.0142291
0.0142316
0.0142318
0.0142305
0.0142291
0.0142285
0.0141906
0.0142014
0.014218
0.0142273
0.014234
0.0142398
0.0142454
0.01425
0.0142535
0.0142558
0.0142571
0.0141974
0.0142028
0.0142173
0.0142281
0.0142362
0.0142452
0.0142554
0.0142661
0.014276
0.0142842
0.01429
0.0142929
0.0141873
0.0141998
0.0142151
0.014226
0.0142356
0.0142467
0.0142607
0.0142767
0.014293
0.0143078
0.0143197
0.014328
0.0143322
0.014217
0.0142083
0.0142221
0.0142321
0.014244
0.0142602
0.0142802
0.0143019
0.0143229
0.0143414
0.0143559
0.0143659
0.0143709
0.0141825
0.0141943
0.0142131
0.0142256
0.0142373
0.0142537
0.0142757
0.0143014
0.0143279
0.0143525
0.0143733
0.0143895
0.0144004
0.0144058
0.0141909
0.0141974
0.0142151
0.0142274
0.0142423
0.014264
0.0142916
0.0143221
0.0143521
0.014379
0.0144014
0.0144184
0.0144297
0.0144354
0.0141749
0.0141951
0.0142126
0.0142272
0.0142466
0.0142737
0.0143062
0.0143403
0.0143728
0.0144011
0.0144243
0.0144417
0.0144532
0.014459
0.0141732
0.0141905
0.0142079
0.0142259
0.0142501
0.0142818
0.014318
0.0143548
0.0143887
0.014418
0.0144415
0.0144591
0.0144707
0.0144765
0.014162
0.0141643
0.0141856
0.0142043
0.0142251
0.0142528
0.0142877
0.0143264
0.0143647
0.0143996
0.0144293
0.014453
0.0144706
0.0144822
0.014488
0.0141632
0.0141648
0.0141856
0.0142037
0.0142253
0.0142545
0.0142909
0.0143308
0.0143698
0.0144051
0.014435
0.0144587
0.0144764
0.0144879
0.0144937
0.0139265
0.0139241
0.0139503
0.0139661
0.0139703
0.0139556
0.0139356
0.0139323
0.0139509
0.0139896
0.0139753
0.013977
0.0139699
0.0139561
0.0139444
0.0139409
0.0139647
0.0139781
0.0139829
0.0139808
0.0139785
0.0139704
0.0139584
0.0139491
0.0139453
0.0139786
0.013974
0.0139796
0.0139805
0.0139771
0.0139732
0.0139675
0.0139607
0.0139556
0.0139534
0.013978
0.0139662
0.0139764
0.0139772
0.0139755
0.0139736
0.0139727
0.0139722
0.0139715
0.0139713
0.0139712
0.0139625
0.0139727
0.0139757
0.0139766
0.0139743
0.0139744
0.0139773
0.0139824
0.0139881
0.0139932
0.0139971
0.0139992
0.0139475
0.0139753
0.0139774
0.0139758
0.0139737
0.0139743
0.0139799
0.0139896
0.0140012
0.0140128
0.0140226
0.0140297
0.0140333
0.013985
0.0139788
0.0139774
0.0139734
0.0139731
0.0139793
0.0139919
0.0140083
0.0140258
0.0140419
0.0140551
0.0140643
0.0140689
0.013943
0.0139684
0.0139754
0.0139731
0.0139707
0.0139754
0.0139884
0.0140078
0.0140301
0.014052
0.0140714
0.0140867
0.0140972
0.0141025
0.013956
0.0139678
0.0139715
0.0139681
0.0139692
0.0139799
0.0139997
0.0140249
0.0140516
0.0140767
0.0140982
0.0141148
0.0141261
0.0141318
0.0139562
0.0139587
0.0139623
0.0139617
0.0139682
0.0139853
0.014011
0.0140408
0.0140707
0.0140979
0.0141206
0.014138
0.0141497
0.0141556
0.0139419
0.0139454
0.0139504
0.013955
0.0139675
0.0139904
0.0140207
0.0140538
0.0140859
0.0141144
0.0141379
0.0141557
0.0141675
0.0141735
0.0139151
0.0139249
0.0139357
0.0139424
0.0139507
0.0139676
0.0139945
0.0140278
0.014063
0.0140964
0.0141256
0.0141495
0.0141674
0.0141794
0.0141854
0.0139159
0.0139248
0.0139347
0.0139403
0.0139494
0.0139682
0.0139969
0.0140316
0.0140677
0.0141017
0.0141313
0.0141553
0.0141733
0.0141853
0.0141913
0.0136765
0.0136716
0.0137034
0.0137379
0.013795
0.0137402
0.0137037
0.0136989
0.0137017
0.0137679
0.0137614
0.013759
0.0137429
0.013714
0.0136945
0.0136892
0.0137319
0.0137647
0.0137612
0.0137438
0.0137338
0.0137181
0.0136973
0.0136826
0.0136771
0.0138138
0.0137565
0.01374
0.0137318
0.0137188
0.0137077
0.0136961
0.0136842
0.013676
0.0136726
0.0138133
0.0137438
0.013734
0.0137208
0.0137096
0.0136997
0.013693
0.0136882
0.0136845
0.0136824
0.0136817
0.0137298
0.0137552
0.0137333
0.0137192
0.0137048
0.0136962
0.0136927
0.0136934
0.0136962
0.0136995