/*--------------------------------*- C++ -*----------------------------------*\
| =========                 |                                                 |
| \\      /  F ield         | OpenFOAM: The Open Source CFD Toolbox           |
|  \\    /   O peration     | Version:  2.1.1                                 |
|   \\  /    A nd           | Web:      www.OpenFOAM.org                      |
|    \\/     M anipulation  |                                                 |
\*---------------------------------------------------------------------------*/
FoamFile
{
    version     2.0;
    format      ascii;
    class       volVectorField;
    location    "0.002";
    object      U;
}
// * * * * * * * * * * * * * * * * * * * * * * * * * * * * * * * * * * * * * //

dimensions      [0 1 -1 0 0 0 0];

internalField   nonuniform List<vector> 
10229
(
(-7.58941e-07 -0.00498438 0.0217269)
(-0.000706607 -0.00468646 0.0197488)
(-0.00150525 -0.00127542 0.010438)
(-3.56883e-05 -0.000244042 0.0886718)
(8.91959e-05 -0.000254551 0.0892983)
(-0.000117166 -0.000153159 0.0942072)
(0.000351796 -0.000481152 0.0755437)
(0.00143439 -0.00589465 0.0290496)
(0.000473643 -0.00324813 0.018066)
(-1.55057e-05 0.000205566 0.112782)
(-5.97502e-05 0.000240297 0.113189)
(-4.71041e-05 0.000119496 0.115965)
(-0.000178372 0.000398924 0.113498)
(-0.000208748 -0.000269676 0.0889372)
(0.000386517 -0.000332532 0.0724193)
(0.00185096 -0.00882906 0.0308897)
(-0.00045568 -0.00452163 0.0192966)
(-6.28559e-06 -0.000110902 0.112221)
(5.52398e-05 -0.000105448 0.112454)
(3.26844e-05 -7.5217e-05 0.113287)
(0.000124062 -9.88218e-05 0.114535)
(0.000173835 8.2942e-05 0.113959)
(-0.000116633 0.00029352 0.112295)
(-4.96783e-05 -0.00034614 0.0879337)
(0.000406037 -0.000390352 0.0741021)
(0.000610498 -0.00603704 0.0313692)
(-0.00185613 -0.00423628 0.0149362)
(-1.2719e-05 0.000120235 0.111928)
(-3.07894e-05 0.000121137 0.112084)
(-4.79559e-05 7.76283e-05 0.112272)
(-6.80359e-05 8.9054e-05 0.112515)
(-0.000100833 -2.92158e-05 0.11298)
(5.18786e-05 -6.64812e-06 0.114066)
(6.91265e-05 0.000111007 0.113484)
(-0.000178124 0.000343104 0.112513)
(-0.000250857 -0.000345447 0.0890181)
(0.000582244 -0.000461281 0.0707479)
(-0.0116526 0.0024047 0.016488)
(-4.5793e-06 -3.19688e-05 0.112133)
(1.61217e-05 -2.86142e-05 0.112214)
(7.45293e-06 -1.62536e-05 0.112293)
(1.66414e-05 -1.41406e-05 0.112266)
(1.36195e-05 1.38537e-05 0.112153)
(-5.25587e-05 2.98634e-05 0.112143)
(-1.56347e-05 -6.46372e-05 0.112541)
(-1.78775e-05 -1.76225e-05 0.113603)
(0.000265441 8.15037e-05 0.113485)
(-0.000563055 0.000563181 0.112657)
(0.000459546 -0.000581602 0.0707841)
(-0.00861768 0.00416913 0.0188898)
(-1.03246e-05 7.82721e-05 0.112267)
(-1.72493e-05 7.68476e-05 0.112296)
(-3.40882e-05 6.27897e-05 0.112322)
(-3.38799e-05 5.98505e-05 0.112292)
(-5.12066e-05 3.91682e-05 0.112177)
(-2.42112e-05 2.98871e-05 0.111987)
(-3.81198e-05 6.40814e-05 0.1118)
(-9.64764e-05 1.92357e-05 0.111716)
(-6.75864e-05 6.67537e-05 0.112511)
(-8.21491e-05 -0.000265867 0.113497)
(0.000345444 0.000249512 0.0890153)
(-0.000616911 -0.00141784 0.0271072)
(-5.94524e-06 6.02744e-06 0.11234)
(9.92431e-07 6.89635e-06 0.112342)
(-9.29686e-06 1.20562e-05 0.112337)
(-6.56942e-06 1.2967e-05 0.112298)
(-1.42567e-05 2.11987e-05 0.112215)
(-2.25652e-05 2.22813e-05 0.112088)
(-2.24681e-05 1.85518e-05 0.111917)
(-1.23157e-05 1.15958e-05 0.111679)
(-1.95121e-05 9.5488e-05 0.111726)
(1.7165e-05 1.75386e-05 0.113618)
(-0.00034467 0.000177347 0.112521)
(0.000389385 -0.000405779 0.0741036)
(0.00141963 -0.00215641 0.0296389)
(-9.62391e-06 5.96851e-05 0.112402)
(-1.14597e-05 5.7662e-05 0.112394)
(-2.81435e-05 5.39664e-05 0.112374)
(-2.47291e-05 4.82968e-05 0.11233)
(-4.17158e-05 4.58234e-05 0.112259)
(-2.64047e-05 3.4149e-05 0.112165)
(-4.6869e-05 4.62893e-05 0.112061)
(-1.95736e-05 2.15765e-05 0.111921)
(-6.45521e-05 3.76676e-05 0.111808)
(6.41561e-05 1.45794e-05 0.112549)
(-0.000111873 -6.96574e-05 0.113488)
(0.000344975 4.94416e-05 0.0879334)
(0.000439899 -0.00447474 0.0268086)
(0.000428525 -0.00252465 0.0166373)
(-7.61575e-06 1.9853e-05 0.112451)
(-4.64399e-06 1.97113e-05 0.112439)
(-1.8516e-05 2.21457e-05 0.112414)
(-1.45872e-05 2.04552e-05 0.112371)
(-2.83145e-05 2.51099e-05 0.112312)
(-2.22126e-05 2.14993e-05 0.112239)
(-3.50621e-05 2.57344e-05 0.112166)
(-2.2896e-05 2.14804e-05 0.112091)
(-3.03196e-05 2.3992e-05 0.11199)
(-3.03339e-05 5.10338e-05 0.112146)
(5.77014e-06 -5.21931e-05 0.114066)
(-0.000294848 0.000115583 0.112292)
(0.00033166 -0.000385966 0.0724155)
(0.0015795 -0.00269766 0.0314793)
(-9.73754e-06 4.40916e-05 0.112502)
(-9.18291e-06 4.26199e-05 0.112489)
(-2.73485e-05 4.23629e-05 0.112463)
(-2.16742e-05 3.67089e-05 0.112422)
(-4.05782e-05 3.96904e-05 0.112371)
(-2.57912e-05 2.7294e-05 0.112312)
(-4.67899e-05 4.06497e-05 0.112259)
(-2.17695e-05 1.32632e-05 0.112215)
(-4.00626e-05 5.03811e-05 0.112178)
(-1.44135e-05 -1.46603e-05 0.112152)
(2.88108e-05 0.000100083 0.112977)
(-8.36888e-05 -0.000174296 0.113954)
(0.000268693 0.000208763 0.0889317)
(-0.000175049 -0.00434589 0.0269289)
(-9.21493e-06 1.80811e-05 0.112549)
(-6.3667e-06 1.7288e-05 0.112535)
(-2.43929e-05 1.90212e-05 0.112508)
(-1.72533e-05 1.62066e-05 0.112469)
(-3.77351e-05 2.06165e-05 0.112423)
(-2.1355e-05 1.32359e-05 0.112371)
(-4.91773e-05 2.3631e-05 0.112329)
(-1.3337e-05 5.58825e-06 0.112298)
(-6.03123e-05 3.28023e-05 0.112291)
(1.37622e-05 -1.73436e-05 0.112262)
(-8.93074e-05 6.69322e-05 0.112508)
(9.82616e-05 -0.000124812 0.114525)
(-0.000399971 0.000177169 0.113484)
(0.000479328 -0.000351655 0.0755345)
(-0.00658107 -0.00230248 0.0221113)
(-1.05715e-05 2.79991e-05 0.112599)
(-8.23133e-06 2.6605e-05 0.112583)
(-2.84168e-05 2.71456e-05 0.112552)
(-2.00936e-05 2.30173e-05 0.112511)
(-4.35675e-05 2.60167e-05 0.112464)
(-2.28661e-05 1.71249e-05 0.112415)
(-5.4557e-05 2.71866e-05 0.112373)
(-1.26058e-05 7.84478e-06 0.112336)
(-6.34021e-05 3.29766e-05 0.11232)
(1.56763e-05 -8.62721e-06 0.112288)
(-7.80344e-05 4.69676e-05 0.112263)
(7.4365e-05 -3.37737e-05 0.113273)
(-0.00012036 4.5858e-05 0.115944)
(0.00015118 0.000116288 0.0941909)
(-0.00668516 0.00299179 0.0250631)
(-1.05852e-05 6.55708e-06 0.112645)
(-7.22583e-06 5.915e-06 0.112622)
(-2.799e-05 6.89588e-06 0.112584)
(-1.83981e-05 5.0862e-06 0.112537)
(-4.36588e-05 7.796e-06 0.112489)
(-2.02331e-05 3.31666e-06 0.112439)
(-5.8605e-05 1.009e-05 0.112393)
(-7.42326e-06 -2.19554e-06 0.112341)
(-7.70335e-05 1.60564e-05 0.112293)
(2.83672e-05 -1.73705e-05 0.11221)
(-0.000121255 2.97803e-05 0.112076)
(0.00010474 -5.66202e-05 0.112439)
(-0.000241239 5.89307e-05 0.113165)
(0.000252677 -9.07601e-05 0.0892804)
(0.00153059 -0.00108632 0.0320758)
(-1.11195e-05 9.7847e-06 0.112675)
(-7.89651e-06 9.41421e-06 0.112646)
(-2.92493e-05 9.2312e-06 0.112601)
(-1.92032e-05 8.0049e-06 0.112551)
(-4.53518e-05 8.54749e-06 0.112503)
(-2.05594e-05 6.16229e-06 0.112452)
(-6.01573e-05 8.07242e-06 0.112402)
(-6.40319e-06 4.53345e-06 0.11234)
(-7.89387e-05 9.14719e-06 0.112265)
(3.15816e-05 3.14107e-06 0.11213)
(-0.000120768 1.1662e-05 0.111922)
(0.000110296 4.80875e-06 0.112214)
(-0.000206772 1.45205e-05 0.11277)
(0.000242284 3.43248e-05 0.0886633)
(0.00148776 0.000151072 0.0293294)
(-6.56056e-07 -0.00498491 0.0217292)
(-0.000706665 -0.00468685 0.0197509)
(-0.00150547 -0.00127553 0.0104404)
(-3.52531e-05 -0.000241632 0.0886653)
(8.9016e-05 -0.000251914 0.0892927)
(-0.000116855 -0.000151588 0.0942021)
(0.000351525 -0.000478427 0.0755385)
(0.00143501 -0.00589557 0.0290537)
(0.000473059 -0.00324863 0.0180681)
(-1.48545e-05 0.000208731 0.112781)
(-6.08485e-05 0.000241112 0.113186)
(-4.71525e-05 0.000123525 0.11596)
(-0.000182192 0.000398422 0.113495)
(-0.000214893 -0.000268667 0.0889324)
(0.000386754 -0.00033078 0.0724138)
(0.00185174 -0.00883063 0.0308941)
(-0.000456163 -0.00452204 0.0192982)
(-8.38599e-06 -0.000108062 0.112218)
(5.54925e-05 -0.000103116 0.11245)
(3.179e-05 -7.23732e-05 0.113286)
(0.000121881 -9.65216e-05 0.11453)
(0.00017536 8.71602e-05 0.113955)
(-0.000119015 0.000299464 0.112289)
(-5.63804e-05 -0.000342369 0.0879317)
(0.000404412 -0.000388218 0.0740966)
(0.000611797 -0.00603847 0.0313734)
(-0.00185649 -0.00423693 0.014938)
(-1.25887e-05 0.000123848 0.111928)
(-3.20805e-05 0.000126319 0.112084)
(-4.83355e-05 8.03372e-05 0.112271)
(-7.03372e-05 9.39989e-05 0.112513)
(-0.000103569 -2.67701e-05 0.112977)
(5.28966e-05 -3.95583e-06 0.114063)
(6.60774e-05 0.000113789 0.113479)
(-0.000184074 0.000354323 0.112509)
(-0.000254729 -0.000345414 0.0890145)
(0.000580688 -0.0004585 0.0707451)
(-0.0116549 0.00240685 0.0164896)
(-5.22091e-06 -2.79587e-05 0.112132)
(1.538e-05 -2.50529e-05 0.112213)
(6.2733e-06 -1.20546e-05 0.112292)
(1.42446e-05 -1.16153e-05 0.112264)
(1.28178e-05 1.85392e-05 0.112152)
(-5.45122e-05 3.26415e-05 0.11214)
(-1.45974e-05 -6.27177e-05 0.112539)
(-2.41106e-05 -1.59219e-05 0.113599)
(0.000261106 8.58837e-05 0.113482)
(-0.000560698 0.000560871 0.112653)
(0.000456817 -0.000580922 0.0707809)
(-0.00861895 0.00417005 0.018893)
(-1.08107e-05 8.31342e-05 0.112268)
(-1.84542e-05 8.17933e-05 0.112297)
(-3.55531e-05 6.74796e-05 0.112324)
(-3.56371e-05 6.449e-05 0.112294)
(-5.36027e-05 4.41852e-05 0.112177)
(-2.58657e-05 3.32098e-05 0.111988)
(-4.22338e-05 6.82564e-05 0.111797)
(-0.000100014 1.96148e-05 0.111715)
(-7.52301e-05 7.41383e-05 0.112509)
(-8.65946e-05 -0.000261726 0.113494)
(0.000345274 0.000252998 0.0890118)
(-0.000617193 -0.00141957 0.0271126)
(-6.53689e-06 1.02809e-05 0.112341)
(5.50001e-08 1.12818e-05 0.112343)
(-1.07801e-05 1.65826e-05 0.112338)
(-8.58412e-06 1.67962e-05 0.112299)
(-1.62936e-05 2.52347e-05 0.112215)
(-2.5276e-05 2.53042e-05 0.112088)
(-2.43025e-05 2.13399e-05 0.111917)
(-1.52554e-05 1.4434e-05 0.111677)
(-2.00909e-05 9.8747e-05 0.111724)
(1.5365e-05 2.38175e-05 0.113614)
(-0.00035595 0.000182969 0.112518)
(0.000387294 -0.000404194 0.0740983)
(0.00142102 -0.0021563 0.0296428)
(-1.01023e-05 6.43449e-05 0.112405)
(-1.24037e-05 6.24289e-05 0.112396)
(-3.01536e-05 5.86907e-05 0.112377)
(-2.69309e-05 5.25966e-05 0.112332)
(-4.48498e-05 5.04126e-05 0.112261)
(-2.92525e-05 3.75994e-05 0.112166)
(-5.11252e-05 5.04677e-05 0.112062)
(-2.26482e-05 2.33018e-05 0.111921)
(-6.88496e-05 4.13379e-05 0.111805)
(6.21414e-05 1.33175e-05 0.112547)
(-0.000114944 -6.67875e-05 0.113483)
(0.000340926 5.58504e-05 0.0879316)
(0.000440871 -0.00447562 0.0268138)
(0.000428653 -0.00252491 0.0166388)
(-8.13469e-06 2.3866e-05 0.112453)
(-5.51073e-06 2.35467e-05 0.11244)
(-2.04443e-05 2.59965e-05 0.112416)
(-1.66996e-05 2.40226e-05 0.112372)
(-3.11649e-05 2.86809e-05 0.112313)
(-2.53219e-05 2.45933e-05 0.11224)
(-3.86253e-05 2.84923e-05 0.112167)
(-2.63903e-05 2.41701e-05 0.112091)
(-3.39546e-05 2.56036e-05 0.111991)
(-3.29429e-05 5.29272e-05 0.112142)
(2.90112e-06 -5.32527e-05 0.114063)
(-0.000300887 0.000117897 0.112285)
(0.000329999 -0.000386364 0.0724107)
(0.00158051 -0.00269794 0.0314828)
(-1.03347e-05 4.83063e-05 0.112505)
(-1.02847e-05 4.64872e-05 0.112491)
(-2.96109e-05 4.62934e-05 0.112465)
(-2.41325e-05 4.02565e-05 0.112424)
(-4.41707e-05 4.31766e-05 0.112374)
(-2.94546e-05 3.00995e-05 0.112314)
(-5.14657e-05 4.37656e-05 0.112261)
(-2.60458e-05 1.53256e-05 0.112216)
(-4.52366e-05 5.30669e-05 0.112178)
(-1.91825e-05 -1.35843e-05 0.112151)
(2.61371e-05 0.000102633 0.112974)
(-8.81413e-05 -0.000175637 0.11395)
(0.000267028 0.000214521 0.0889274)
(-0.00017367 -0.00434689 0.0269347)
(-1.00171e-05 2.09619e-05 0.112551)
(-7.51466e-06 2.02178e-05 0.112536)
(-2.66325e-05 2.19346e-05 0.11251)
(-1.98029e-05 1.88007e-05 0.11247)
(-4.13288e-05 2.30415e-05 0.112425)
(-2.4851e-05 1.54887e-05 0.112372)
(-5.35174e-05 2.58316e-05 0.112331)
(-1.73285e-05 7.60962e-06 0.112298)
(-6.50156e-05 3.4754e-05 0.112292)
(1.09306e-05 -1.48096e-05 0.112261)
(-9.44955e-05 6.89487e-05 0.112507)
(9.56954e-05 -0.000122472 0.11452)
(-0.000399854 0.000180852 0.113482)
(0.000476155 -0.000351095 0.0755296)
(-0.00658181 -0.00230173 0.0221152)
(-1.13719e-05 3.08458e-05 0.112601)
(-9.29498e-06 2.95533e-05 0.112584)
(-3.10112e-05 2.98492e-05 0.112555)
(-2.3043e-05 2.5339e-05 0.112513)
(-4.75098e-05 2.82653e-05 0.112467)
(-2.67765e-05 1.90984e-05 0.112416)
(-5.94997e-05 2.89591e-05 0.112376)
(-1.7176e-05 9.41704e-06 0.112337)
(-6.81194e-05 3.44602e-05 0.112321)
(1.09095e-05 -7.46321e-06 0.112288)
(-8.0937e-05 4.73736e-05 0.112262)
(7.15402e-05 -3.27448e-05 0.113272)
(-0.000124516 4.60195e-05 0.115939)
(0.000149872 0.000116247 0.0941866)
(-0.00668501 0.00299252 0.0250683)
(-1.132e-05 7.99634e-06 0.112646)
(-8.51611e-06 7.40319e-06 0.112623)
(-3.08581e-05 8.31779e-06 0.112586)
(-2.1406e-05 6.27064e-06 0.112539)
(-4.76076e-05 8.97737e-06 0.112492)
(-2.42192e-05 4.29356e-06 0.11244)
(-6.33676e-05 1.10679e-05 0.112396)
(-1.17149e-05 -1.12581e-06 0.112342)
(-8.21462e-05 1.71245e-05 0.112294)
(2.45e-05 -1.65175e-05 0.112209)
(-0.000126537 3.11969e-05 0.112075)
(0.000102254 -5.69142e-05 0.112435)
(-0.000242049 5.98814e-05 0.113163)
(0.000250585 -9.0416e-05 0.0892752)
(0.00153177 -0.00108613 0.0320816)
(-1.24746e-05 1.12033e-05 0.112677)
(-8.97749e-06 1.01699e-05 0.112647)
(-3.21492e-05 1.00776e-05 0.112603)
(-2.23977e-05 8.70429e-06 0.112553)
(-4.95065e-05 9.12958e-06 0.112506)
(-2.46773e-05 6.75964e-06 0.112454)
(-6.50138e-05 8.60856e-06 0.112405)
(-1.08718e-05 4.97543e-06 0.112341)
(-8.38466e-05 9.31315e-06 0.112267)
(2.72619e-05 3.78249e-06 0.11213)
(-0.000124735 1.1554e-05 0.111923)
(0.000107165 6.91475e-06 0.112211)
(-0.000209911 1.37564e-05 0.112769)
(0.000239974 3.39561e-05 0.0886573)
(0.00148909 0.000150494 0.0293351)
(-5.74381e-07 -0.00498531 0.021732)
(-0.000706774 -0.00468738 0.0197536)
(-0.00150561 -0.00127576 0.0104433)
(-3.4193e-05 -0.000238204 0.0886595)
(9.03528e-05 -0.000248843 0.0892872)
(-0.000116521 -0.000149368 0.0941969)
(0.000350478 -0.000473664 0.0755332)
(0.00143509 -0.00589709 0.0290587)
(0.000472819 -0.00324922 0.0180708)
(-1.5155e-05 0.000213413 0.112779)
(-6.32162e-05 0.000242867 0.113184)
(-4.5798e-05 0.000128532 0.115955)
(-0.0001867 0.000397697 0.113494)
(-0.000223332 -0.000266547 0.0889297)
(0.000386673 -0.000328876 0.0724091)
(0.00185248 -0.00883226 0.0309001)
(-0.000456633 -0.00452242 0.0193007)
(-1.03041e-05 -0.000105674 0.112215)
(5.67661e-05 -0.000100286 0.112447)
(2.96752e-05 -6.87445e-05 0.113283)
(0.000118596 -9.53658e-05 0.114524)
(0.000176806 9.23989e-05 0.113951)
(-0.000121015 0.000306706 0.112281)
(-6.2268e-05 -0.000338294 0.0879282)
(0.000402608 -0.000384889 0.0740933)
(0.000612648 -0.00603998 0.0313786)
(-0.00185645 -0.00423746 0.0149409)
(-1.2607e-05 0.000127568 0.111928)
(-3.35039e-05 0.000131479 0.112084)
(-4.90796e-05 8.24423e-05 0.112271)
(-7.31628e-05 0.000100022 0.112513)
(-0.000106511 -2.36379e-05 0.112975)
(5.31154e-05 -5.12091e-07 0.114061)
(6.34927e-05 0.00011696 0.113475)
(-0.000189016 0.000365279 0.112506)
(-0.000258853 -0.000344519 0.0890118)
(0.00058007 -0.000455608 0.0707423)
(-0.011656 0.00240612 0.016496)
(-5.9179e-06 -2.42072e-05 0.112131)
(1.49264e-05 -2.15403e-05 0.112212)
(4.94713e-06 -7.74968e-06 0.112292)
(1.20428e-05 -8.73493e-06 0.112263)
(1.15834e-05 2.34395e-05 0.112151)
(-5.63291e-05 3.57233e-05 0.112137)
(-1.38102e-05 -6.06104e-05 0.112538)
(-2.97483e-05 -1.42221e-05 0.113594)
(0.000257896 9.05572e-05 0.11348)
(-0.00055951 0.000559411 0.112648)
(0.000454035 -0.000579231 0.0707783)
(-0.00862009 0.00417068 0.0188969)
(-1.10139e-05 8.77409e-05 0.112271)
(-1.94442e-05 8.66579e-05 0.112299)
(-3.69786e-05 7.19315e-05 0.112325)
(-3.77895e-05 6.92572e-05 0.112295)
(-5.62262e-05 4.89639e-05 0.112179)
(-2.83152e-05 3.71196e-05 0.111988)
(-4.61568e-05 7.24739e-05 0.111796)
(-0.000102378 2.08748e-05 0.111715)
(-8.2369e-05 8.10337e-05 0.112508)
(-9.13528e-05 -0.000258596 0.113493)
(0.000343966 0.000257251 0.0890091)
(-0.000617767 -0.00142103 0.0271192)
(-6.99825e-06 1.42848e-05 0.112341)
(-5.81454e-07 1.51471e-05 0.112343)
(-1.21961e-05 2.06543e-05 0.112338)
(-1.0387e-05 2.01952e-05 0.112299)
(-1.82713e-05 2.93866e-05 0.112215)
(-2.75407e-05 2.82162e-05 0.112087)
(-2.60697e-05 2.49554e-05 0.111917)
(-1.81177e-05 1.7058e-05 0.111676)
(-2.14428e-05 0.000101146 0.111724)
(1.37346e-05 2.94468e-05 0.113609)
(-0.000366961 0.000187755 0.112514)
(0.000384327 -0.000402544 0.0740952)
(0.00142242 -0.00215616 0.0296473)
(-1.05266e-05 6.87822e-05 0.112407)
(-1.3341e-05 6.67078e-05 0.112398)
(-3.20324e-05 6.30744e-05 0.112378)
(-2.8948e-05 5.66276e-05 0.112333)
(-4.78763e-05 5.48136e-05 0.112262)
(-3.21593e-05 4.09323e-05 0.112168)
(-5.52863e-05 5.44588e-05 0.112063)
(-2.62366e-05 2.51746e-05 0.111921)
(-7.30863e-05 4.55871e-05 0.111804)
(5.98335e-05 1.24673e-05 0.112546)
(-0.000118324 -6.43097e-05 0.113479)
(0.000337082 6.15908e-05 0.0879282)
(0.000442043 -0.00447665 0.0268202)
(0.000428956 -0.0025256 0.0166409)
(-8.82261e-06 2.72626e-05 0.112452)
(-6.19141e-06 2.66973e-05 0.11244)
(-2.20799e-05 2.93524e-05 0.112416)
(-1.84397e-05 2.69392e-05 0.112372)
(-3.37981e-05 3.17872e-05 0.112314)
(-2.79808e-05 2.7147e-05 0.11224)
(-4.18566e-05 3.13331e-05 0.112169)
(-2.90539e-05 2.65267e-05 0.11209)
(-3.81242e-05 2.80008e-05 0.111992)
(-3.63762e-05 5.47403e-05 0.11214)
(-6.52274e-07 -5.35036e-05 0.114061)
(-0.000308062 0.000119949 0.112279)
(0.000328277 -0.00038649 0.0724062)
(0.00158123 -0.00269787 0.0314878)
(-1.10846e-05 5.18958e-05 0.112505)
(-1.12565e-05 5.00067e-05 0.112491)
(-3.17031e-05 4.99342e-05 0.112466)
(-2.63695e-05 4.33117e-05 0.112424)
(-4.75424e-05 4.64099e-05 0.112375)
(-3.26295e-05 3.26989e-05 0.112315)
(-5.58411e-05 4.67922e-05 0.112263)
(-3.01579e-05 1.70067e-05 0.112216)
(-5.0129e-05 5.51533e-05 0.112179)
(-2.42639e-05 -1.23291e-05 0.112151)
(2.2842e-05 0.000105313 0.112973)
(-9.35439e-05 -0.00017706 0.113946)
(0.000264872 0.00022283 0.0889249)
(-0.000172196 -0.00434732 0.0269411)
(-1.0731e-05 2.36118e-05 0.112548)
(-8.13841e-06 2.28945e-05 0.112534)
(-2.87205e-05 2.44204e-05 0.112509)
(-2.19413e-05 2.09319e-05 0.112469)
(-4.44193e-05 2.52527e-05 0.112425)
(-2.7736e-05 1.73899e-05 0.112372)
(-5.77053e-05 2.77915e-05 0.112333)
(-2.1013e-05 9.34018e-06 0.112298)
(-6.97222e-05 3.65469e-05 0.112293)
(7.97191e-06 -1.27106e-05 0.11226)
(-0.00010064 7.1603e-05 0.112507)
(9.46702e-05 -0.000119026 0.114515)
(-0.000399207 0.00018524 0.113481)
(0.000471988 -0.00035021 0.0755246)
(-0.00658212 -0.00230179 0.0221193)
(-1.21243e-05 3.40718e-05 0.112599)
(-1.04214e-05 3.2432e-05 0.112583)
(-3.3643e-05 3.23937e-05 0.112554)
(-2.55578e-05 2.75076e-05 0.112511)
(-5.11228e-05 3.04493e-05 0.112467)
(-3.02311e-05 2.08467e-05 0.112416)
(-6.40883e-05 3.07949e-05 0.112378)
(-2.15085e-05 1.10964e-05 0.112338)
(-7.27127e-05 3.58885e-05 0.112323)
(6.60986e-06 -6.10077e-06 0.112287)
(-8.29482e-05 4.82056e-05 0.112263)
(6.78635e-05 -3.06081e-05 0.113269)
(-0.00012941 4.47517e-05 0.115935)
(0.000147973 0.000116197 0.094182)
(-0.00668512 0.00299298 0.0250738)
(-1.23749e-05 9.55006e-06 0.112643)
(-9.81848e-06 8.75065e-06 0.11262)
(-3.36581e-05 9.49611e-06 0.112584)
(-2.39104e-05 7.2116e-06 0.112536)
(-5.11285e-05 9.95524e-06 0.112492)
(-2.7471e-05 5.15405e-06 0.11244)
(-6.76518e-05 1.21194e-05 0.112397)
(-1.5821e-05 -1.99758e-07 0.112342)
(-8.71755e-05 1.82468e-05 0.112296)
(2.09919e-05 -1.57439e-05 0.112208)
(-0.000131842 3.25615e-05 0.112076)
(9.95155e-05 -5.81122e-05 0.112433)
(-0.000243597 6.23114e-05 0.113161)
(0.000247731 -9.161e-05 0.0892703)
(0.00153334 -0.00108639 0.0320885)
(-1.31274e-05 1.18431e-05 0.112675)
(-1.04796e-05 1.1097e-05 0.112645)
(-3.51914e-05 1.08661e-05 0.112602)
(-2.51214e-05 9.40755e-06 0.112551)
(-5.32079e-05 9.68102e-06 0.112505)
(-2.80643e-05 7.33632e-06 0.112453)
(-6.95464e-05 9.16045e-06 0.112407)
(-1.51198e-05 5.36968e-06 0.112341)
(-8.85628e-05 9.85055e-06 0.112269)
(2.33247e-05 4.50804e-06 0.112129)
(-0.000128606 1.15266e-05 0.111924)
(0.00010482 8.98442e-06 0.112209)
(-0.000214436 1.41125e-05 0.112768)
(0.000236943 3.29437e-05 0.0886521)
(0.00149079 0.000150741 0.0293422)
(-4.29619e-07 -0.00498574 0.0217355)
(-0.000706845 -0.00468797 0.019757)
(-0.00150565 -0.00127594 0.0104466)
(-3.34847e-05 -0.00023439 0.0886559)
(9.1968e-05 -0.000244969 0.0892826)
(-0.00011626 -0.000146837 0.0941919)
(0.000349099 -0.00046769 0.0755281)
(0.00143504 -0.00589872 0.029065)
(0.000472478 -0.00324998 0.0180736)
(-1.5068e-05 0.000217621 0.112776)
(-6.57859e-05 0.000244918 0.113183)
(-4.35838e-05 0.00013268 0.115951)
(-0.000190076 0.000397219 0.113492)
(-0.000233623 -0.000263627 0.0889286)
(0.000385323 -0.000326884 0.0724062)
(0.00185331 -0.00883429 0.0309077)
(-0.000456989 -0.00452298 0.0193036)
(-1.17393e-05 -0.00010275 0.112212)
(5.80267e-05 -9.74255e-05 0.112445)
(2.73947e-05 -6.45467e-05 0.113279)
(0.000116168 -9.47977e-05 0.114521)
(0.000177569 9.68293e-05 0.113948)
(-0.000122785 0.000315042 0.112276)
(-6.626e-05 -0.000333518 0.087926)
(0.000400201 -0.000381489 0.074091)
(0.000613141 -0.0060418 0.0313852)
(-0.00185657 -0.00423837 0.014944)
(-1.26421e-05 0.000131068 0.111931)
(-3.51521e-05 0.000136016 0.112087)
(-4.96602e-05 8.49166e-05 0.112273)
(-7.63052e-05 0.000105929 0.112515)
(-0.00011019 -2.03382e-05 0.112976)
(5.28091e-05 3.62097e-06 0.114059)
(6.07234e-05 0.000120322 0.113472)
(-0.000193128 0.000374622 0.112502)
(-0.000262961 -0.00034211 0.0890105)
(0.000577435 -0.000451372 0.07074)
(-0.0116593 0.00241006 0.0164971)
(-6.49514e-06 -2.14556e-05 0.11213)
(1.50341e-05 -1.87069e-05 0.112211)
(3.94518e-06 -3.89518e-06 0.112291)
(1.05419e-05 -6.52006e-06 0.112262)
(1.04476e-05 2.86317e-05 0.112152)
(-5.79923e-05 3.86621e-05 0.112136)
(-1.33016e-05 -5.8143e-05 0.112537)
(-3.47296e-05 -1.19195e-05 0.113591)
(0.00025558 9.57847e-05 0.113479)
(-0.000559055 0.000559414 0.112644)
(0.000450041 -0.000578025 0.0707758)
(-0.00862224 0.00417126 0.018901)
(-1.11999e-05 9.16228e-05 0.112273)
(-2.01353e-05 9.08665e-05 0.112301)
(-3.82467e-05 7.54678e-05 0.112328)
(-3.94881e-05 7.33909e-05 0.112297)
(-5.90173e-05 5.3031e-05 0.112181)
(-3.11882e-05 4.09082e-05 0.111989)
(-4.94718e-05 7.65332e-05 0.111797)
(-0.000103757 2.24041e-05 0.111716)
(-8.90543e-05 8.77495e-05 0.112509)
(-9.64656e-05 -0.000256296 0.113492)
(0.000342026 0.000260849 0.0890079)
(-0.000617573 -0.00142217 0.0271272)
(-7.3495e-06 1.70924e-05 0.112339)
(-8.50859e-07 1.76877e-05 0.112341)
(-1.3264e-05 2.35933e-05 0.112338)
(-1.12723e-05 2.24596e-05 0.112298)
(-1.96081e-05 3.24741e-05 0.112216)
(-2.9068e-05 3.0597e-05 0.112087)
(-2.76867e-05 2.84318e-05 0.111918)
(-2.03239e-05 1.92128e-05 0.111675)
(-2.29963e-05 0.000102395 0.111725)
(1.13581e-05 3.42349e-05 0.113606)
(-0.000376209 0.000191666 0.11251)
(0.000380912 -0.000400205 0.0740932)
(0.00142289 -0.00215579 0.0296533)
(-1.0887e-05 7.21824e-05 0.112406)
(-1.39168e-05 6.99238e-05 0.112397)
(-3.35607e-05 6.66607e-05 0.112378)
(-3.04336e-05 5.97171e-05 0.112334)
(-5.04497e-05 5.83116e-05 0.112264)
(-3.45462e-05 4.33832e-05 0.112169)
(-5.87656e-05 5.78822e-05 0.112065)
(-2.98512e-05 2.67341e-05 0.111923)
(-7.72683e-05 4.87657e-05 0.111805)
(5.73554e-05 1.18773e-05 0.112545)
(-0.000121533 -6.15178e-05 0.113476)
(0.000332929 6.53937e-05 0.0879265)
(0.000443344 -0.00447793 0.0268273)
(0.000429077 -0.00252621 0.0166433)
(-9.42867e-06 2.91997e-05 0.112448)
(-6.26035e-06 2.85434e-05 0.112435)
(-2.32371e-05 3.14698e-05 0.112413)
(-1.93573e-05 2.84958e-05 0.112369)
(-3.57238e-05 3.387e-05 0.112313)
(-2.9564e-05 2.87986e-05 0.112239)
(-4.437e-05 3.36995e-05 0.11217)
(-3.15756e-05 2.79261e-05 0.11209)
(-4.19565e-05 3.07331e-05 0.111992)
(-3.92381e-05 5.64579e-05 0.112139)
(-4.8718e-06 -5.31706e-05 0.11406)
(-0.000316357 0.00012161 0.112273)
(0.00032644 -0.000385626 0.0724034)
(0.00158253 -0.00269776 0.0314934)
(-1.15966e-05 5.47352e-05 0.1125)
(-1.16408e-05 5.2599e-05 0.112487)
(-3.34923e-05 5.25888e-05 0.112462)
(-2.78522e-05 4.53683e-05 0.112421)
(-4.99986e-05 4.893e-05 0.112374)
(-3.47367e-05 3.46183e-05 0.112314)
(-5.95941e-05 4.91879e-05 0.112264)
(-3.35031e-05 1.82923e-05 0.112217)
(-5.41287e-05 5.79829e-05 0.112181)
(-2.92968e-05 -1.13297e-05 0.112152)
(1.95127e-05 0.000108857 0.112973)
(-9.79655e-05 -0.000177838 0.113944)
(0.000262158 0.000232989 0.0889242)
(-0.000170823 -0.00434847 0.0269493)
(-1.15021e-05 2.60793e-05 0.112542)
(-8.3792e-06 2.47145e-05 0.112528)
(-3.0395e-05 2.60438e-05 0.112503)
(-2.29804e-05 2.2223e-05 0.112464)
(-4.64842e-05 2.68055e-05 0.112422)
(-2.94678e-05 1.82943e-05 0.112369)
(-6.08981e-05 2.93247e-05 0.112333)
(-2.31981e-05 1.06743e-05 0.112298)
(-7.39763e-05 3.8306e-05 0.112296)
(5.66811e-06 -1.10808e-05 0.112259)
(-0.000106511 7.46768e-05 0.112509)
(9.41105e-05 -0.000116551 0.114511)
(-0.000398542 0.000188535 0.11348)
(0.000466315 -0.000348832 0.07552)
(-0.0065827 -0.00230098 0.0221242)
(-1.29994e-05 3.72167e-05 0.112592)
(-1.16311e-05 3.5186e-05 0.112575)
(-3.59502e-05 3.46341e-05 0.112548)
(-2.71146e-05 2.92393e-05 0.112506)
(-5.3981e-05 3.21575e-05 0.112464)
(-3.23934e-05 2.20933e-05 0.112413)
(-6.74634e-05 3.24793e-05 0.112378)
(-2.46914e-05 1.21747e-05 0.112337)
(-7.64988e-05 3.70596e-05 0.112325)
(2.78968e-06 -4.92957e-06 0.112287)
(-8.55392e-05 4.86779e-05 0.112265)
(6.36381e-05 -2.82783e-05 0.113266)
(-0.000133454 4.27025e-05 0.115932)
(0.000145605 0.000115814 0.0941772)
(-0.00668527 0.0029941 0.0250806)
(-1.36482e-05 1.15195e-05 0.112634)
(-1.0956e-05 1.01728e-05 0.112612)
(-3.63567e-05 1.06466e-05 0.112577)
(-2.54921e-05 7.82885e-06 0.11253)
(-5.36945e-05 1.05928e-05 0.112487)
(-2.92519e-05 5.68312e-06 0.112436)
(-7.1049e-05 1.27317e-05 0.112397)
(-1.85369e-05 1.20473e-07 0.11234)
(-9.1345e-05 1.90377e-05 0.112299)
(1.80589e-05 -1.58205e-05 0.112207)
(-0.000136467 3.39686e-05 0.112079)
(9.68976e-05 -5.92095e-05 0.112431)
(-0.000245614 6.47511e-05 0.11316)
(0.00024435 -9.30425e-05 0.0892658)
(0.00153497 -0.00108645 0.0320967)
(-1.45094e-05 1.32404e-05 0.112667)
(-1.25086e-05 1.23207e-05 0.112636)
(-3.83124e-05 1.18924e-05 0.112594)
(-2.72081e-05 1.02796e-05 0.112544)
(-5.61696e-05 1.03515e-05 0.112501)
(-3.02631e-05 7.81801e-06 0.112449)
(-7.31454e-05 9.54081e-06 0.112406)
(-1.8109e-05 5.82271e-06 0.112339)
(-9.27139e-05 1.00345e-05 0.112272)
(2.02639e-05 5.02451e-06 0.112128)
(-0.00013209 1.15567e-05 0.111926)
(0.000101972 1.05106e-05 0.112206)
(-0.000218408 1.40619e-05 0.112766)
(0.000234226 3.25432e-05 0.0886489)
(0.00149289 0.000150911 0.0293503)
(-4.15599e-07 -0.00498674 0.0217401)
(-0.00070684 -0.00468865 0.0197613)
(-0.00150566 -0.00127612 0.0104506)
(-3.36551e-05 -0.000230459 0.0886544)
(9.32845e-05 -0.000240406 0.0892801)
(-0.000116369 -0.000144115 0.0941883)
(0.000347194 -0.000460616 0.0755232)
(0.00143505 -0.00590048 0.0290726)
(0.000472294 -0.0032509 0.0180773)
(-1.40257e-05 0.000219791 0.112776)
(-6.81493e-05 0.000246465 0.113184)
(-4.13731e-05 0.000135424 0.11595)
(-0.000192886 0.000396709 0.113492)
(-0.000243729 -0.000259866 0.0889282)
(0.00038304 -0.000324571 0.0724055)
(0.00185322 -0.00883699 0.0309168)
(-0.000457353 -0.00452381 0.0193074)
(-1.26455e-05 -9.92079e-05 0.11221)
(5.9523e-05 -9.49305e-05 0.112444)
(2.50339e-05 -6.00424e-05 0.113277)
(0.000115077 -9.4213e-05 0.114518)
(0.000178809 0.000100912 0.113948)
(-0.000123875 0.000322046 0.112273)
(-6.88024e-05 -0.000328151 0.0879264)
(0.000397271 -0.000377478 0.0740887)
(0.0006138 -0.00604401 0.0313931)
(-0.00185686 -0.00423925 0.0149479)
(-1.27502e-05 0.000133646 0.111935)
(-3.69916e-05 0.000139234 0.112091)
(-4.99339e-05 8.7282e-05 0.112276)
(-7.95128e-05 0.000111233 0.112519)
(-0.000115128 -1.72985e-05 0.112978)
(5.20627e-05 7.89801e-06 0.114059)
(5.85716e-05 0.000122686 0.113472)
(-0.000195832 0.000382358 0.112501)
(-0.000266724 -0.000338861 0.0890122)
(0.000576018 -0.000446337 0.0707376)
(-0.0116602 0.00240777 0.0165083)
(-6.82929e-06 -2.00725e-05 0.112128)
(1.61655e-05 -1.74544e-05 0.112209)
(3.56201e-06 -1.50474e-06 0.112292)
(1.02758e-05 -5.97944e-06 0.112261)
(1.06044e-05 3.26904e-05 0.112155)
(-5.97871e-05 4.11642e-05 0.112138)
(-1.32024e-05 -5.50954e-05 0.112538)
(-3.85037e-05 -9.5272e-06 0.11359)
(0.000254721 0.000101211 0.113479)
(-0.000559788 0.000559587 0.112643)
(0.000444811 -0.000574373 0.0707741)
(-0.00862399 0.0041725 0.0189059)
(-1.15135e-05 9.36574e-05 0.112275)
(-2.11473e-05 9.28706e-05 0.112304)
(-3.93315e-05 7.7439e-05 0.11233)
(-4.09e-05 7.5942e-05 0.1123)
(-6.17662e-05 5.50993e-05 0.112183)
(-3.2732e-05 4.31846e-05 0.111991)
(-5.16275e-05 8.03193e-05 0.111802)
(-0.000104136 2.36565e-05 0.111717)
(-9.54354e-05 9.38454e-05 0.112513)
(-0.000101917 -0.000255463 0.113492)
(0.000338855 0.000264989 0.0890098)
(-0.000617683 -0.00142415 0.0271359)
(-7.68497e-06 1.67798e-05 0.112337)
(1.86101e-07 1.74523e-05 0.112339)
(-1.30883e-05 2.4173e-05 0.112337)
(-1.1345e-05 2.23561e-05 0.112297)
(-1.95569e-05 3.40555e-05 0.112217)
(-2.896e-05 3.16492e-05 0.112087)
(-2.84319e-05 3.07698e-05 0.111921)
(-2.16543e-05 2.02493e-05 0.111676)
(-2.42867e-05 0.000102459 0.111727)
(9.08871e-06 3.7868e-05 0.113605)
(-0.00038381 0.000194399 0.11251)
(0.000376912 -0.000397197 0.0740908)
(0.00142347 -0.00215579 0.029661)
(-1.12341e-05 7.38921e-05 0.112402)
(-1.40566e-05 7.17025e-05 0.112394)
(-3.44928e-05 6.77906e-05 0.112376)
(-3.07656e-05 6.0675e-05 0.112332)
(-5.19237e-05 6.00858e-05 0.112264)
(-3.52228e-05 4.39985e-05 0.112169)
(-6.08589e-05 5.99926e-05 0.112069)
(-3.25115e-05 2.73688e-05 0.111925)
(-8.11895e-05 5.11481e-05 0.111811)
(5.4627e-05 1.17949e-05 0.112546)
(-0.000123678 -5.92242e-05 0.113476)
(0.000327548 6.76995e-05 0.0879272)
(0.000445039 -0.00448019 0.0268363)
(0.000429067 -0.00252733 0.0166464)
(-9.78026e-06 2.87329e-05 0.11244)
(-5.77944e-06 2.80364e-05 0.112429)
(-2.38311e-05 3.12736e-05 0.112407)
(-1.87163e-05 2.77413e-05 0.112365)
(-3.59559e-05 3.4013e-05 0.11231)
(-2.90956e-05 2.84981e-05 0.112238)
(-4.51028e-05 3.43139e-05 0.11217)
(-3.27241e-05 2.78455e-05 0.11209)
(-4.41316e-05 3.26438e-05 0.111994)
(-4.16949e-05 5.83928e-05 0.112141)
(-9.34658e-06 -5.24203e-05 0.11406)
(-0.000323298 0.000122664 0.112271)
(0.000324392 -0.000383427 0.0724032)
(0.00158277 -0.0026974 0.0315009)
(-1.21902e-05 5.72793e-05 0.112488)
(-1.14883e-05 5.48651e-05 0.112476)
(-3.46309e-05 5.43153e-05 0.112453)