/*--------------------------------*- C++ -*----------------------------------*\
| =========                 |                                                 |
| \\      /  F ield         | OpenFOAM: The Open Source CFD Toolbox           |
|  \\    /   O peration     | Version:  2.1.1                                 |
|   \\  /    A nd           | Web:      www.OpenFOAM.org                      |
|    \\/     M anipulation  |                                                 |
\*---------------------------------------------------------------------------*/
FoamFile
{
    version     2.0;
    format      ascii;
    class       volVectorField;
    location    "0.004";
    object      U;
}
// * * * * * * * * * * * * * * * * * * * * * * * * * * * * * * * * * * * * * //

dimensions      [0 1 -1 0 0 0 0];

internalField   nonuniform List<vector> 
10339
(
(-1.1683e-05 4.66084e-07 0.112602)
(4.62058e-07 -1.17091e-05 0.112604)
(-1.13954e-05 -1.13647e-05 0.112737)
(-7.22125e-06 -1.0933e-05 0.112705)
(-2.96348e-05 -1.08669e-05 0.112658)
(-1.84053e-05 -9.67088e-06 0.112606)
(-4.56966e-05 -1.00278e-05 0.112557)
(-1.99528e-05 -7.90344e-06 0.112504)
(-6.05071e-05 -9.70267e-06 0.112452)
(-5.4641e-06 -6.20841e-06 0.112388)
(-7.89244e-05 -1.05383e-05 0.112311)
(3.24528e-05 -4.62511e-06 0.112167)
(-0.000121115 -1.27433e-05 0.111953)
(0.00011094 -5.96316e-06 0.112309)
(-0.000207353 -1.55903e-05 0.112813)
(0.000242965 -3.52109e-05 0.0881975)
(0.00150683 -1.91781e-05 0.0295573)
(-1.08994e-05 -7.16929e-06 0.112705)
(-6.84405e-06 -6.81014e-06 0.11268)
(-2.82159e-05 -7.58726e-06 0.11264)
(-1.7655e-05 -5.89127e-06 0.112591)
(-4.3738e-05 -8.61158e-06 0.112543)
(-1.94834e-05 -3.93413e-06 0.112491)
(-5.86447e-05 -1.08143e-05 0.112444)
(-6.5709e-06 1.36079e-06 0.112391)
(-7.75503e-05 -1.69224e-05 0.112342)
(2.92528e-05 1.63586e-05 0.11225)
(-0.000121718 -3.09797e-05 0.112107)
(0.00010562 5.53382e-05 0.112564)
(-0.000241987 -6.00943e-05 0.113287)
(0.000253337 8.95892e-05 0.0888674)
(0.00151591 -0.000122262 0.0299087)
(-1.08659e-05 -2.95658e-05 0.112659)
(-7.63957e-06 -2.8205e-05 0.112642)
(-2.87218e-05 -2.86805e-05 0.112609)
(-1.94186e-05 -2.45585e-05 0.112563)
(-4.373e-05 -2.76735e-05 0.112516)
(-2.21696e-05 -1.87794e-05 0.112465)
(-5.51259e-05 -2.8828e-05 0.112423)
(-1.18205e-05 -9.65036e-06 0.112386)
(-6.36179e-05 -3.45202e-05 0.112369)
(1.62179e-05 7.23275e-06 0.112325)
(-7.84311e-05 -4.86785e-05 0.112316)
(7.5097e-05 3.34382e-05 0.113499)
(-0.000122039 -4.66072e-05 0.116128)
(0.000151921 -0.000117151 0.0937234)
(0.000148046 -0.00207582 0.0281875)
(-9.71592e-06 -1.83823e-05 0.112607)
(-5.95858e-06 -1.76687e-05 0.112593)
(-2.45773e-05 -1.93967e-05 0.112565)
(-1.66359e-05 -1.66141e-05 0.112522)
(-3.79221e-05 -2.11504e-05 0.112473)
(-2.05857e-05 -1.40088e-05 0.11242)
(-4.9367e-05 -2.44489e-05 0.112377)
(-1.24235e-05 -6.32787e-06 0.112346)
(-6.04218e-05 -3.38081e-05 0.112334)
(1.48164e-05 1.65592e-05 0.112296)
(-8.86335e-05 -6.84241e-05 0.112613)
(9.90026e-05 0.000125282 0.114764)
(-0.000400451 -0.000178546 0.113411)
(0.000479765 0.000348859 0.0751913)
(-0.00800892 -0.00325168 0.0250653)
(-1.00733e-05 -4.5662e-05 0.112557)
(-8.65841e-06 -4.36938e-05 0.112544)
(-2.76787e-05 -4.36808e-05 0.112517)
(-2.11857e-05 -3.78914e-05 0.112474)
(-4.11144e-05 -4.10672e-05 0.11242)
(-2.53747e-05 -2.86539e-05 0.112359)
(-4.73263e-05 -4.25928e-05 0.112304)
(-2.12082e-05 -1.47952e-05 0.112257)
(-4.00861e-05 -5.24753e-05 0.112207)
(-1.37477e-05 1.23541e-05 0.112194)
(2.83455e-05 -0.000102015 0.113136)
(-8.41788e-05 0.000175519 0.114021)
(0.00026886 -0.000208693 0.0885579)
(-0.00134708 -0.00208125 0.0389219)
(0.00209962 0.00342054 0.0120962)
(-7.93737e-06 -1.98894e-05 0.112504)
(-3.99043e-06 -1.94366e-05 0.112491)
(-1.8805e-05 -2.20854e-05 0.112466)
(-1.40421e-05 -2.05158e-05 0.112421)
(-2.86899e-05 -2.52629e-05 0.11236)
(-2.20194e-05 -2.19044e-05 0.112284)
(-3.54395e-05 -2.60588e-05 0.112207)
(-2.20978e-05 -2.24223e-05 0.112121)
(-3.06228e-05 -2.52584e-05 0.112005)
(-2.91323e-05 -5.40776e-05 0.112228)
(5.28542e-06 5.13725e-05 0.114261)
(-0.000295294 -0.000115362 0.112116)
(0.000331629 0.00038468 0.072011)
(0.000789582 0.00284012 0.03237)
(-9.73712e-06 -6.04563e-05 0.112453)
(-1.0839e-05 -5.85941e-05 0.112444)
(-2.88041e-05 -5.50315e-05 0.112424)
(-2.44535e-05 -4.92859e-05 0.112379)
(-4.26015e-05 -4.72526e-05 0.112306)
(-2.61791e-05 -3.53331e-05 0.112209)
(-4.797e-05 -4.77913e-05 0.112096)
(-1.97237e-05 -2.33655e-05 0.111932)
(-6.57469e-05 -4.094e-05 0.111821)
(6.45719e-05 -1.74891e-05 0.112674)
(-0.000113343 6.95197e-05 0.113537)
(0.000343927 -4.82752e-05 0.0875682)
(-0.00152911 -0.00223417 0.0360973)
(0.00317695 0.00278229 0.0188442)
(-6.23294e-06 -5.44043e-06 0.112389)
(1.34744e-06 -6.4903e-06 0.112392)
(-9.64357e-06 -1.17147e-05 0.112387)
(-6.37617e-06 -1.23615e-05 0.112348)
(-1.47988e-05 -2.10996e-05 0.11226)
(-2.24366e-05 -2.2158e-05 0.112125)
(-2.34788e-05 -1.94925e-05 0.111937)
(-1.29736e-05 -1.2847e-05 0.111681)
(-2.08059e-05 -9.76343e-05 0.111785)
(1.70017e-05 -1.88675e-05 0.113782)
(-0.000346883 -0.000176213 0.112338)
(0.000388708 0.000404823 0.0736898)
(0.000669926 0.00192158 0.0320689)
(-1.05178e-05 -7.88765e-05 0.112311)
(-1.68634e-05 -7.74919e-05 0.112343)
(-3.45157e-05 -6.35663e-05 0.112371)
(-3.38071e-05 -6.03655e-05 0.112337)
(-5.25894e-05 -4.00397e-05 0.112211)
(-2.52282e-05 -3.06978e-05 0.112011)
(-4.09521e-05 -6.61173e-05 0.11183)
(-9.7987e-05 -2.25012e-05 0.111793)
(-6.94092e-05 -6.92069e-05 0.112647)
(-8.36756e-05 0.000265401 0.113541)
(0.000342413 -0.000248943 0.0886892)
(-0.0010927 -0.00347028 0.0387045)
(0.0011508 0.000865619 0.0145509)
(-4.61747e-06 3.25057e-05 0.112167)
(1.63504e-05 2.92866e-05 0.112251)
(7.23623e-06 1.62858e-05 0.112327)
(1.65121e-05 1.4896e-05 0.112298)
(1.2251e-05 -1.35936e-05 0.112198)
(-5.44901e-05 -2.9022e-05 0.112233)
(-1.93734e-05 6.51731e-05 0.112684)
(-1.90257e-05 1.68992e-05 0.113792)
(0.000266773 -7.8346e-05 0.113557)
(-0.000563642 -0.000562406 0.112492)
(0.000461044 0.000584062 0.070494)
(-0.000707387 -0.00566431 0.026646)
(-1.27146e-05 -0.000121071 0.111953)
(-3.08951e-05 -0.000121661 0.112108)
(-4.86254e-05 -7.83537e-05 0.112316)
(-6.83218e-05 -8.85267e-05 0.112614)
(-0.000102073 2.85463e-05 0.113139)
(5.17536e-05 5.6696e-06 0.114264)
(6.87066e-05 -0.000112411 0.113542)
(-0.000173419 -0.000341618 0.112346)
(-0.000248231 0.00035373 0.0886908)
(0.000582098 0.000466476 0.0705362)
(-0.0112461 -0.0112231 0.033038)
(-5.91584e-06 0.000110946 0.112309)
(5.53663e-05 0.000105648 0.112565)
(3.3491e-05 7.51197e-05 0.113499)
(0.000125375 9.90712e-05 0.114765)
(0.000175666 -8.41223e-05 0.114022)
(-0.000115371 -0.000294953 0.112118)
(-4.6653e-05 0.000344122 0.0875715)
(0.000408944 0.000390514 0.0736948)
(-0.00347099 -0.00109174 0.0387128)
(-0.0056438 -0.00070654 0.0266745)
(-1.55325e-05 -0.000207306 0.112812)
(-6.00112e-05 -0.000241903 0.113287)
(-4.65159e-05 -0.000121914 0.116128)
(-0.000178393 -0.000400442 0.113411)
(-0.000208573 0.000268792 0.0885582)
(0.000384729 0.000331653 0.0720109)
(-0.00223392 -0.00152908 0.0360974)
(0.00192201 0.000669754 0.032069)
(0.000865905 0.00115102 0.014553)
(-3.51258e-05 0.000242999 0.0881968)
(8.96729e-05 0.000253325 0.0888667)
(-0.000117171 0.000151952 0.0937228)
(0.000348865 0.000479801 0.0751912)
(-0.00208126 -0.00134716 0.038922)
(0.00284012 0.000789579 0.03237)
(0.00278229 0.00317707 0.0188442)
(-1.98957e-05 0.00150648 0.029555)
(-0.000122115 0.00151579 0.0299083)
(-0.00207571 0.000148023 0.028187)
(-0.0032516 -0.00800903 0.0250654)
(0.0034206 0.00209961 0.0120962)
(-1.18846e-05 -1.18395e-05 0.112739)
(-9.00406e-06 -1.18482e-05 0.112706)
(-3.24685e-05 -1.16978e-05 0.11266)
(-2.15036e-05 -1.04316e-05 0.112608)
(-4.95855e-05 -1.06627e-05 0.11256)
(-2.37982e-05 -8.48425e-06 0.112506)
(-6.52813e-05 -1.02418e-05 0.112455)
(-9.95397e-06 -6.7911e-06 0.11239)
(-8.37221e-05 -1.10911e-05 0.112313)
(2.84421e-05 -5.39843e-06 0.112167)
(-0.000124802 -1.2787e-05 0.111953)
(0.000107837 -8.1027e-06 0.112307)
(-0.000210616 -1.48965e-05 0.112812)
(0.000240928 -3.50314e-05 0.0881913)
(0.00150853 -1.87513e-05 0.029563)
(-1.18319e-05 -8.93692e-06 0.112706)
(-8.168e-06 -8.12553e-06 0.112682)
(-3.08531e-05 -8.95207e-06 0.112642)
(-2.04781e-05 -6.93234e-06 0.112592)
(-4.75491e-05 -9.70701e-06 0.112545)
(-2.33183e-05 -4.92808e-06 0.112493)
(-6.33555e-05 -1.19184e-05 0.112446)
(-1.08937e-05 4.7516e-07 0.112392)
(-8.25669e-05 -1.80755e-05 0.112344)
(2.55054e-05 1.55036e-05 0.112249)
(-0.000127023 -3.23846e-05 0.112107)
(0.00010329 5.56509e-05 0.11256)
(-0.000242828 -6.11549e-05 0.113285)
(0.000250941 8.9388e-05 0.0888622)
(0.00151743 -0.000122472 0.0299148)
(-1.17011e-05 -3.24261e-05 0.112661)
(-9.01925e-06 -3.08628e-05 0.112644)
(-3.12812e-05 -3.1223e-05 0.112611)
(-2.22427e-05 -2.68312e-05 0.112565)
(-4.75687e-05 -2.98559e-05 0.112518)
(-2.60183e-05 -2.06363e-05 0.112467)
(-5.97835e-05 -3.06107e-05 0.112426)
(-1.63737e-05 -1.10963e-05 0.112387)
(-6.84232e-05 -3.59563e-05 0.112371)
(1.18586e-05 5.9996e-06 0.112325)
(-8.09982e-05 -4.8941e-05 0.112315)
(7.21601e-05 3.25134e-05 0.113498)
(-0.000126415 -4.67593e-05 0.116124)
(0.000150039 -0.000117083 0.0937189)
(0.000148286 -0.00207622 0.0281925)
(-1.0465e-05 -2.14855e-05 0.112608)
(-6.96597e-06 -2.04898e-05 0.112594)
(-2.68315e-05 -2.22105e-05 0.112567)
(-1.9096e-05 -1.9068e-05 0.112524)
(-4.13088e-05 -2.358e-05 0.112475)
(-2.40032e-05 -1.61028e-05 0.112422)
(-5.36436e-05 -2.65252e-05 0.11238)
(-1.63965e-05 -8.25704e-06 0.112347)
(-6.52365e-05 -3.55418e-05 0.112335)
(1.22151e-05 1.4168e-05 0.112295)
(-9.36549e-05 -7.06351e-05 0.112611)
(9.6443e-05 0.000123035 0.114759)
(-0.000400324 -0.000182106 0.11341)
(0.00047689 0.000348737 0.0751863)
(-0.00800926 -0.00325191 0.0250696)
(-1.07094e-05 -4.95372e-05 0.11256)
(-9.75276e-06 -4.74865e-05 0.112546)
(-2.98739e-05 -4.75249e-05 0.11252)
(-2.36284e-05 -4.12881e-05 0.112477)
(-4.45854e-05 -4.45317e-05 0.112423)
(-2.88451e-05 -3.14759e-05 0.112361)
(-5.17849e-05 -4.55004e-05 0.112306)
(-2.53867e-05 -1.66904e-05 0.112258)
(-4.52958e-05 -5.47708e-05 0.112207)
(-1.84902e-05 1.16373e-05 0.112193)
(2.5944e-05 -0.000104584 0.113134)
(-8.83854e-05 0.000176933 0.114017)
(0.00026776 -0.000214443 0.0885536)
(-0.00134562 -0.00208104 0.0389286)
(0.0021002 0.00342043 0.0120989)
(-8.50519e-06 -2.37565e-05 0.112506)
(-4.97132e-06 -2.32641e-05 0.112493)
(-2.06701e-05 -2.59353e-05 0.112468)
(-1.61317e-05 -2.39369e-05 0.112423)
(-3.15031e-05 -2.87336e-05 0.112361)
(-2.48667e-05 -2.47687e-05 0.112285)
(-3.87644e-05 -2.88834e-05 0.112209)
(-2.5402e-05 -2.49482e-05 0.112121)
(-3.41447e-05 -2.64911e-05 0.112006)
(-3.18766e-05 -5.56007e-05 0.112225)
(2.2772e-06 5.26792e-05 0.114259)
(-0.000301181 -0.000117388 0.11211)
(0.000330205 0.000385542 0.0720061)
(0.000790965 0.00284024 0.0323743)
(-1.02606e-05 -6.52182e-05 0.112456)
(-1.1921e-05 -6.3289e-05 0.112447)
(-3.06086e-05 -5.96817e-05 0.112427)
(-2.65405e-05 -5.35553e-05 0.112381)
(-4.55315e-05 -5.16752e-05 0.112308)
(-2.90085e-05 -3.86593e-05 0.112211)
(-5.20865e-05 -5.18501e-05 0.112097)
(-2.22412e-05 -2.51286e-05 0.111932)
(-6.9795e-05 -4.4472e-05 0.111819)
(6.2497e-05 -1.62244e-05 0.112673)
(-0.000116194 6.65726e-05 0.113532)
(0.000340513 -5.4495e-05 0.0875663)
(-0.00152812 -0.00223301 0.0361034)
(0.00317775 0.00278218 0.018847)
(-6.7949e-06 -9.90848e-06 0.11239)
(4.70238e-07 -1.08219e-05 0.112393)
(-1.1105e-05 -1.62864e-05 0.112389)
(-8.27048e-06 -1.6326e-05 0.112349)
(-1.66966e-05 -2.5228e-05 0.112261)
(-2.49362e-05 -2.53691e-05 0.112125)
(-2.52433e-05 -2.1975e-05 0.111937)
(-1.56578e-05 -1.5646e-05 0.11168)
(-2.11656e-05 -0.000100694 0.111784)
(1.47308e-05 -2.52513e-05 0.113778)
(-0.000358249 -0.000181424 0.112334)
(0.000386563 0.000403583 0.0736846)
(0.000671433 0.00192133 0.0320736)
(-1.10763e-05 -8.36651e-05 0.112313)
(-1.80343e-05 -8.25274e-05 0.112345)
(-3.59569e-05 -6.83686e-05 0.112372)
(-3.54859e-05 -6.51671e-05 0.112338)
(-5.48313e-05 -4.51888e-05 0.112211)
(-2.648e-05 -3.41564e-05 0.112012)
(-4.46783e-05 -6.94494e-05 0.111828)
(-0.000100962 -2.24064e-05 0.111794)
(-7.69411e-05 -7.46793e-05 0.112645)
(-8.83227e-05 0.00026054 0.113536)
(0.000342908 -0.000252703 0.0886843)
(-0.00109224 -0.00346883 0.038711)
(0.00115113 0.000865759 0.0145533)
(-5.39583e-06 2.84774e-05 0.112167)
(1.54986e-05 2.55304e-05 0.11225)
(6.01762e-06 1.19294e-05 0.112326)
(1.42065e-05 1.229e-05 0.112297)
(1.15818e-05 -1.83033e-05 0.112197)
(-5.52565e-05 -3.18803e-05 0.112231)
(-1.74552e-05 6.29137e-05 0.112683)
(-2.34832e-05 1.47463e-05 0.113794)
(0.000261552 -8.36374e-05 0.113549)
(-0.000564498 -0.000560726 0.112484)
(0.000458754 0.000580644 0.0704908)
(-0.00070691 -0.00566503 0.0266507)
(-1.27642e-05 -0.000124768 0.111954)
(-3.22971e-05 -0.000126964 0.112108)
(-4.88924e-05 -8.09287e-05 0.112316)
(-7.04521e-05 -9.35535e-05 0.112613)
(-0.000104661 2.60034e-05 0.113137)
(5.30436e-05 2.50926e-06 0.114262)
(6.63261e-05 -0.000116054 0.113538)
(-0.000178471 -0.000354421 0.112344)
(-0.000251916 0.000348881 0.0886795)
(0.000582313 0.000461616 0.0705277)
(-0.0112561 -0.01122 0.0330425)
(-8.04079e-06 0.000107836 0.112307)
(5.56834e-05 0.000103313 0.112561)
(3.25717e-05 7.218e-05 0.113498)
(0.000123089 9.64883e-05 0.11476)
(0.000177069 -8.84267e-05 0.114018)
(-0.000116983 -0.000300886 0.112112)
(-5.30963e-05 0.000340501 0.0875685)
(0.000406416 0.000387643 0.0736877)
(-0.00347875 -0.00109394 0.0387143)
(-0.005637 -0.000711095 0.0266652)
(-1.48435e-05 -0.000210589 0.112811)
(-6.10656e-05 -0.000242749 0.113285)
(-4.66878e-05 -0.000126316 0.116124)
(-0.000181956 -0.000400329 0.113409)
(-0.000214293 0.000267774 0.0885538)
(0.000385635 0.000330292 0.0720059)
(-0.00223291 -0.00152816 0.0361037)
(0.00192107 0.000671212 0.0320737)
(0.000865335 0.00115206 0.0145543)
(-3.49521e-05 0.000240963 0.0881906)
(8.9468e-05 0.000250922 0.0888615)
(-0.000117108 0.000150071 0.0937182)
(0.000348771 0.000476948 0.0751861)
(-0.00208102 -0.00134565 0.0389286)
(0.00284023 0.000790982 0.0323743)
(0.00278221 0.00317787 0.018847)
(-1.9462e-05 0.00150819 0.0295606)
(-0.000122324 0.00151731 0.0299144)
(-0.00207612 0.000148289 0.028192)
(-0.00325184 -0.00800936 0.0250697)
(0.00342048 0.00210019 0.0120989)
(-1.29583e-05 -1.28908e-05 0.112735)
(-1.0012e-05 -1.27879e-05 0.112703)
(-3.53462e-05 -1.24441e-05 0.112658)
(-2.4014e-05 -1.11278e-05 0.112605)
(-5.30071e-05 -1.12563e-05 0.112559)
(-2.68184e-05 -9.13525e-06 0.112505)
(-6.95375e-05 -1.07693e-05 0.112457)
(-1.38299e-05 -7.24162e-06 0.11239)
(-8.82564e-05 -1.13791e-05 0.112316)
(2.45275e-05 -6.21311e-06 0.112167)
(-0.000128625 -1.27846e-05 0.111955)
(0.000105556 -1.01061e-05 0.112304)
(-0.000215165 -1.52928e-05 0.112811)
(0.000238135 -3.42952e-05 0.088186)
(0.00150965 -1.87327e-05 0.0295701)
(-1.27892e-05 -9.95086e-06 0.112704)
(-9.22234e-06 -9.18038e-06 0.112679)
(-3.35043e-05 -9.96981e-06 0.11264)
(-2.28095e-05 -7.57207e-06 0.11259)
(-5.09682e-05 -1.05297e-05 0.112545)
(-2.63942e-05 -5.5868e-06 0.112492)
(-6.74777e-05 -1.28282e-05 0.112448)
(-1.46686e-05 -2.10386e-07 0.112393)
(-8.75229e-05 -1.92746e-05 0.112346)
(2.19127e-05 1.49749e-05 0.112249)
(-0.000132086 -3.37705e-05 0.112108)
(0.000100534 5.69739e-05 0.112558)
(-0.000244632 -6.37487e-05 0.113283)
(0.000248293 9.0747e-05 0.0888571)
(0.00151887 -0.00012251 0.0299213)
(-1.24566e-05 -3.52988e-05 0.112659)
(-1.00306e-05 -3.35038e-05 0.112642)
(-3.37423e-05 -3.36532e-05 0.11261)
(-2.45495e-05 -2.88814e-05 0.112564)
(-5.10032e-05 -3.19343e-05 0.112519)
(-2.91188e-05 -2.22204e-05 0.112467)
(-6.40562e-05 -3.2335e-05 0.112428)
(-2.05521e-05 -1.25493e-05 0.112388)
(-7.28353e-05 -3.74203e-05 0.112373)
(7.62757e-06 4.72509e-06 0.112325)
(-8.30746e-05 -4.96206e-05 0.112316)
(6.84222e-05 3.01012e-05 0.113495)
(-0.000131258 -4.5484e-05 0.11612)
(0.000148619 -0.000116806 0.0937142)
(0.000148898 -0.00207683 0.0281979)
(-1.11485e-05 -2.39872e-05 0.112606)
(-7.58118e-06 -2.28065e-05 0.112592)
(-2.88942e-05 -2.4521e-05 0.112566)
(-2.10703e-05 -2.10289e-05 0.112523)
(-4.425e-05 -2.56648e-05 0.112476)
(-2.67038e-05 -1.77366e-05 0.112422)
(-5.76041e-05 -2.84896e-05 0.112382)
(-1.98966e-05 -9.96217e-06 0.112347)
(-7.00145e-05 -3.76252e-05 0.112337)
(9.3549e-06 1.19282e-05 0.112294)
(-9.99195e-05 -7.34827e-05 0.112612)
(9.52371e-05 0.000119693 0.114754)
(-0.000399464 -0.000186368 0.113408)
(0.000472088 0.000347547 0.0751817)
(-0.0080097 -0.00325288 0.0250747)
(-1.12839e-05 -5.29552e-05 0.112559)
(-1.05802e-05 -5.09153e-05 0.112546)
(-3.19846e-05 -5.09833e-05 0.11252)
(-2.57128e-05 -4.42351e-05 0.112477)
(-4.76835e-05 -4.76257e-05 0.112425)
(-3.17939e-05 -3.39295e-05 0.112362)
(-5.60801e-05 -4.83829e-05 0.112308)
(-2.96306e-05 -1.85043e-05 0.112259)
(-5.01784e-05 -5.72427e-05 0.112209)
(-2.34004e-05 1.0358e-05 0.112193)
(2.28143e-05 -0.000107471 0.113133)
(-9.35801e-05 0.000178412 0.114013)
(0.000265322 -0.000222839 0.0885513)
(-0.00134416 -0.00208176 0.0389355)
(0.00210103 0.00342052 0.0121024)
(-9.14761e-06 -2.67711e-05 0.112505)
(-5.63442e-06 -2.63512e-05 0.112493)
(-2.22608e-05 -2.90307e-05 0.112468)
(-1.7753e-05 -2.66272e-05 0.112423)
(-3.39524e-05 -3.16798e-05 0.112363)
(-2.73358e-05 -2.72385e-05 0.112286)
(-4.20425e-05 -3.17052e-05 0.112211)
(-2.84178e-05 -2.7238e-05 0.112121)
(-3.82798e-05 -2.87288e-05 0.112007)
(-3.50214e-05 -5.71994e-05 0.112222)
(-1.35923e-06 5.30445e-05 0.114256)
(-0.000308607 -0.000119301 0.112104)
(0.0003279 0.000385131 0.0720016)
(0.000791962 0.00284057 0.0323799)
(-1.07792e-05 -6.94686e-05 0.112458)
(-1.28354e-05 -6.74144e-05 0.112449)
(-3.23416e-05 -6.39529e-05 0.112429)
(-2.8505e-05 -5.75097e-05 0.112383)
(-4.84292e-05 -5.59628e-05 0.11231)
(-3.18359e-05 -4.19425e-05 0.112212)
(-5.61926e-05 -5.59342e-05 0.112099)
(-2.58344e-05 -2.68385e-05 0.111933)
(-7.38562e-05 -4.84506e-05 0.111818)
(6.03566e-05 -1.51249e-05 0.112672)
(-0.000119468 6.40492e-05 0.113527)
(0.000336168 -6.00315e-05 0.0875628)
(-0.00152753 -0.00223187 0.03611)
(0.0031788 0.00278258 0.0188496)
(-7.2319e-06 -1.37966e-05 0.11239)
(-2.24202e-07 -1.46221e-05 0.112393)
(-1.25539e-05 -2.04774e-05 0.112389)
(-9.95277e-06 -1.98233e-05 0.112349)
(-1.8514e-05 -2.94761e-05 0.112262)
(-2.72241e-05 -2.83876e-05 0.112126)
(-2.69692e-05 -2.55884e-05 0.111938)
(-1.85222e-05 -1.84622e-05 0.11168)
(-2.23487e-05 -0.000103284 0.111784)
(1.30898e-05 -3.11175e-05 0.113773)
(-0.000369327 -0.000186147 0.112331)
(0.000383626 0.000401738 0.0736815)
(0.000673526 0.00192171 0.0320802)
(-1.13764e-05 -8.82129e-05 0.112316)
(-1.92382e-05 -8.74919e-05 0.112347)
(-3.7401e-05 -7.27664e-05 0.112375)
(-3.75597e-05 -6.99358e-05 0.11234)
(-5.73307e-05 -5.00468e-05 0.112213)
(-2.87721e-05 -3.82105e-05 0.112013)
(-4.868e-05 -7.34833e-05 0.111828)
(-0.000103516 -2.26042e-05 0.111794)
(-8.38898e-05 -8.25879e-05 0.112645)
(-9.27731e-05 0.000256779 0.113534)
(0.000342056 -0.000256062 0.0886809)
(-0.00109186 -0.00346683 0.038718)
(0.00115163 0.000865685 0.0145563)
(-6.20163e-06 2.45445e-05 0.112167)
(1.49901e-05 2.19495e-05 0.11225)
(4.76576e-06 7.69265e-06 0.112326)
(1.19958e-05 9.41331e-06 0.112296)
(1.03478e-05 -2.32454e-05 0.112197)
(-5.68908e-05 -3.49835e-05 0.112229)
(-1.54267e-05 6.05917e-05 0.112682)
(-3.00888e-05 1.2961e-05 0.113791)
(0.000257089 -9.15209e-05 0.113546)
(-0.000562233 -0.000561496 0.112479)
(0.000455602 0.000580959 0.0704871)
(-0.000707663 -0.00566568 0.0266564)
(-1.27554e-05 -0.000128587 0.111955)
(-3.36733e-05 -0.000132025 0.112109)
(-4.95815e-05 -8.30209e-05 0.112317)
(-7.33301e-05 -9.98506e-05 0.112613)
(-0.000107551 2.28317e-05 0.113136)
(5.32195e-05 -1.27674e-06 0.11426)
(6.3958e-05 -0.000119675 0.113533)
(-0.000185385 -0.000368474 0.112341)
(-0.000256686 0.000343501 0.0886759)
(0.000577692 0.00045582 0.070523)
(-0.0112484 -0.011233 0.0330499)
(-1.00385e-05 0.000105552 0.112304)
(5.7007e-05 0.000100542 0.112559)
(3.01441e-05 6.84295e-05 0.113496)
(0.000119736 9.52591e-05 0.114755)
(0.000178469 -9.36003e-05 0.114014)
(-0.000119057 -0.000308373 0.112105)
(-5.95861e-05 0.00033612 0.0875641)
(0.000402469 0.000383929 0.0736839)
(-0.00347681 -0.00109171 0.0387213)
(-0.00563679 -0.00071136 0.0266719)
(-1.52556e-05 -0.000215161 0.11281)
(-6.36596e-05 -0.000244559 0.113283)
(-4.54306e-05 -0.000131181 0.11612)
(-0.000186219 -0.000399458 0.113408)
(-0.000222703 0.000265338 0.0885514)
(0.000385197 0.000327997 0.0720013)
(-0.00223185 -0.00152757 0.0361101)
(0.0019214 0.000673436 0.0320801)
(0.000864908 0.00115276 0.0145573)
(-3.42259e-05 0.000238161 0.0881853)
(9.08281e-05 0.000248268 0.0888564)
(-0.000116827 0.000148652 0.0937135)
(0.000347579 0.000472152 0.0751815)
(-0.00208175 -0.00134419 0.0389355)
(0.00284056 0.000791979 0.0323799)
(0.00278261 0.00317892 0.0188495)
(-1.94346e-05 0.00150931 0.0295678)
(-0.000122366 0.00151875 0.0299209)
(-0.00207675 0.000148907 0.0281975)
(-0.00325282 -0.0080098 0.0250748)
(0.00342058 0.00210102 0.0121024)
(-1.49801e-05 -1.48677e-05 0.112725)
(-1.13832e-05 -1.39888e-05 0.112694)
(-3.8312e-05 -1.34383e-05 0.112649)
(-2.568e-05 -1.20161e-05 0.112599)
(-5.56225e-05 -1.19311e-05 0.112555)
(-2.85935e-05 -9.75131e-06 0.112501)
(-7.26434e-05 -1.11302e-05 0.112457)
(-1.64227e-05 -7.67716e-06 0.112388)
(-9.21563e-05 -1.15903e-05 0.112318)
(2.16855e-05 -6.71411e-06 0.112165)
(-0.000132041 -1.26842e-05 0.111957)
(0.000102923 -1.1735e-05 0.112301)
(-0.000219174 -1.51483e-05 0.112809)
(0.000234516 -3.3762e-05 0.0881829)
(0.00151193 -1.92819e-05 0.0295774)
(-1.39935e-05 -1.13288e-05 0.112694)
(-1.01748e-05 -1.01247e-05 0.11267)
(-3.62439e-05 -1.07846e-05 0.112632)
(-2.42876e-05 -7.76171e-06 0.112584)
(-5.32939e-05 -1.10686e-05 0.112541)
(-2.79624e-05 -5.62743e-06 0.112488)
(-7.05825e-05 -1.34009e-05 0.112448)
(-1.72055e-05 -5.79092e-07 0.112391)
(-9.15749e-05 -2.00899e-05 0.112349)
(1.92797e-05 1.51616e-05 0.112248)
(-0.000136657 -3.5314e-05 0.11211)
(9.76848e-05 5.81655e-05 0.112556)
(-0.000246528 -6.63933e-05 0.113282)
(0.000244882 9.23353e-05 0.088853)
(0.00152075 -0.000122281 0.0299295)
(-1.345e-05 -3.82354e-05 0.11265)
(-1.08385e-05 -3.62199e-05 0.112634)
(-3.59473e-05 -3.5813e-05 0.112603)
(-2.59228e-05 -3.04836e-05 0.112558)
(-5.34568e-05 -3.35627e-05 0.112515)
(-3.09159e-05 -2.32992e-05 0.112464)
(-6.74762e-05 -3.38065e-05 0.112428)
(-2.34028e-05 -1.35517e-05 0.112387)
(-7.6212e-05 -3.85328e-05 0.112376)
(3.90524e-06 3.71217e-06 0.112325)
(-8.56271e-05 -5.02226e-05 0.112318)
(6.43641e-05 2.7723e-05 0.113492)
(-0.00013501 -4.31827e-05 0.116117)
(0.00014664 -0.000116665 0.0937098)
(0.000149252 -0.00207762 0.0282045)
(-1.20122e-05 -2.56361e-05 0.112599)
(-7.76511e-06 -2.43062e-05 0.112586)
(-3.05226e-05 -2.59094e-05 0.11256)
(-2.20066e-05 -2.19527e-05 0.112518)
(-4.60344e-05 -2.68032e-05 0.112473)
(-2.80869e-05 -1.84619e-05 0.112419)
(-6.05955e-05 -2.98394e-05 0.112382)
(-2.2056e-05 -1.07656e-05 0.112347)
(-7.40689e-05 -3.92006e-05 0.11234)
(7.16107e-06 1.04578e-05 0.112293)
(-0.00010594 -7.66015e-05 0.112614)
(9.48386e-05 0.000117409 0.114751)
(-0.000398781 -0.000189741 0.113407)
(0.000466603 0.000346195 0.0751768)
(-0.00801001 -0.00325363 0.0250817)
(-1.19496e-05 -5.55655e-05 0.112555)
(-1.11426e-05 -5.32702e-05 0.112542)
(-3.36238e-05 -5.3444e-05 0.112517)
(-2.68396e-05 -4.60134e-05 0.112474)
(-4.99262e-05 -4.98608e-05 0.112424)
(-3.3765e-05 -3.56554e-05 0.112361)
(-5.95202e-05 -5.08413e-05 0.11231)
(-3.26383e-05 -1.97492e-05 0.11226)
(-5.41354e-05 -5.99372e-05 0.112211)
(-2.85548e-05 9.17963e-06 0.112194)
(1.95499e-05 -0.000111126 0.113133)
(-9.79619e-05 0.000179049 0.114011)
(0.000262236 -0.000233115 0.0885504)
(-0.00134269 -0.00208225 0.0389447)
(0.00210188 0.00342055 0.0121064)
(-9.75552e-06 -2.85506e-05 0.112501)
(-5.68355e-06 -2.79301e-05 0.112489)
(-2.33284e-05 -3.08122e-05 0.112465)
(-1.84788e-05 -2.80056e-05 0.11242)
(-3.56865e-05 -3.36519e-05 0.112362)
(-2.89191e-05 -2.88006e-05 0.112285)
(-4.44994e-05 -3.39559e-05 0.112212)
(-3.07111e-05 -2.87858e-05 0.112121)
(-4.21257e-05 -3.15592e-05 0.112008)
(-3.80146e-05 -5.89863e-05 0.112222)
(-5.70896e-06 5.27877e-05 0.114255)
(-0.000316814 -0.000121083 0.112098)
(0.000326126 0.000383743 0.0719989)
(0.000793299 0.002841 0.0323872)
(-1.11253e-05 -7.25803e-05 0.112457)
(-1.34109e-05 -7.05311e-05 0.112449)
(-3.38056e-05 -6.73757e-05 0.112429)
(-2.98588e-05 -6.05083e-05 0.112383)
(-5.08799e-05 -5.94076e-05 0.112312)
(-3.40871e-05 -4.43766e-05 0.112214)
(-5.95968e-05 -5.93226e-05 0.112101)
(-2.9329e-05 -2.81875e-05 0.111935)
(-7.79083e-05 -5.18982e-05 0.111819)
(5.79573e-05 -1.43215e-05 0.112671)
(-0.00012263 6.11937e-05 0.113525)
(0.000331642 -6.35155e-05 0.0875607)
(-0.00152605 -0.00223045 0.036119)
(0.00317966 0.00278332 0.0188534)
(-7.65687e-06 -1.64029e-05 0.112388)
(-5.99091e-07 -1.71716e-05 0.112391)
(-1.35396e-05 -2.33359e-05 0.112389)
(-1.07543e-05 -2.19913e-05 0.112349)
(-1.97283e-05 -3.25078e-05 0.112263)
(-2.87697e-05 -3.06507e-05 0.112126)
(-2.83511e-05 -2.90753e-05 0.11194)
(-2.08269e-05 -2.0657e-05 0.111679)
(-2.38926e-05 -0.000104635 0.111785)
(1.08133e-05 -3.59548e-05 0.11377)
(-0.000378648 -0.000190241 0.112327)
(0.00038069 0.000399445 0.0736792)
(0.000675418 0.00192184 0.0320871)
(-1.15777e-05 -9.21211e-05 0.112318)
(-2.00506e-05 -9.15331e-05 0.11235)
(-3.8502e-05 -7.61397e-05 0.112377)
(-3.91508e-05 -7.39903e-05 0.112343)
(-5.99704e-05 -5.40292e-05 0.112215)
(-3.15813e-05 -4.20785e-05 0.112014)
(-5.21294e-05 -7.76525e-05 0.11183)
(-0.000104937 -2.37342e-05 0.111796)
(-9.04478e-05 -8.96159e-05 0.112647)
(-9.79542e-05 0.000254509 0.113533)
(0.000339564 -0.000260581 0.0886795)
(-0.00109091 -0.00346597 0.0387267)
(0.00115191 0.000865977 0.0145599)
(-6.68079e-06 2.16893e-05 0.112166)
(1.51833e-05 1.93262e-05 0.112249)
(3.7608e-06 3.95195e-06 0.112326)
(1.05044e-05 7.21548e-06 0.112296)
(9.17665e-06 -2.84406e-05 0.112198)
(-5.88178e-05 -3.79772e-05 0.112228)
(-1.43377e-05 5.8095e-05 0.112681)
(-3.54934e-05 1.08865e-05 0.113787)
(0.000254481 -9.74635e-05 0.113546)
(-0.000562265 -0.000560523 0.112474)
(0.00045201 0.000576519 0.0704838)
(-0.000706918 -0.00566689 0.0266626)
(-1.26501e-05 -0.000132007 0.111957)
(-3.52168e-05 -0.000136606 0.112111)
(-5.01827e-05 -8.55873e-05 0.112319)
(-7.64872e-05 -0.000105891 0.112615)
(-0.00011118 1.95739e-05 0.113136)
(5.28151e-05 -5.63654e-06 0.114259)
(6.11847e-05 -0.000122761 0.113531)
(-0.000190044 -0.000378649 0.112337)
(-0.000259659 0.000340123 0.0886761)
(0.000577856 0.000450569 0.0705197)
(-0.0112621 -0.0112258 0.0330584)
(-1.16692e-05 0.000102898 0.112301)
(5.81951e-05 9.76699e-05 0.112557)
(2.77644e-05 6.43658e-05 0.113492)
(0.000117443 9.48681e-05 0.114751)
(0.000179073 -9.79572e-05 0.114012)
(-0.00012099 -0.000316652 0.112099)
(-6.34962e-05 0.000331639 0.0875617)
(0.000399542 0.000380728 0.0736816)
(-0.00347567 -0.00109058 0.0387298)
(-0.00563784 -0.000712531 0.0266788)
(-1.51473e-05 -0.000219226 0.112808)
(-6.62898e-05 -0.000246461 0.113282)
(-4.30982e-05 -0.000134943 0.116117)
(-0.000189607 -0.000398757 0.113407)
(-0.000233035 0.000262257 0.0885505)
(0.000383773 0.000326196 0.0719986)
(-0.00223049 -0.00152612 0.0361191)
(0.00192162 0.000675395 0.0320869)
(0.00086517 0.00115309 0.0145609)
(-3.37174e-05 0.000234502 0.0881821)
(9.24454e-05 0.000244833 0.0888523)
(-0.000116671 0.000146662 0.0937091)
(0.00034623 0.000466662 0.0751766)
(-0.00208225 -0.00134271 0.0389447)
(0.00284099 0.000793309 0.0323872)
(0.00278334 0.00317978 0.0188533)
(-1.99636e-05 0.00151157 0.0295751)
(-0.000122142 0.00152063 0.0299291)
(-0.00207756 0.00014926 0.0282042)
(-0.00325357 -0.00801011 0.0250817)
(0.0034206 0.00210187 0.0121064)
(-1.70545e-05 -1.69059e-05 0.112702)
(-1.33743e-05 -1.49931e-05 0.11267)
(-4.03304e-05 -1.42457e-05 0.112628)
(-2.60789e-05 -1.25603e-05 0.112582)
(-5.76655e-05 -1.25249e-05 0.112542)
(-2.78303e-05 -1.00724e-05 0.112493)
(-7.41053e-05 -1.15334e-05 0.112453)
(-1.59126e-05 -8.03702e-06 0.112386)
(-9.38599e-05 -1.18361e-05 0.112321)
(2.05447e-05 -7.08209e-06 0.112164)
(-0.000134576 -1.27632e-05 0.111962)
(9.94646e-05 -1.28329e-05 0.1123)
(-0.000220847 -1.39989e-05 0.112808)
(0.000230708 -3.38068e-05 0.0881819)
(0.00151455 -1.92839e-05 0.029587)
(-1.4991e-05 -1.33128e-05 0.11267)
(-1.09809e-05 -1.08886e-05 0.112648)
(-3.78128e-05 -1.09432e-05 0.112612)
(-2.44752e-05 -7.83975e-06 0.112569)
(-5.51473e-05 -1.08352e-05 0.112529)
(-2.71186e-05 -5.06508e-06 0.112481)
(-7.21181e-05 -1.35608e-05 0.112444)
(-1.66672e-05 6.04746e-07 0.112388)
(-9.32609e-05 -2.08831e-05 0.112352)
(1.81749e-05 1.63778e-05 0.112247)
(-0.00013984 -3.71312e-05 0.112115)
(9.53942e-05 5.97992e-05 0.112555)
(-0.00024776 -6.8575e-05 0.113283)
(0.000240571 9.32988e-05 0.0888508)
(0.00152315 -0.000122247 0.0299396)
(-1.42302e-05 -4.02379e-05 0.112629)
(-1.10038e-05 -3.77851e-05 0.112614)
(-3.7261e-05 -3.7081e-05 0.112586)
(-2.58914e-05 -3.13872e-05 0.112545)
(-5.48306e-05 -3.43616e-05 0.112506)
(-3.05236e-05 -2.37198e-05 0.112459)
(-6.8293e-05 -3.45926e-05 0.112426)
(-2.35453e-05 -1.315e-05 0.112387)
(-7.79165e-05 -3.94859e-05 0.112378)
(1.55655e-06 3.30334e-06 0.112326)
(-8.79109e-05 -5.04202e-05 0.112322)
(6.00971e-05 2.54826e-05 0.11349)
(-0.000137653 -4.09982e-05 0.116116)
(0.000144304 -0.000116953 0.0937063)
(0.000149793 -0.00207827 0.0282126)
(-1.2536e-05 -2.60287e-05 0.112583)
(-7.85801e-06 -2.45339e-05 0.112571)
(-3.14327e-05 -2.58659e-05 0.112547)
(-2.17038e-05 -2.16258e-05 0.112508)
(-4.73729e-05 -2.66944e-05 0.112466)
(-2.71899e-05 -1.7737e-05 0.112415)
(-6.12594e-05 -2.99768e-05 0.11238)
(-2.1663e-05 -1.08142e-05 0.112346)
(-7.65543e-05 -4.06015e-05 0.112343)
(6.71294e-06 1.0161e-05 0.112293)
(-0.000111068 -7.97781e-05 0.112618)
(9.43819e-05 0.00011644 0.114749)
(-0.00039812 -0.000192578 0.113407)
(0.000460275 0.000344536 0.0751723)
(-0.00801032 -0.00325505 0.0250895)
(-1.25389e-05 -5.76066e-05 0.112542)
(-1.09091e-05 -5.51292e-05 0.11253)
(-3.44035e-05 -5.47959e-05 0.112508)
(-2.67469e-05 -4.73421e-05 0.112467)
(-5.0883e-05 -5.08016e-05 0.112419)
(-3.35717e-05 -3.58806e-05 0.112359)
(-6.10412e-05 -5.20589e-05 0.11231)
(-3.3964e-05 -1.96659e-05 0.112261)
(-5.59873e-05 -6.2602e-05 0.112214)
(-3.25432e-05 9.34489e-06 0.112197)
(1.67511e-05 -0.000115757 0.113135)