/*--------------------------------*- C++ -*----------------------------------*\
| =========                 |                                                 |
| \\      /  F ield         | OpenFOAM: The Open Source CFD Toolbox           |
|  \\    /   O peration     | Version:  2.1.1                                 |
|   \\  /    A nd           | Web:      www.OpenFOAM.org                      |
|    \\/     M anipulation  |                                                 |
\*---------------------------------------------------------------------------*/
FoamFile
{
    version     2.0;
    format      ascii;
    class       volScalarField;
    location    "0.001";
    object      p;
}
// * * * * * * * * * * * * * * * * * * * * * * * * * * * * * * * * * * * * * //

dimensions      [0 2 -2 0 0 0 0];

internalField   nonuniform List<scalar> 
10229
(
0.0230579
0.0205262
0.0202916
0.0204412
0.0203068
0.0203657
0.0202802
0.0202921
0.0202302
0.0202222
0.0201783
0.0201644
0.0201364
0.0201267
0.020117
0.0234638
0.0205567
0.0202945
0.0204442
0.0203105
0.02037
0.0202864
0.0202975
0.0202377
0.020229
0.0201864
0.0201727
0.0201457
0.0201362
0.0201268
0.0248427
0.0204414
0.0203331
0.020418
0.0203259
0.0203643
0.0202944
0.0203003
0.0202453
0.0202357
0.020195
0.0201814
0.0201553
0.0201459
0.0201368
0.0206322
0.0202911
0.0204484
0.0203334
0.0203753
0.020309
0.0203133
0.0202644
0.0202544
0.0202179
0.0202052
0.0201816
0.0201732
0.0201649
0.0290948
0.0204085
0.0203822
0.0203573
0.020368
0.0203189
0.0203193
0.0202751
0.0202657
0.0202308
0.0202185
0.0201959
0.0201875
0.0201793
0.0234472
0.0205458
0.020371
0.0203931
0.0203735
0.0203461
0.0203359
0.0203049
0.0202929
0.0202664
0.0202558
0.0202375
0.0202309
0.020224
0.0310718
0.0204575
0.0203332
0.0204051
0.0203409
0.0203506
0.0203093
0.0203056
0.0202765
0.0202665
0.0202476
0.0202399
0.0202328
0.0235973
0.0205579
0.0203654
0.0203895
0.0203748
0.0203667
0.0203517
0.0203382
0.0203219
0.0203157
0.020302
0.0202992
0.0202941
0.028898
0.020411
0.0204263
0.0203873
0.0203761
0.0203435
0.0203498
0.0203226
0.0203117
0.0202956
0.020287
0.0202816
0.0257226
0.020649
0.0202526
0.0204267
0.0203911
0.0204076
0.020377
0.0203716
0.0203777
0.0203655
0.0203711
0.0203675
0.0415054
0.0206485
0.0204117
0.0203674
0.0203357
0.020396
0.0203613
0.0203356
0.0203275
0.0203121
0.020309
0.0391576
0.0332106
0.02056
0.0204594
0.0203729
0.0203819
0.0204497
0.0204197
0.0204457
0.0204438
0.0304954
0.0316644
0.0205478
0.0204099
0.0202928
0.0203355
0.0202976
0.0202945
0.0235665
0.028666
0.0310537
0.0206343
0.0204439
0.0205597
0.0205297
0.0365616
0.0324121
0.0321675
0.0315158
0.0219924
0.0194597
0.0192215
0.0193696
0.0192297
0.0192841
0.0191923
0.0191974
0.0191276
0.0191125
0.0190608
0.0190411
0.0190078
0.0189945
0.0189831
0.0223983
0.0194895
0.0192207
0.0193774
0.0192344
0.0192901
0.0192013
0.0192044
0.0191359
0.0191205
0.0190703
0.0190511
0.0190187
0.0190058
0.0189945
0.0237773
0.0193749
0.0192641
0.0193466
0.0192508
0.0192853
0.0192111
0.0192091
0.0191458
0.0191297
0.0190817
0.0190628
0.0190316
0.019019
0.019008
0.0195655
0.0192213
0.019379
0.0192583
0.0192977
0.0192257
0.0192242
0.0191679
0.0191521
0.0191089
0.0190912
0.0190629
0.0190516
0.0190416
0.02803
0.019341
0.0193104
0.019286
0.019291
0.0192341
0.0192322
0.019182
0.0191674
0.0191264
0.0191094
0.0190825
0.0190714
0.0190618
0.0223812
0.0194793
0.0193018
0.0193214
0.0192981
0.019262
0.019252
0.0192167
0.0191999
0.0191678
0.0191529
0.0191307
0.0191219
0.0191139
0.0300068
0.0193896
0.0192623
0.0193326
0.0192634
0.0192716
0.0192259
0.019218
0.0191835
0.0191693
0.0191468
0.0191371
0.0191292
0.0225315
0.0194928
0.0192965
0.0193175
0.0193023
0.0192905
0.0192733
0.0192567
0.0192362
0.0192256
0.0192085
0.0192036
0.019198
0.0278326
0.0193432
0.0193597
0.0193155
0.0193038
0.0192681
0.0192754
0.0192438
0.0192263
0.0192066
0.0191954
0.0191901
0.0246572
0.0195812
0.0191839
0.0193604
0.0193196
0.0193367
0.0193033
0.019296
0.0192994
0.0192847
0.0192894
0.0192851
0.040435
0.0195839
0.0193445
0.0192989
0.0192653
0.0193244
0.0192887
0.0192605
0.0192526
0.0192362
0.0192322
0.0380948
0.0321467
0.0194952
0.0193919
0.0193043
0.0193123
0.0193809
0.0193487
0.0193802
0.0193725
0.0294306
0.0305991
0.0194818
0.0193431
0.0192236
0.0192667
0.0192229
0.0192244
0.0225008
0.027601
0.0299886
0.019568
0.0193775
0.0194921
0.019463
0.0354983
0.0313474
0.0311024
0.0304507
0.0209315
0.0183979
0.0181545
0.0183009
0.018154
0.0182023
0.0180987
0.0180993
0.0180205
0.0179977
0.0179368
0.0179105
0.0178704
0.0178531
0.0178389
0.0213373
0.018427
0.018154
0.0183104
0.0181591
0.0182091
0.0181083
0.0181073
0.01803
0.0180074
0.0179483
0.0179224
0.0178835
0.0178668
0.0178529
0.0227165
0.0183126
0.0181994
0.0182778
0.0181772
0.0182057
0.0181219
0.0181146
0.0180427
0.0180193
0.0179629
0.0179375
0.0179002
0.017884
0.0178708
0.0185037
0.0181544
0.0183138
0.0181847
0.0182213
0.0181413
0.0181339
0.0180688
0.0180461
0.017995
0.0179715
0.0179375
0.0179229
0.0179108
0.02697
0.0182779
0.0182435
0.0182146
0.0182172
0.018157
0.0181466
0.0180874
0.0180663
0.0180179
0.0179955
0.0179634
0.0179492
0.0179379
0.0213197
0.0184168
0.0182375
0.0182538
0.0182261
0.0181896
0.0181712
0.0181277
0.018105
0.0180665
0.0180468
0.01802
0.0180085
0.0179989
0.0289465
0.0183258
0.0181962
0.018267
0.0181916
0.0181942
0.0181416
0.0181284
0.0180882
0.0180699
0.0180436
0.0180313
0.0180221
0.0214702
0.0184318
0.0182312
0.0182504
0.0182328
0.0182162
0.0181941
0.0181725
0.018148
0.0181349
0.018115
0.0181083
0.0181007
0.0267717
0.0182796
0.0182964
0.0182469
0.0182333
0.0181918
0.0181923
0.0181589
0.0181423
0.018122
0.0181091
0.0181008
0.0235961
0.0185201
0.0181194
0.018297
0.0182518
0.0182675
0.0182297
0.0182199
0.0182228
0.0182065
0.0182102
0.0182043
0.0393857
0.0185209
0.018281
0.0182337
0.0181987
0.0182572
0.0182167
0.018187
0.0181793
0.0181613
0.0181568
0.0370366
0.0310866
0.0184345
0.0183284
0.0182404
0.0182459
0.018316
0.01828
0.0183128
0.0183037
0.0283704
0.029538
0.0184196
0.0182805
0.0181571
0.0182023
0.018157
0.0181577
0.0214396
0.0265407
0.0289283
0.0185065
0.0183151
0.0184295
0.018401
0.0344393
0.0302876
0.0300419
0.0293897
0.019876
0.0173409
0.0170921
0.0172358
0.01708
0.0171227
0.0170091
0.0170003
0.0169091
0.0168774
0.0168058
0.0167714
0.0167233
0.0167015
0.0166832
0.0202816
0.01737
0.0170913
0.0172463
0.0170854
0.01713
0.017018
0.017009
0.0169202
0.0168889
0.0168193
0.0167857
0.0167392
0.016718
0.0167008
0.0216609
0.0172553
0.0171392
0.0172132
0.0171056
0.0171273
0.0170327
0.0170185
0.0169357
0.0169041
0.0168375
0.0168048
0.0167603
0.0167398
0.0167238
0.0174474
0.0170918
0.0172528
0.017114
0.0171464
0.0170553
0.0170418
0.0169664
0.0169361
0.0168756
0.0168453
0.0168048
0.0167864
0.0167716
0.0259155
0.0172188
0.0171815
0.0171492
0.0171456
0.0170762
0.0170592
0.0169903
0.0169619
0.0169048
0.0168761
0.016838
0.0168202
0.0168067
0.0202637
0.0173592
0.0171771
0.0171873
0.0171595
0.0171161
0.01709
0.0170374
0.0170078
0.0169619
0.0169367
0.0169047
0.0168901
0.0168784
0.0278912
0.0172659
0.0171322
0.0172003
0.0171271
0.0171183
0.0170568
0.0170375
0.0169907
0.0169675
0.0169367
0.0169216
0.0169107
0.0204138
0.0173745
0.0171695
0.0171849
0.0171619
0.0171439
0.0171146
0.0170888
0.0170597
0.0170428
0.0170194
0.0170106
0.0170017
0.0257157
0.0172195
0.0172363
0.0171814
0.0171686
0.0171107
0.0171128
0.017077
0.017057
0.0170341
0.0170197
0.0170113
0.0225402
0.0174612
0.0170592
0.017238
0.0171884
0.017199
0.01716
0.0171472
0.0171482
0.0171288
0.0171318
0.0171248
0.0383285
0.0174646
0.017222
0.0171729
0.0171351
0.01719
0.0171516
0.0171166
0.0171081
0.0170879
0.0170829
0.0359845
0.0300322
0.0173778
0.0172687
0.0171802
0.0171843
0.0172553
0.0172153
0.0172487
0.0172385
0.0273153
0.028482
0.0173624
0.0172217
0.0170948
0.0171422
0.0170942
0.0170954
0.0203835
0.025486
0.0278732
0.0174502
0.0172579
0.0173729
0.0173438
0.0333863
0.0292334
0.0289869
0.0283343
0.0188262
0.0162891
0.0160344
0.0161749
0.0160072
0.0160438
0.0159164
0.0158984
0.0157928
0.015751
0.0156667
0.0156231
0.0155656
0.0155376
0.0155152
0.019232
0.0163191
0.0160331
0.0161863
0.0160134
0.0160522
0.0159263
0.0159088
0.0158056
0.0157646
0.0156826
0.0156402
0.0155848
0.0155578
0.0155371
0.0206113
0.0162038
0.0160841
0.0161527
0.016036
0.0160504
0.0159436
0.0159201
0.0158245
0.0157835
0.0157051
0.015664
0.0156111
0.0155854
0.0155661
0.0163974
0.0160332
0.0161974
0.0160452
0.0160734
0.0159695
0.0159485
0.0158604
0.0158217
0.0157499
0.015712
0.0156638
0.0156408
0.0156232
0.0248677
0.0161654
0.0161236
0.0160852
0.0160747
0.0159952
0.0159704
0.0158902
0.0158537
0.0157863
0.0157506
0.0157055
0.0156836
0.0156675
0.019214
0.0163063
0.0161217
0.0161252
0.0160919
0.0160383
0.0160066
0.0159451
0.015908
0.0158537
0.0158223
0.015784
0.0157658
0.0157519
0.0268418
0.0162107
0.0160722
0.0161342
0.0160445
0.0160388
0.0159712
0.0159457
0.0158908
0.0158616
0.0158255
0.0158072
0.0157943
0.0193635
0.0163222
0.0161121
0.0161213
0.016085
0.0160737
0.0160408
0.0160077
0.0159713
0.0159496
0.0159212
0.0159105
0.0158999
0.0246654
0.0161637
0.0161796
0.0161185
0.0161157
0.0160519
0.0160403
0.0159967
0.0159716
0.0159454
0.0159283
0.0159189
0.02149
0.0164089
0.0160037
0.0161844
0.0161319
0.0161394
0.0160947
0.0160772
0.0160758
0.0160521
0.016054
0.0160457
0.0372874
0.0164128
0.0161676
0.0161174
0.0160764
0.0161287
0.0160887
0.0160487
0.0160388
0.0160155
0.01601
0.0349389
0.0289837
0.0163259
0.0162139
0.0161253
0.0161269
0.0162001
0.0161549
0.0161884
0.0161772
0.0262659
0.0274322
0.0163096
0.0161686
0.0160367
0.0160872
0.0160359
0.0160378
0.0193336
0.024437
0.0268245
0.0164004
0.0162065
0.0163219
0.0162921
0.0323401
0.0281853
0.0279376
0.0272851
0.017783
0.0152435
0.0149819
0.0151183
0.0149359
0.0149657
0.0148216
0.0147926
0.0146712
0.0146168
0.0145194
0.0144654
0.0143982
0.0143627
0.0143357
0.0181892
0.0152745
0.0149801
0.0151311
0.0149424
0.0149758
0.0148328
0.0148051
0.014686
0.0146328
0.0145379
0.0144853
0.0144207
0.0143871
0.0143623
0.0195688
0.0151594
0.0150371
0.015095
0.0149672
0.0149746
0.0148537
0.014819
0.0147087
0.0146556
0.014565
0.0145143
0.0144528
0.0144213
0.0143985
0.0153578
0.0149938
0.0151325
0.0149768
0.0150028
0.014883
0.0148536
0.0147505
0.0147007
0.0146174
0.0145704
0.0145142
0.0144859
0.0144655
0.0238278
0.0151197
0.0150682
0.0150236
0.0150055
0.0149145
0.0148799
0.0147869
0.0147402
0.014662
0.014618
0.0145655
0.014539
0.0145202
0.0181712
0.015259
0.0150719
0.0150677
0.0150282
0.0149641
0.0149244
0.014851
0.0148051
0.0147402
0.0147013
0.0146561
0.014634
0.0146177
0.0257993
0.0151609
0.0150177
0.0150757
0.0149766
0.0149632
0.0148845
0.0148518
0.0147876
0.0147517
0.0147098
0.0146878
0.0146726
0.0183196
0.0152757
0.0150607
0.0150684
0.0150362
0.0150059
0.0149645
0.0149259
0.0148809
0.0148548
0.0148203
0.0148069
0.0147942
0.0236217
0.0151132
0.015128
0.0150595
0.0150423
0.0149806
0.0149668
0.0149165
0.0148852
0.0148554
0.014835
0.014824
0.0204466
0.0153648
0.014953
0.0151356
0.0150746
0.0150795
0.0150314
0.0150091
0.0150069
0.0149757
0.0149765
0.0149672
0.0362589
0.0153655
0.0151174
0.0150659
0.0150215
0.0150714
0.0150304
0.014987
0.0149676
0.0149413
0.0149364
0.0338998
0.0279415
0.0152801
0.0151639
0.0150756
0.0150726
0.0151387
0.0150968
0.015132
0.01512
0.0252237
0.0263891
0.0152621
0.0151224
0.0149951
0.0150397
0.0149829
0.0149852
0.0182903
0.0233951
0.0257837
0.0153603
0.0151618
0.0152773
0.0152466
0.0313023
0.0271452
0.026896
0.0262429
0.016748
0.0142048
0.0139353
0.0140661
0.0138666
0.0138871
0.0137254
0.0136814
0.0135436
0.0134753
0.0133642
0.0132991
0.013222
0.0131788
0.0131478
0.0171543
0.0142365
0.0139318
0.0140812
0.0138745
0.0138999
0.0137381
0.0136961
0.0135607
0.0134939
0.0133855
0.013322
0.0132476
0.0132069
0.0131781
0.018534
0.0141188
0.0139917
0.0140457
0.0139092
0.0139001
0.0137623
0.0137131
0.0135873
0.013521
0.0134175
0.0133565
0.0132859
0.0132484
0.0132222
0.0143199
0.0139342
0.0140986
0.0139176
0.0139344
0.0137967
0.0137538
0.013636
0.0135734
0.0134777
0.013421
0.0133563
0.0133226
0.0132991
0.0227946
0.0140768
0.0140223
0.0139684
0.0139385
0.0138341
0.0137863
0.0136795
0.013621
0.0135312
0.0134784
0.013418
0.0133866
0.013365
0.0171355
0.0142179
0.0140285
0.0140159
0.0139678
0.0138922
0.0138398
0.0137541
0.0136969
0.0136211
0.013574
0.0135214
0.0134951
0.0134761
0.0247645
0.0141168
0.0139694
0.0140208
0.0139095
0.013888
0.0137964
0.0137549
0.0136801
0.0136373
0.0135884
0.0135623
0.0135449
0.0172832
0.0142358
0.0140145
0.0140199
0.0139799
0.0139399
0.0138887
0.013841
0.0137873
0.0137552
0.0137143
0.0136979
0.0136828
0.0225852
0.0140676
0.0140932
0.0140049
0.0139817
0.0139116
0.013894
0.0138358
0.0137987
0.0137641
0.0137404
0.0137277
0.0194106
0.0143213
0.0139073
0.0140823
0.0140246
0.014022
0.0139697
0.0139404
0.0139363
0.0139006
0.0139023
0.0138904
0.0352082
0.0143328
0.014072
0.0140229
0.0139654
0.0140177
0.0139711
0.0139189
0.0139055
0.0138786
0.0138734
0.0328706
0.0269073
0.014242
0.014118
0.0140293
0.0140244
0.0141013
0.0140467
0.0140838
0.0140693
0.0241892
0.0253531
0.0142204
0.0140793
0.013937
0.0139947
0.0139351
0.0139388
0.0172547
0.0223613
0.0247498
0.0143227
0.0141215
0.0142396
0.0142077
0.0302718
0.026113
0.0258626
0.025209
0.0157226
0.0131733
0.0128957
0.0130184
0.0128052
0.0128066
0.0126262
0.0125645
0.0124097
0.0123268
0.0122019
0.0121256
0.012039
0.0119907
0.0119593
0.0161286
0.0132061
0.0128901
0.0130355
0.0128119
0.0128215
0.0126407
0.0125817
0.0124292
0.0123479
0.012226
0.0121516
0.0120677
0.0120207
0.0119902
0.0175079
0.0130858
0.0129542
0.0129976
0.0128447
0.0128221
0.0126681
0.0126023
0.0124599
0.0123795
0.0122628
0.0121912
0.0121118
0.0120684
0.0120393
0.0132906
0.0128922
0.0130575
0.0128542
0.012863
0.0127087
0.01265
0.012516
0.0124396
0.012331
0.0122643
0.0121912
0.0121521
0.0121258
0.0217698
0.0130409
0.0129807
0.0129192
0.0128726
0.0127512
0.0126893
0.0125671
0.0124959
0.0123938
0.0123316
0.0122632
0.0122271
0.0122026
0.0161079
0.0131842
0.012991
0.0129702
0.0129106
0.0128188
0.0127533
0.012653
0.0125838
0.0124959
0.0124401
0.01238
0.012349
0.0123273
0.0237382
0.0130773
0.0129227
0.0129683
0.0128439
0.0128114
0.0127054
0.0126536
0.0125677
0.0125172
0.012461
0.0124309
0.0124109
0.0162553
0.0132025
0.0129678
0.0129759
0.0129241
0.0128744
0.0128117
0.0127542
0.0126903
0.0126513
0.0126035
0.0125836
0.0125659
0.0215567
0.0130213
0.013032
0.0129534
0.0129251
0.0128447
0.0128201
0.0127526
0.0127107
0.0126701
0.0126431
0.0126284
0.0183843
0.0132998
0.012865
0.0130658
0.0129763
0.0129685
0.0129108
0.0128723
0.0128667
0.0128248
0.0128244
0.012809
0.0342311
0.0132958
0.0130321
0.0129848
0.0129269
0.012969
0.012913
0.0128646
0.0128493
0.0128156
0.0128087
0.0318481
0.0258805
0.0132108
0.0130805
0.0129932
0.0129809
0.0130618
0.0130007
0.0130388
0.0130214
0.023163
0.024326
0.0131872
0.0130436
0.0128956
0.0129578
0.0128937
0.0128993
0.0162276
0.021336
0.0237238
0.0132936
0.0130888
0.0132096
0.0131763
0.0292514
0.0250901
0.0248379
0.0241848
0.0147076
0.0121494
0.0118635
0.011973
0.0117422
0.0117231
0.0115224
0.0114416
0.0112692
0.0111717
0.0110342
0.0109479
0.0108555
0.010808
0.010777
0.0151138
0.012184
0.0118563
0.0119931
0.0117498
0.0117404
0.011539
0.0114615
0.0112914
0.0111954
0.0110606
0.0109763
0.0108855
0.010838
0.0108075
0.0164922
0.0120606
0.0119242
0.0119534
0.0117854
0.0117434
0.0115695
0.0114857
0.011326
0.0112313
0.0111017
0.0110204
0.0109327
0.0108861
0.0108558
0.0122699
0.0118592
0.0120215
0.0118028
0.0117915
0.0116172
0.0115409
0.0113896
0.0112992
0.0111776
0.0111013
0.0110204
0.0109769
0.010948
0.0207555
0.0120113
0.0119421
0.0118622
0.0118045
0.0116653
0.0115877
0.0114486
0.0113642
0.0112494
0.0111782
0.0111022
0.0110617
0.0110346
0.0150901
0.0121583
0.0119596
0.0119254
0.0118528
0.011744
0.0116634
0.0115467
0.0114647
0.0113642
0.0112998
0.0112318
0.0111965
0.0111722
0.0227213
0.012044
0.0118839
0.0119153
0.011778
0.0117313
0.0116105
0.0115472
0.0114492
0.0113908
0.011327
0.011293
0.0112703
0.0152365
0.0121796
0.01194
0.0119341
0.01187
0.0118088
0.0117314
0.0116641
0.0115885
0.0115423
0.011487
0.0114633
0.011443
0.0205379
0.0119892
0.0120143
0.0119033
0.0118709
0.0117789
0.0117451
0.0116665
0.0116193
0.0115715
0.0115415
0.0115244
0.0173685
0.0122833
0.0118275
0.0120184
0.0119366
0.0119164
0.0118537
0.0118055
0.0117941
0.0117459
0.0117433
0.0117252
0.0332165
0.0122728
0.0119897
0.0119443
0.0118863
0.0119268
0.0118631
0.0118066
0.0117889
0.0117533
0.0117451
0.0308342
0.024861
0.0121835
0.012046
0.0119626
0.011944
0.0120248
0.0119565
0.0119964
0.0119758
0.0221462
0.0233081
0.0121614
0.012014
0.0118629
0.0119277
0.01186
0.0118672
0.0152098
0.0203212
0.0227086
0.0122732
0.0120637
0.0121875
0.0121525
0.0282435
0.0240783
0.0238244
0.0231713
0.0137049
0.0111328
0.01084
0.0109277
0.0106778
0.0106351
0.0104125
0.0103122
0.0101225
0.0100117
0.00986366
0.00977293
0.00968285
0.00963826
0.00960873
0.0141113
0.01117
0.0108311
0.0109516
0.0106872
0.0106552
0.0104316
0.0103347
0.0101472
0.010038
0.00989217
0.00980167
0.00971214
0.00966681
0.00963779
0.0154881
0.0110425
0.0109013
0.0109108
0.0107243
0.0106607
0.0104648
0.0103624
0.0101852
0.0100772
0.00993647
0.00984745
0.0097581
0.00971273
0.0096831
0.0112584
0.0108337
0.0109886
0.0107486
0.0107165
0.0105205
0.0104254
0.0102564
0.0101524
0.0100189
0.00993413
0.00984747
0.00980222
0.00977301
0.0197526
0.0109868
0.0109091
0.0108071
0.0107346
0.0105738
0.0104795
0.0103226
0.0102254
0.0100985
0.0100195
0.009937
0.00989325
0.00986401
0.0140828
0.0111406
0.0109331
0.0108851
0.0107939
0.0106659
0.0105682
0.0104336
0.0103387
0.0102255
0.0101531
0.0100777
0.010039
0.0100123
0.0217145
0.0110155
0.0108465
0.010863
0.0107074
0.0106467
0.0105089
0.010434
0.0103232
0.0102575
0.0101862
0.0101488
0.0101235
0.0142274
0.0111618
0.0109146
0.0108972
0.0108172
0.0107409
0.0106468
0.0105689
0.0104804
0.0104269
0.0103637
0.0103365
0.0103133
0.0195281
0.0109574
0.0109867
0.0108536
0.0108177
0.010708
0.0106671
0.0105752
0.0105226
0.0104667
0.010434
0.0104142
0.0163612
0.011267
0.0108032
0.010986
0.0108977
0.0108636
0.0107952
0.0107362
0.0107189
0.0106631
0.0106579
0.0106371
0.0322021
0.0112525
0.0109541
0.0109152
0.0108476
0.010887
0.0108089
0.0107518
0.0107272
0.0106905
0.0106803
0.0298351
0.0238518
0.0111635
0.0110169
0.0109358
0.0109117
0.0109918
0.0109138
0.010955
0.0109304
0.0211397
0.0223004
0.0111437
0.0109896
0.0108375
0.0109049
0.0108348
0.0108435
0.0142026
0.0193177
0.021705
0.011262
0.0110458
0.0111738
0.011136
0.0272497
0.0230797
0.022824
0.0221706
0.0127157
0.0101233
0.0098217
0.00988253
0.00960883
0.0095404
0.00929449
0.00917571
0.00897076
0.00885021
0.00869849
0.00861412
0.00852983
0.00849053
0.00846304
0.0131225
0.010164
0.00981265
0.00990949
0.00962089
0.00956344
0.0093164
0.00920066
0.00899745
0.00887825
0.00872679
0.00864152
0.00855706
0.00851679
0.00849006
0.0144965
0.0100308
0.00988251
0.0098685
0.00965836
0.00957144
0.00935173
0.00923136
0.00903777
0.00891965
0.00877091
0.00868432
0.0085988
0.00855767
0.00853
0.0102561
0.00981552
0.00995668
0.00969295
0.00963557
0.00941625
0.00930209
0.00911595
0.00900065
0.00885729
0.00876999
0.00868427
0.00864195
0.00861407
0.0187621
0.00996518
0.00987922
0.00974776
0.00965967
0.00947377
0.009363
0.0091881
0.00907985
0.00894233
0.0088582
0.00877147
0.00872782
0.00869885
0.0130867
0.0101305
0.00990903
0.0098468
0.00973125
0.0095815
0.00946524
0.00931208
0.00920509
0.00908
0.00900145
0.00892017
0.00887934
0.00885069
0.0207178
0.00999065
0.0098071
0.00980798
0.00962989
0.00955472
0.00939789
0.00931242
0.00918866
0.00911716
0.00903881
0.00899909
0.00897159
0.013228
0.0101485
0.00989315
0.00986107
0.00975928
0.00966805
0.00955484
0.00946583
0.00936386
0.00930366
0.00923258
0.00920255
0.00917669
0.0185265
0.009923
0.00995814
0.00980371
0.00975937
0.00963022
0.0095826
0.00947516
0.00941831
0.00935359
0.00931885
0.00929597
0.015362
0.0102448
0.00978766
0.00995758
0.00985998
0.00980799
0.00973266
0.00966142
0.00963811
0.00957367
0.00956614
0.00954226
0.0311742
0.0102446
0.00992332
0.00989007
0.00980679
0.00984873
0.00974997
0.00969613
0.00966115
0.00962411
0.00961113
0.0288528
0.0228547
0.0101486
0.00999164
0.00991162
0.00988199
0.00996014
0.00987157
0.00991298
0.00988507
0.020145
0.0213034
0.0101337
0.00996821
0.00981954
0.00988618
0.00981639
0.00982496
0.0132069
0.0183263
0.020713
0.0102602
0.0100345
0.010168
0.0101265
0.0262724
0.0220954
0.0218367
0.0211833
0.011742
0.00911947
0.00880483
0.00883433
0.00853151
0.00843654
0.00816666
0.00803264
0.00781628
0.00769621
0.00755451
0.00748175
0.00740686
0.00737445
0.00734984
0.012149
0.00916458
0.00879632
0.0088643
0.0085466
0.00846231
0.00819143
0.00805984
0.00784477
0.00772334
0.00758062
0.00750632
0.00743099
0.00739755
0.00737387
0.0135185
0.00902474
0.00886343
0.00882325
0.00858312
0.00847237
0.00822771
0.0080922
0.00788561
0.00776317
0.00761979
0.00754328
0.00746607
0.00743161
0.00740694
0.00926042
0.00880424
0.00892017
0.00862925
0.00854494
0.00830127
0.00816977
0.00796923
0.00784677
0.00770244
0.00762262
0.00754321
0.00750672
0.00748157
0.0177852
0.00894242
0.00884849
0.00868194
0.0085749
0.00836176
0.0082359
0.00804454
0.00792904
0.00778473
0.00770318
0.00762024
0.00758165
0.0075547
0.0121025
0.00912567
0.00888557
0.00880206
0.00866028
0.008486
0.0083516
0.00818046
0.00806378
0.00792929
0.0078477
0.00776378
0.00772443
0.00769648
0.0197309
0.00896477
0.00876188
0.00874488
0.0085406
0.00845125
0.00827469
0.00818069
0.00804519
0.00797054
0.00788662
0.00784636
0.00781703
0.0122368
0.00913516
0.00886645
0.0088197
0.00869249
0.00858561
0.00845141
0.00835227
0.00823691
0.00817138
0.00809356
0.00806169
0.00803366
0.0175326
0.00889066
0.0089312
0.00874113
0.00869224
0.008541
0.00848722
0.00836326
0.00830349
0.0082296
0.00819385
0.00816797
0.0143739
0.00924216
0.00877388
0.00892849
0.00881871
0.00874547
0.00866197
0.00857696
0.00854772
0.00847469
0.00846513
0.00843809
0.0301945
0.00921714
0.00888414
0.00886595
0.00876267
0.00880444
0.00868447
0.00863258
0.00858604
0.00854996
0.00853354
0.0278794
0.0218657
0.00913617
0.00896651
0.00888845
0.00885162
0.00892414
0.00882662
0.00886802
0.00883654
0.0191622
0.0203185
0.00912916
0.00894572
0.00880873
0.0088674
0.0088004
0.00880793
0.0122232
0.017349
0.0197351
0.00926501
0.00902883
0.00916897
0.00912255
0.0253141
0.0211261
0.0208635
0.0202105
0.0107857
0.00811875
0.00778288
0.00777782
0.00743975
0.00732013
0.00702809
0.0068857
0.0066702
0.00656845
0.00644359
0.00638749
0.00632453
0.00630057
0.00627982
0.0111927
0.00816828
0.00777719
0.0078109
0.00745841
0.00734856
0.00705516
0.00691425
0.00669715
0.00659271
0.00646613
0.00640833
0.00634468
0.00631968
0.00629989
0.0125554
0.00802187
0.00783461
0.00776901
0.00749228
0.00735941
0.00709052
0.00694632
0.00673376
0.00662583
0.00649729
0.00643705
0.00637135
0.00634531
0.00632455
0.00826473
0.00778701
0.00787182
0.00755098
0.00743997
0.0071724
0.00702864
0.0068187
0.00670317
0.00657105
0.00650557
0.00643691
0.00640874
0.00638731
0.0168237
0.00791714
0.00781061
0.00760094
0.00747403
0.00723349
0.00709674
0.00689329
0.00677882
0.00664058
0.00657159
0.00649768
0.00646711
0.00644363
0.0111294
0.00812096
0.00785632
0.00774081
0.00757449
0.00737424
0.00722442
0.00703814
0.00691667
0.00677919
0.00670406
0.00662639
0.0065938
0.0065685
0.0187522
0.0079311
0.00770439
0.00766612
0.00743306
0.00733171
0.00713656
0.00703823
0.00689419
0.00681999
0.00673476
0.00669877
0.0066706
0.0112502
0.00811293
0.00783257
0.00776272
0.00761059
0.00748711
0.00733211
0.00722526
0.00709802
0.00703045
0.00694775
0.00691629
0.00688625
0.0165426
0.00784325
0.00789329
0.00766149
0.00761034
0.00743384
0.0073756
0.00723526
0.00717487
0.00709245
0.00705772
0.00702897
0.0133908
0.00824215
0.00775765
0.00789043
0.00776284
0.00766757
0.00757656
0.0074766
0.00744306
0.00736197
0.00735166
0.00732146
0.0292539
0.00818453
0.0078397
0.00783429
0.0077061
0.00774359
0.00760384
0.00755483
0.00749541
0.00746206
0.00744154
0.026924
0.0208891
0.00811598
0.00793392
0.00785966
0.00781418
0.00787653
0.00777286
0.0078151
0.00777988
0.0181909
0.0193479
0.0081247
0.00791968
0.00779342
0.00783942
0.00778172
0.00778594
0.0112505
0.0163855
0.0187729
0.00827027
0.00802647
0.00817328
0.0081217
0.0243772
0.0201743
0.0199062
0.0192535
0.0098481
0.00711476
0.00675083
0.00671196
0.00633235
0.00619557
0.00588566
0.0057534
0.0055604
0.0054861
0.00538397
0.00534751
0.00529822
0.00528383
0.00526778
0.0102565
0.00717137
0.00674945
0.00674894
0.00635501
0.00622614
0.00591478
0.00577931
0.00558368
0.00550597
0.00540204
0.0053638
0.00531381
0.0052983
0.00528305
0.0116089
0.00701721
0.006795
0.00670501
0.00638328
0.00623453
0.00594635
0.00580463
0.0056105
0.00552911
0.00542289
0.00538275
0.00533065
0.00531437
0.00529807
0.00726699
0.00677387
0.00681447
0.00645624
0.00632165
0.00603488
0.0058869
0.00568742
0.00559552
0.00548371
0.00543788
0.00538255
0.00536414
0.00534715
0.0158803
0.00685661
0.00675454
0.00649777
0.00635565
0.00609145
0.00595206
0.00574859
0.00565434
0.00553352
0.00548416
0.00542321
0.00540283
0.00538389
0.0101641
0.00709911
0.00680455
0.00666236
0.00647083
0.00624784
0.00608889
0.00589362
0.00578107
0.00565475
0.00559639
0.00552961
0.00550696
0.00548597
0.0177791
0.00687569
0.0066259
0.00656623
0.00630539
0.00619801
0.00598877
0.00589394
0.00574956
0.00568878
0.00561159
0.00558521
0.00556065
0.0102606
0.00706616
0.00678266
0.00668496
0.00650946
0.00637249
0.0061988
0.0060899
0.00595363
0.00588902
0.00580618
0.00578142
0.00575383
0.0155532
0.00675974
0.00682713
0.00655779
0.00650993
0.00630663
0.00624938
0.00609362
0.00603759
0.00594856
0.00591749
0.00588644
0.0124034
0.00709939
0.00673709
0.00684021
0.00668822
0.00656828
0.00647339
0.0063587
0.00632534
0.00623744
0.00622952
0.00619674
0.0278543
0.00728096
0.00678349
0.00678314
0.00662738
0.00666544
0.00650126
0.00646065
0.0063868
0.00635899
0.00633385
0.0260328
0.019932
0.00707039
0.00687921
0.00680889
0.0067591
0.00681988
0.00670923
0.0067538
0.0067137
0.0172338
0.0183962
0.00710392
0.00686117
0.00677985
0.00680017
0.00675444
0.00675366
0.0102852
0.0154339
0.0178246
0.00727341
0.0070223
0.00717737
0.00711724
0.023469
0.0192432
0.0189672
0.018317
0.00892234
0.00607601
0.00567228
0.00561446
0.00518695
0.00504605
0.00473507
0.0046426
0.00448167
0.00444219
0.00436563
0.00435023
0.00431565
0.00431103
0.00429989
0.00933668
0.00614593
0.00567587
0.00565662
0.00521353
0.00507794
0.00476084
0.00466368
0.00449987
0.00445707
0.0043788
0.00436174
0.00432642
0.00432071
0.00431026
0.010673
0.00597703
0.00570519
0.00560455
0.00523211
0.00508025
0.00477986
0.00467589
0.00451336
0.00446814
0.00438816
0.00437006
0.00433288
0.00432691
0.0043153
0.00622977
0.00570471
0.00572039
0.0053207
0.00517232
0.00487024
0.00474782
0.00457772
0.00451998
0.00443395
0.00441041
0.00436988
0.00436204
0.00434964
0.0149558
0.00573872
0.00565028
0.00534383
0.00519773
0.00491579
0.00479378
0.0046152
0.00455529
0.00445991
0.00443446
0.0043884
0.00437949
0.00436536
0.00919959
0.00602309
0.005698
0.00553846
0.00532537
0.00508774
0.00492917
0.00474513
0.00466115
0.00455581
0.00452079
0.00446866
0.00445799
0.00444182
0.0168047
0.00574653
0.00548886
0.00541543
0.00513353
0.0050311
0.00481759
0.00474553
0.00461617
0.0045792
0.00451443
0.00450135
0.00448159
0.00924425
0.00594758
0.00567099
0.00556283
0.0053636
0.0052207
0.0050321
0.00493041
0.0047957
0.00475021
0.00467755
0.00466585
0.00464279
0.0145569
0.00563593
0.00572623
0.00539321
0.00536206
0.0051346
0.00508934
0.00491839
0.00487328
0.00478228
0.00476372
0.00473559
0.0114384
0.00616688
0.00565228
0.00572163
0.00556241
0.0054181
0.00532875
0.00520157
0.00517679
0.00508355
0.00508186
0.00504684
0.0277229
0.00607243
0.00562306
0.00567198
0.00549235
0.00554231
0.00534827
0.00532578
0.00523619
0.00521816
0.00518813
0.0251153
0.0189606
0.00595146
0.00575158
0.00570379
0.00565595
0.00572696
0.00560943
0.00566248
0.00561577
0.0162913
0.0174736
0.00602891
0.0057446
0.00571162
0.00571114
0.00568196
0.00567477
0.00931601
0.0144882
0.0168978
0.00623757
0.00598306
0.00615376
0.00607775
0.0225921
0.0183277
0.0180471
0.0174063
0.00801938
0.0049458
0.00446627
0.00441403
0.00393618
0.00383489
0.00356609
0.00353346
0.00341753
0.00341781
0.00336992
0.00337655
0.00335732
0.00336237
0.0033562
0.00845353
0.00503871
0.00447071
0.00445751
0.00396289
0.00385776
0.00358467
0.00354678
0.00342927
0.00342668
0.00337755
0.00338286
0.003363
0.00336711
0.00336161
0.00977852
0.00483313
0.0044702
0.00437977
0.00396193
0.00383592
0.00358202
0.00354033
0.00342672
0.00342432
0.00337466
0.00338015
0.00335906
0.00336347
0.00335696
0.00511743
0.00448478
0.00449892
0.00406275
0.00392181
0.00365955
0.0035946
0.00347312
0.00345858
0.00340332
0.00340418
0.00337997
0.00338316
0.00337582
0.0140898
0.00446459
0.00439443
0.00405189
0.00392643
0.00366911
0.00360871
0.003478
0.00346555
0.00340238
0.00340379
0.00337485
0.00337817
0.00336957
0.00825395
0.0048369
0.00443671
0.004288
0.00406721
0.00384079
0.00372267
0.00357995
0.00354039
0.00346609
0.00345944
0.00342485
0.00342756
0.00341731
0.0158696
0.00445138
0.00420611
0.00414152
0.00385791
0.00378987
0.00360588
0.00358012
0.00347901
0.0034746
0.00342767
0.0034307
0.00341717
0.00817641
0.00469736
0.00442496
0.00432583
0.00411265
0.00397873
0.00379074
0.00372402
0.00361077
0.00359712
0.00354204
0.00354903
0.00353325
0.0135548
0.00433911
0.00450718
0.00409893
0.00410989
0.00385904
0.00384226
0.00367181
0.00366284
0.00358441
0.00358758
0.00356621
0.0105029
0.00509033
0.00443975
0.00450081
0.0043243
0.00414485
0.00407113
0.00393099
0.00392683
0.00383949
0.00386218
0.00383523
0.0266657
0.00497121
0.00431909
0.00442376
0.0042101
0.00429239
0.00405703
0.00406858
0.00396648
0.00396818
0.00393708
0.0243385
0.018049
0.00470156
0.00445795
0.00444379
0.00440128
0.00450666
0.00438533
0.00446483
0.0044147
0.0154357
0.016659
0.00484375
0.00447151
0.00449306
0.00447737
0.00447862
0.00446881
0.00836996
0.0135811
0.0160501
0.00512721
0.00484055
0.00505008
0.0049465
0.0218162
0.0174349
0.0172188
0.016602
0.00733433
0.00453585
0.00387962
0.00399696
0.00346301
0.00350152
0.003311
0.00338131
0.0033333
0.00339106
0.00338361
0.0034196
0.00342052
0.00343774
0.00343798
0.00784311
0.0046881
0.00391983
0.00405393