/*--------------------------------*- C++ -*----------------------------------*\
| =========                 |                                                 |
| \\      /  F ield         | OpenFOAM: The Open Source CFD Toolbox           |
|  \\    /   O peration     | Version:  2.1.1                                 |
|   \\  /    A nd           | Web:      www.OpenFOAM.org                      |
|    \\/     M anipulation  |                                                 |
\*---------------------------------------------------------------------------*/
FoamFile
{
    version     2.0;
    format      ascii;
    class       volVectorField;
    location    "0.001";
    object      U;
}
// * * * * * * * * * * * * * * * * * * * * * * * * * * * * * * * * * * * * * //

dimensions      [0 1 -1 0 0 0 0];

internalField   nonuniform List<vector> 
10229
(
(-0.0050078 -6.5328e-07 0.0216901)
(-0.000238072 -3.59639e-05 0.0910924)
(0.000198223 -1.43335e-05 0.11244)
(-0.000105319 -6.75176e-06 0.111832)
(0.000114865 -1.14617e-05 0.111698)
(-2.67444e-05 -4.05486e-06 0.111867)
(7.48496e-05 -8.67754e-06 0.111972)
(1.08023e-05 -4.79296e-06 0.112034)
(5.73316e-05 -7.66405e-06 0.112086)
(2.42059e-05 -6.07729e-06 0.112129)
(4.23894e-05 -7.65877e-06 0.112171)
(2.18229e-05 -7.36472e-06 0.112211)
(2.63113e-05 -8.48497e-06 0.112253)
(9.50552e-06 -8.41614e-06 0.11229)
(7.37602e-06 -8.88897e-06 0.112315)
(-0.0047076 -0.000707869 0.0197048)
(-0.000251888 9.0927e-05 0.0915079)
(0.000232175 -5.85554e-05 0.112681)
(-9.97028e-05 5.30862e-05 0.112036)
(0.000116675 -3.02375e-05 0.111841)
(-2.31432e-05 1.41278e-05 0.111934)
(7.39595e-05 -1.72732e-05 0.111995)
(1.19885e-05 -9.14583e-07 0.112037)
(5.57842e-05 -1.24493e-05 0.112079)
(2.41534e-05 -6.93903e-06 0.112118)
(4.12818e-05 -1.11729e-05 0.11216)
(2.10738e-05 -9.3882e-06 0.1122)
(2.52478e-05 -1.10792e-05 0.112239)
(9.03175e-06 -1.02899e-05 0.112271)
(7.1925e-06 -1.10001e-05 0.112291)
(-0.00127748 -0.00151445 0.0103553)
(-0.000145912 -0.000117327 0.0964545)
(0.000107496 -4.89706e-05 0.114925)
(-6.8783e-05 2.89373e-05 0.112587)
(7.28736e-05 -4.46614e-05 0.111998)
(-1.18758e-05 6.915e-06 0.112007)
(5.94233e-05 -3.0795e-05 0.112016)
(1.58444e-05 -8.82697e-06 0.112032)
(5.1239e-05 -2.53217e-05 0.112063)
(2.54915e-05 -1.7697e-05 0.112098)
(3.99292e-05 -2.51961e-05 0.112138)
(2.1914e-05 -2.32589e-05 0.112177)
(2.54166e-05 -2.63084e-05 0.112213)
(9.58661e-06 -2.64735e-05 0.11224)
(6.85462e-06 -2.7492e-05 0.112254)
(-0.000472849 0.000361123 0.0782169)
(0.000385516 -0.000174644 0.113491)
(-9.20902e-05 0.000111657 0.113566)
(8.91305e-05 -6.27891e-05 0.112124)
(-8.24595e-06 1.35569e-05 0.111995)
(5.78912e-05 -3.24693e-05 0.111996)
(1.75406e-05 -8.92429e-06 0.112)
(4.67935e-05 -2.52219e-05 0.112027)
(2.4234e-05 -1.75267e-05 0.112062)
(3.56933e-05 -2.36067e-05 0.112104)
(1.99511e-05 -2.05318e-05 0.112143)
(2.2031e-05 -2.31246e-05 0.112178)
(7.8484e-06 -2.25232e-05 0.112201)
(6.03942e-06 -2.30892e-05 0.112213)
(-0.00589419 0.00142506 0.0289532)
(-0.000265006 -0.000209657 0.091141)
(8.18905e-05 0.000158892 0.113412)
(-2.74347e-05 -9.41361e-05 0.112397)
(1.62621e-05 1.48274e-05 0.111894)
(3.67861e-05 -4.54583e-05 0.111911)
(2.3006e-05 -1.37646e-05 0.11193)
(4.2538e-05 -3.76002e-05 0.111967)
(2.70209e-05 -2.73739e-05 0.112012)
(3.69114e-05 -3.75106e-05 0.112061)
(2.24001e-05 -3.65416e-05 0.112104)
(2.34426e-05 -4.13944e-05 0.112138)
(9.63412e-06 -4.23646e-05 0.11216)
(6.39483e-06 -4.36551e-05 0.112172)
(-0.00325884 0.000485538 0.0180093)
(-0.000328147 0.000394003 0.0754572)
(0.000290103 -0.000123511 0.112586)
(-8.95359e-06 5.11367e-05 0.113188)
(3.57334e-05 -4.88359e-05 0.111818)
(2.83311e-05 -2.20756e-05 0.111768)
(2.51989e-05 -2.37953e-05 0.11183)
(3.30842e-05 -2.64626e-05 0.111889)
(2.42403e-05 -2.51141e-05 0.111952)
(2.65346e-05 -2.78652e-05 0.112012)
(1.60786e-05 -2.56243e-05 0.112061)
(1.62375e-05 -2.64701e-05 0.112097)
(5.60142e-06 -2.4936e-05 0.112118)
(4.62884e-06 -2.50788e-05 0.112129)
(-0.00885008 0.00184112 0.0306833)
(-0.00034357 -6.44108e-05 0.0901308)
(0.000106594 6.65332e-05 0.113013)
(-6.02463e-05 -1.41984e-05 0.112053)
(5.89952e-05 -2.93011e-05 0.111609)
(1.84164e-05 -2.16753e-05 0.1117)
(4.1265e-05 -4.18519e-05 0.111801)
(2.56256e-05 -3.39859e-05 0.111888)
(3.64855e-05 -4.3533e-05 0.111965)
(2.38718e-05 -4.77647e-05 0.112025)
(2.41806e-05 -5.18188e-05 0.112061)
(1.10174e-05 -5.66344e-05 0.112078)
(6.12583e-06 -5.78717e-05 0.112086)
(-0.00454244 -0.000448044 0.019258)
(-0.00039052 0.000407578 0.0771191)
(0.000327286 -0.000183095 0.112764)
(-1.69523e-05 -1.35674e-05 0.112798)
(1.80499e-05 -9.0094e-05 0.111464)
(1.15235e-05 -1.24134e-05 0.111528)
(2.07844e-05 -1.95174e-05 0.111701)
(2.25162e-05 -2.60151e-05 0.111829)
(1.28453e-05 -2.38832e-05 0.111928)
(7.88982e-06 -1.81905e-05 0.111997)
(7.49235e-06 -1.66156e-05 0.112029)
(-3.76447e-07 -1.2675e-05 0.112035)
(3.40632e-06 -1.146e-05 0.112034)
(-0.00603731 0.000598333 0.0312636)
(-0.000342947 -0.00025556 0.0911697)
(7.67502e-05 0.000257047 0.112984)
(5.73063e-05 -5.78263e-05 0.111957)
(8.90275e-05 -1.83795e-05 0.111466)
(2.87944e-05 -5.95314e-05 0.111609)
(2.14582e-05 -2.89769e-05 0.111765)
(4.45088e-05 -3.76108e-05 0.111906)
(3.12283e-05 -5.84957e-05 0.111992)
(2.96209e-05 -6.01089e-05 0.112012)
(1.59616e-05 -7.42527e-05 0.111991)
(7.44979e-06 -7.54817e-05 0.11197)
(-0.00425724 -0.00185789 0.014881)
(-0.000449516 0.000576909 0.0733061)
(0.000546155 -0.000547641 0.11307)
(-0.00025756 -7.69433e-05 0.112981)
(1.26963e-05 1.64024e-05 0.112796)
(1.29837e-05 5.97089e-05 0.112049)
(4.72525e-05 -3.62169e-05 0.111813)
(-1.57142e-05 -1.6807e-05 0.111888)
(-1.44517e-05 7.64197e-06 0.111989)
(-7.93808e-06 1.1106e-05 0.112001)
(-1.53578e-05 2.26488e-05 0.111929)
(2.5952e-06 2.61392e-05 0.111865)
(0.00235349 -0.0117145 0.0163354)
(-0.000578013 0.000450377 0.0732484)
(0.000255144 0.000342605 0.0911284)
(0.000181612 -0.000328977 0.112753)
(-6.70102e-05 -0.000107652 0.113005)
(-5.17577e-05 8.14965e-06 0.113181)
(9.30667e-05 2.69125e-05 0.112389)
(6.13263e-05 -8.93544e-05 0.112115)
(4.35999e-05 -7.33841e-05 0.111989)
(2.91018e-05 -0.000116865 0.111832)
(1.03649e-05 -0.000115464 0.111694)
(0.00416172 -0.00865382 0.0187961)
(-0.00138942 -0.000613032 0.0267486)
(-0.00040799 0.000389942 0.0771074)
(6.40275e-05 0.000342487 0.0901189)
(0.000122431 -0.00029143 0.112578)
(-0.000159271 -8.28458e-05 0.113404)
(-0.000112579 9.14627e-05 0.113556)
(-2.99734e-05 6.79065e-05 0.112574)
(-5.44094e-05 9.89097e-05 0.112023)
(5.25295e-06 0.00010465 0.111826)
(-0.00215233 0.00140754 0.029582)
(-0.00449424 0.000445371 0.0264147)
(-0.000393467 0.000327304 0.0754524)
(0.000209373 0.000263979 0.091134)
(0.000173245 -0.000386653 0.113479)
(4.76284e-05 -0.000108544 0.114908)
(5.7585e-05 -0.000233255 0.112661)
(1.33068e-05 -0.000199513 0.11243)
(-0.00253903 0.000437022 0.0167018)
(-0.00269015 0.00157309 0.0314324)
(-0.00435817 -0.000173394 0.0265419)
(-0.000360931 0.000471144 0.0782075)
(0.000116399 0.000144093 0.0964398)
(-9.23557e-05 0.000250113 0.091491)
(3.46015e-05 0.000236464 0.0910849)
(-0.0023112 -0.00660393 0.0220412)
(0.00301167 -0.00671386 0.0247785)
(-0.00109774 0.00152583 0.0319423)
(0.000150681 0.0014914 0.0291253)
(-0.00500837 -5.54547e-07 0.0216925)
(-0.000235806 -3.55133e-05 0.0910863)
(0.00020149 -1.36362e-05 0.112438)
(-0.000102254 -8.48227e-06 0.111829)
(0.00011886 -1.12515e-05 0.111698)
(-2.21806e-05 -4.58067e-06 0.111866)
(8.03129e-05 -9.15636e-06 0.111973)
(1.60489e-05 -5.33728e-06 0.112036)
(6.27248e-05 -8.15621e-06 0.112089)
(2.91806e-05 -6.57413e-06 0.11213)
(4.73765e-05 -8.22711e-06 0.112174)
(2.55768e-05 -8.10261e-06 0.112214)
(2.95549e-05 -9.18179e-06 0.112256)
(1.14484e-05 -9.18835e-06 0.112293)
(8.84846e-06 -1.02351e-05 0.112318)
(-0.00470805 -0.000707916 0.019707)
(-0.000249326 9.01984e-05 0.0915025)
(0.0002334 -5.91982e-05 0.112678)
(-9.70989e-05 5.31853e-05 0.112032)
(0.00012202 -3.155e-05 0.11184)
(-1.90804e-05 1.3173e-05 0.111933)
(7.9419e-05 -1.8566e-05 0.111996)
(1.72766e-05 -2.08688e-06 0.112037)
(6.12357e-05 -1.3681e-05 0.112082)
(2.89934e-05 -8.12922e-06 0.11212)
(4.59643e-05 -1.24937e-05 0.112163)
(2.49029e-05 -1.08972e-05 0.112202)
(2.85374e-05 -1.24808e-05 0.112242)
(1.09112e-05 -1.20578e-05 0.112274)
(8.00933e-06 -1.26115e-05 0.112294)
(-0.00127759 -0.00151469 0.0103578)
(-0.000144307 -0.000117005 0.0964498)
(0.000111964 -4.86685e-05 0.11492)
(-6.62131e-05 2.83244e-05 0.112585)
(7.58959e-05 -4.52864e-05 0.111997)
(-7.21001e-06 5.75334e-06 0.112006)
(6.46909e-05 -3.22012e-05 0.112017)
(2.1163e-05 -1.04351e-05 0.112032)
(5.66088e-05 -2.74367e-05 0.112065)
(3.037e-05 -1.98185e-05 0.1121)
(4.46009e-05 -2.76627e-05 0.112141)
(2.55777e-05 -2.60381e-05 0.112179)
(2.83949e-05 -2.94457e-05 0.112216)
(1.13247e-05 -2.98108e-05 0.112242)
(7.76907e-06 -3.09104e-05 0.112257)
(-0.000470213 0.000361034 0.0782116)
(0.000385687 -0.000178608 0.113489)
(-9.01143e-05 0.000109425 0.11356)
(9.39803e-05 -6.49337e-05 0.112122)
(-4.92923e-06 1.10413e-05 0.111993)
(6.29007e-05 -3.43025e-05 0.111997)
(2.21081e-05 -1.12824e-05 0.112)
(5.17077e-05 -2.78146e-05 0.112028)
(2.8693e-05 -2.01356e-05 0.112064)
(3.97086e-05 -2.67646e-05 0.112107)
(2.31094e-05 -2.39271e-05 0.112145)
(2.47742e-05 -2.69352e-05 0.11218)
(9.45401e-06 -2.6262e-05 0.112203)
(6.76231e-06 -2.70845e-05 0.112215)
(-0.00589515 0.00142566 0.0289574)
(-0.00026408 -0.000215499 0.0911364)
(8.60894e-05 0.000160261 0.113408)
(-2.47362e-05 -9.62586e-05 0.112394)
(2.11873e-05 1.37326e-05 0.111892)
(4.21591e-05 -4.77555e-05 0.111911)
(2.7524e-05 -1.60889e-05 0.111931)
(4.76311e-05 -4.09458e-05 0.111969)
(3.13284e-05 -3.07011e-05 0.112014)
(4.0796e-05 -4.16636e-05 0.112064)
(2.54072e-05 -4.06499e-05 0.112106)
(2.60711e-05 -4.59398e-05 0.112141)
(1.11824e-05 -4.70098e-05 0.112163)
(6.95408e-06 -4.85791e-05 0.112175)
(-0.00325931 0.000484929 0.0180115)
(-0.000326153 0.000394394 0.0754517)
(0.000296012 -0.00012623 0.112579)
(-6.52845e-06 5.18013e-05 0.113185)
(3.8796e-05 -5.10193e-05 0.111815)
(3.20346e-05 -2.47152e-05 0.111769)
(2.86621e-05 -2.67976e-05 0.11183)
(3.69714e-05 -3.00634e-05 0.11189)
(2.78789e-05 -2.8814e-05 0.111953)
(2.97541e-05 -3.22539e-05 0.112013)
(1.88549e-05 -2.98497e-05 0.112062)
(1.8459e-05 -3.12059e-05 0.112099)
(6.83098e-06 -2.98499e-05 0.11212)
(5.16928e-06 -3.01385e-05 0.112131)
(-0.00885177 0.001842 0.0306879)
(-0.000339942 -7.18581e-05 0.0901289)
(0.000109755 6.40647e-05 0.113008)
(-5.86827e-05 -1.32192e-05 0.112051)
(6.34732e-05 -3.32919e-05 0.111606)
(2.1917e-05 -2.37804e-05 0.1117)
(4.56465e-05 -4.62871e-05 0.111802)
(2.91465e-05 -3.79799e-05 0.111889)
(3.98536e-05 -4.86672e-05 0.111967)
(2.65532e-05 -5.26844e-05 0.112026)
(2.61387e-05 -5.73997e-05 0.112064)
(1.22455e-05 -6.21135e-05 0.112081)
(6.61989e-06 -6.34324e-05 0.112089)
(-0.00454283 -0.000448504 0.0192597)
(-0.00038812 0.000405987 0.0771131)
(0.000338656 -0.000189154 0.112761)
(-1.54412e-05 -1.95872e-05 0.112793)
(1.86341e-05 -9.34426e-05 0.111463)
(1.45034e-05 -1.55129e-05 0.111526)
(2.27815e-05 -2.32644e-05 0.111701)
(2.54669e-05 -2.97676e-05 0.111829)
(1.51637e-05 -2.87043e-05 0.111928)
(1.025e-05 -2.29328e-05 0.111997)
(9.17762e-06 -2.19042e-05 0.11203)
(8.79901e-07 -1.78254e-05 0.112035)
(3.78905e-06 -1.67772e-05 0.112035)
(-0.00603881 0.000599648 0.0312679)
(-0.000342936 -0.000259353 0.0911662)
(8.09001e-05 0.000252663 0.112981)
(6.46461e-05 -6.54684e-05 0.111954)
(9.21333e-05 -1.91286e-05 0.111464)
(3.25618e-05 -6.40724e-05 0.111606)
(2.39618e-05 -3.29194e-05 0.111766)
(4.69474e-05 -4.32154e-05 0.111907)
(3.34821e-05 -6.35934e-05 0.111992)
(3.11814e-05 -6.53958e-05 0.112013)
(1.71512e-05 -7.99114e-05 0.111993)
(7.55365e-06 -8.0968e-05 0.111972)
(-0.0042578 -0.00185815 0.0148831)
(-0.000446699 0.000576201 0.0733033)
(0.000543691 -0.000545471 0.113066)
(-0.000253334 -8.11559e-05 0.112978)
(1.88411e-05 1.47559e-05 0.112791)
(1.18166e-05 5.81227e-05 0.112047)
(4.92115e-05 -3.92635e-05 0.111809)
(-1.44767e-05 -2.16651e-05 0.111886)
(-1.17234e-05 4.08439e-06 0.111987)
(-6.81116e-06 6.02163e-06 0.112)
(-1.43225e-05 1.82973e-05 0.111928)
(3.13073e-06 2.13288e-05 0.111864)
(0.00235367 -0.0117162 0.0163396)
(-0.000577075 0.000447624 0.0732452)
(0.000258818 0.000342324 0.0911251)
(0.000187457 -0.000340464 0.11275)
(-6.4612e-05 -0.000111093 0.113)
(-5.24689e-05 5.46815e-06 0.113178)
(9.5074e-05 2.40583e-05 0.112387)
(6.34057e-05 -9.44047e-05 0.112113)
(4.43328e-05 -7.66734e-05 0.111988)
(3.0486e-05 -0.000122339 0.111831)
(1.02099e-05 -0.000119803 0.111694)
(0.00416266 -0.00865496 0.0187994)
(-0.00139129 -0.000613197 0.026754)
(-0.000406287 0.00038764 0.0771016)
(7.11906e-05 0.000338626 0.0901173)
(0.000125009 -0.000297346 0.112572)
(-0.000160442 -8.71831e-05 0.113401)
(-0.000110247 8.92915e-05 0.113551)
(-2.93179e-05 6.52906e-05 0.112572)
(-5.45021e-05 9.61848e-05 0.112019)
(7.05507e-06 0.000101349 0.111823)
(-0.00215219 0.00140912 0.0295859)
(-0.0044952 0.00044639 0.0264201)
(-0.000394006 0.000325422 0.0754474)
(0.000214896 0.000262435 0.0911297)
(0.000177166 -0.000387223 0.113478)
(4.75154e-05 -0.000113027 0.114904)
(5.81331e-05 -0.000234464 0.112659)
(1.25419e-05 -0.000202724 0.112429)
(-0.00253925 0.000437152 0.0167032)
(-0.00269041 0.0015742 0.0314361)
(-0.00435931 -0.000171976 0.0265479)
(-0.00036058 0.000468024 0.0782027)
(0.000116345 0.00014269 0.0964358)
(-9.14843e-05 0.000248079 0.0914862)
(3.42425e-05 0.000234246 0.0910794)
(-0.00231044 -0.00660472 0.0220451)
(0.00301244 -0.00671368 0.0247838)
(-0.00109756 0.00152703 0.0319484)
(0.00015005 0.00149277 0.0291311)
(-0.00500882 -4.70616e-07 0.0216954)
(-0.000232528 -3.45079e-05 0.0910801)
(0.00020607 -1.38631e-05 0.112437)
(-9.94065e-05 -1.02818e-05 0.111826)
(0.000123057 -1.127e-05 0.111698)
(-1.75585e-05 -5.19799e-06 0.111865)
(8.5742e-05 -9.36247e-06 0.111975)
(2.12222e-05 -5.74873e-06 0.112035)
(6.81199e-05 -8.58955e-06 0.112091)
(3.37849e-05 -7.22993e-06 0.11213)
(5.20668e-05 -8.99864e-06 0.112175)
(2.93059e-05 -8.7877e-06 0.112213)
(3.3302e-05 -9.94191e-06 0.112255)
(1.36342e-05 -1.02924e-05 0.112292)
(9.63401e-06 -1.09374e-05 0.112318)
(-0.00470863 -0.000708008 0.0197097)
(-0.000246363 9.08961e-05 0.091497)
(0.000235269 -6.10324e-05 0.112675)
(-9.39033e-05 5.41342e-05 0.112029)
(0.000127574 -3.29593e-05 0.11184)
(-1.46972e-05 1.24108e-05 0.111932)
(8.50366e-05 -1.97642e-05 0.111998)
(2.22398e-05 -3.02396e-06 0.112037)
(6.64351e-05 -1.49672e-05 0.112083)
(3.33486e-05 -9.25596e-06 0.112119)
(5.05789e-05 -1.39603e-05 0.112163)
(2.86344e-05 -1.20054e-05 0.112201)
(3.19105e-05 -1.40677e-05 0.112241)
(1.28808e-05 -1.39555e-05 0.112272)
(9.03776e-06 -1.47505e-05 0.112293)
(-0.00127783 -0.00151484 0.0103607)
(-0.000142143 -0.000116769 0.0964448)
(0.000117191 -4.68103e-05 0.114915)
(-6.27046e-05 2.64953e-05 0.112582)
(7.84775e-05 -4.61304e-05 0.111997)
(-2.27417e-06 4.35853e-06 0.112005)
(6.99712e-05 -3.38351e-05 0.112019)
(2.6262e-05 -1.21075e-05 0.112032)
(6.18067e-05 -2.9574e-05 0.112067)
(3.47897e-05 -2.17957e-05 0.1121)
(4.93083e-05 -3.00285e-05 0.112142)
(2.91797e-05 -2.85388e-05 0.11218)
(3.13422e-05 -3.26574e-05 0.112216)
(1.29578e-05 -3.31736e-05 0.112242)
(8.6682e-06 -3.46162e-05 0.112256)
(-0.000465516 0.000360061 0.0782063)
(0.00038549 -0.000183171 0.113487)
(-8.92175e-05 0.000106039 0.113555)
(0.000100033 -6.74725e-05 0.112121)
(-1.29537e-06 8.55624e-06 0.111992)
(6.82348e-05 -3.66326e-05 0.111998)
(2.65553e-05 -1.35709e-05 0.112)
(5.65766e-05 -3.04155e-05 0.11203)
(3.27919e-05 -2.25236e-05 0.112064)
(4.37878e-05 -2.97564e-05 0.112108)
(2.59945e-05 -2.71197e-05 0.112145)
(2.72866e-05 -3.0464e-05 0.11218)
(1.09356e-05 -2.97429e-05 0.112201)
(7.50427e-06 -3.08346e-05 0.112214)
(-0.00589671 0.00142572 0.0289626)
(-0.000262235 -0.000223677 0.091134)
(9.14779e-05 0.000161578 0.113404)
(-2.13087e-05 -9.86867e-05 0.112393)
(2.62663e-05 1.22344e-05 0.111892)
(4.75746e-05 -5.03875e-05 0.111911)
(3.23021e-05 -1.84664e-05 0.111931)
(5.26889e-05 -4.43796e-05 0.11197)
(3.53331e-05 -3.39467e-05 0.112015)
(4.46918e-05 -4.58034e-05 0.112065)
(2.8468e-05 -4.47868e-05 0.112106)
(2.87309e-05 -5.04141e-05 0.112142)
(1.26027e-05 -5.15835e-05 0.112163)
(7.54144e-06 -5.33832e-05 0.112175)
(-0.00325988 0.000484701 0.0180142)
(-0.000324109 0.000394512 0.0754469)
(0.000303142 -0.000128517 0.112572)
(-3.25278e-06 5.15445e-05 0.113183)
(4.21166e-05 -5.30255e-05 0.111812)
(3.63961e-05 -2.80419e-05 0.111768)
(3.22369e-05 -2.95519e-05 0.111829)
(4.0937e-05 -3.37447e-05 0.111891)
(3.1256e-05 -3.22238e-05 0.111953)
(3.29406e-05 -3.63187e-05 0.112014)
(2.14171e-05 -3.37378e-05 0.112062)
(2.05496e-05 -3.5762e-05 0.112099)
(7.98461e-06 -3.42889e-05 0.112119)
(5.73615e-06 -3.47407e-05 0.112131)
(-0.00885352 0.00184281 0.0306941)
(-0.000336034 -7.87409e-05 0.0901255)
(0.000113357 6.2302e-05 0.113003)
(-5.67673e-05 -1.27013e-05 0.112049)
(6.80435e-05 -3.70876e-05 0.111605)
(2.62683e-05 -2.59714e-05 0.111699)
(5.0034e-05 -5.07721e-05 0.111803)
(3.27709e-05 -4.18621e-05 0.11189)
(4.3287e-05 -5.37066e-05 0.111969)
(2.91455e-05 -5.76188e-05 0.112028)
(2.82691e-05 -6.2791e-05 0.112065)
(1.36238e-05 -6.73863e-05 0.112082)
(7.18021e-06 -6.8919e-05 0.112091)
(-0.00454317 -0.00044896 0.0192623)
(-0.000384441 0.000404246 0.0771097)
(0.000349905 -0.000194344 0.112757)
(-1.42047e-05 -2.50295e-05 0.112788)
(2.02255e-05 -9.58901e-05 0.111462)
(1.73451e-05 -1.85354e-05 0.111524)
(2.50558e-05 -2.75298e-05 0.111701)
(2.83018e-05 -3.32166e-05 0.111828)
(1.73281e-05 -3.33694e-05 0.111928)
(1.24983e-05 -2.74569e-05 0.111997)
(1.09579e-05 -2.71366e-05 0.11203)
(1.94724e-06 -2.30627e-05 0.112035)
(4.2058e-06 -2.21598e-05 0.112035)
(-0.00604038 0.000600587 0.0312734)
(-0.000342011 -0.000263954 0.0911634)
(8.53739e-05 0.000249386 0.112979)
(7.15667e-05 -7.25538e-05 0.111953)
(9.46717e-05 -2.08e-05 0.111463)
(3.65718e-05 -6.86415e-05 0.111605)
(2.72588e-05 -3.74903e-05 0.111766)
(4.93781e-05 -4.87723e-05 0.111907)
(3.55551e-05 -6.88787e-05 0.111993)
(3.26117e-05 -7.08663e-05 0.112015)
(1.8367e-05 -8.56419e-05 0.111994)
(8.10828e-06 -8.64757e-05 0.111974)
(-0.00425838 -0.00185809 0.014886)
(-0.000443961 0.000575263 0.0733006)
(0.000542401 -0.000544108 0.113061)
(-0.000250134 -8.57213e-05 0.112976)
(2.42676e-05 1.35789e-05 0.112786)
(1.12479e-05 5.60023e-05 0.112045)
(5.11504e-05 -4.28722e-05 0.111806)
(-1.29336e-05 -2.68896e-05 0.111886)
(-9.32873e-06 2.07897e-07 0.111985)
(-5.47014e-06 1.18296e-06 0.111999)
(-1.33177e-05 1.4017e-05 0.111927)
(3.75917e-06 1.66425e-05 0.111863)
(0.00235538 -0.0117184 0.016343)
(-0.000576319 0.000444816 0.0732427)
(0.00026327 0.0003411 0.0911222)
(0.000192577 -0.000351815 0.112747)
(-6.29876e-05 -0.000114866 0.112996)
(-5.21821e-05 2.05586e-06 0.113175)
(9.73442e-05 2.04831e-05 0.112386)
(6.593e-05 -0.000100641 0.112113)
(4.53212e-05 -7.92186e-05 0.111988)
(3.17535e-05 -0.000128028 0.111832)
(1.0188e-05 -0.000124123 0.111694)
(0.00416318 -0.00865639 0.0188035)
(-0.00139274 -0.000613769 0.0267609)
(-0.000404706 0.000384287 0.0770984)
(7.79794e-05 0.000334971 0.090114)
(0.000127275 -0.000304372 0.112565)
(-0.00016175 -9.27271e-05 0.113397)
(-0.000106761 8.85163e-05 0.113545)
(-2.74909e-05 6.1639e-05 0.11257)
(-5.53665e-05 9.31206e-05 0.112016)
(8.99245e-06 9.86136e-05 0.111821)
(-0.00215199 0.00141059 0.0295906)
(-0.00449632 0.000447576 0.0264269)
(-0.000394297 0.000323554 0.0754427)
(0.000223001 0.000260551 0.0911274)
(0.000181686 -0.000387126 0.113476)
(4.58458e-05 -0.000118078 0.114899)
(6.00903e-05 -0.000236168 0.112656)
(1.2818e-05 -0.000207125 0.112428)
(-0.00253994 0.000437474 0.0167055)
(-0.00269033 0.00157494 0.0314412)
(-0.00435987 -0.000170483 0.0265546)
(-0.000359774 0.000463909 0.0781977)
(0.000116388 0.000140817 0.0964314)
(-9.20858e-05 0.000245307 0.0914814)
(3.33125e-05 0.000231315 0.0910739)
(-0.00231048 -0.0066051 0.0220493)
(0.0030129 -0.00671376 0.0247894)
(-0.00109782 0.00152861 0.0319554)
(0.00015028 0.00149454 0.0291384)
(-0.00500922 -3.37567e-07 0.021699)
(-0.000228507 -3.34232e-05 0.0910759)
(0.000210926 -1.41089e-05 0.112435)
(-9.64676e-05 -1.16928e-05 0.111823)
(0.000127293 -1.13243e-05 0.1117)
(-1.36559e-05 -5.71869e-06 0.111863)
(9.06695e-05 -9.42767e-06 0.111977)
(2.5572e-05 -6.11202e-06 0.112033)
(7.2797e-05 -8.97129e-06 0.11209)
(3.72779e-05 -7.78912e-06 0.112126)
(5.66024e-05 -9.53193e-06 0.112171)
(3.30502e-05 -9.49226e-06 0.112207)
(3.6829e-05 -1.08062e-05 0.11225)
(1.62217e-05 -1.15561e-05 0.112285)
(1.11723e-05 -1.2326e-05 0.112313)
(-0.00470925 -0.00070808 0.0197133)
(-0.000242531 9.24874e-05 0.0914918)
(0.00023763 -6.36109e-05 0.112675)
(-9.07107e-05 5.50159e-05 0.112026)
(0.000132812 -3.45653e-05 0.111841)
(-1.06538e-05 1.21046e-05 0.11193)
(9.02657e-05 -2.05643e-05 0.112)
(2.61991e-05 -3.53876e-06 0.112035)
(7.08407e-05 -1.59428e-05 0.112083)
(3.67398e-05 -9.875e-06 0.112116)
(5.48784e-05 -1.49394e-05 0.11216)
(3.16926e-05 -1.31007e-05 0.112196)
(3.50721e-05 -1.58696e-05 0.112236)
(1.4991e-05 -1.56429e-05 0.112266)
(1.03564e-05 -1.74772e-05 0.112287)
(-0.00127802 -0.00151492 0.0103641)
(-0.000139617 -0.000116469 0.0964399)
(0.000121598 -4.45541e-05 0.114912)
(-5.85027e-05 2.4428e-05 0.112578)
(8.16353e-05 -4.68314e-05 0.111998)
(2.56194e-06 3.2232e-06 0.112004)
(7.47187e-05 -3.53489e-05 0.112021)
(3.04514e-05 -1.35101e-05 0.112031)
(6.63663e-05 -3.15131e-05 0.112067)
(3.82713e-05 -2.34614e-05 0.112097)
(5.33525e-05 -3.23555e-05 0.11214)
(3.20866e-05 -3.10674e-05 0.112175)
(3.42663e-05 -3.56974e-05 0.112212)
(1.46181e-05 -3.64249e-05 0.112236)
(9.74749e-06 -3.84482e-05 0.112251)
(-0.000459699 0.000358835 0.078201)
(0.000385585 -0.000186322 0.113485)
(-8.85268e-05 0.000103408 0.113551)
(0.000106281 -7.02744e-05 0.112123)
(1.99692e-06 6.57532e-06 0.11199)
(7.31873e-05 -3.90535e-05 0.112)
(3.00736e-05 -1.52332e-05 0.111999)
(6.06846e-05 -3.27197e-05 0.11203)
(3.5772e-05 -2.42899e-05 0.112061)
(4.72102e-05 -3.21876e-05 0.112105)
(2.83315e-05 -2.93861e-05 0.112141)
(2.97185e-05 -3.32336e-05 0.112175)
(1.22628e-05 -3.26045e-05 0.112196)
(8.42148e-06 -3.40946e-05 0.112209)
(-0.00589842 0.00142572 0.0289691)
(-0.000259566 -0.000233685 0.0911335)
(9.59428e-05 0.000162342 0.113401)
(-1.7588e-05 -0.000102005 0.112392)
(3.1402e-05 1.07993e-05 0.111892)
(5.25687e-05 -5.35363e-05 0.111913)
(3.65506e-05 -2.04187e-05 0.111931)
(5.70925e-05 -4.7644e-05 0.111971)
(3.86425e-05 -3.64888e-05 0.112014)
(4.82172e-05 -4.93249e-05 0.112064)
(3.10349e-05 -4.81914e-05 0.112104)
(3.1073e-05 -5.44726e-05 0.11214)
(1.37985e-05 -5.57511e-05 0.11216)
(8.29932e-06 -5.79619e-05 0.112172)
(-0.00326066 0.000484321 0.0180172)
(-0.000322071 0.000393176 0.0754437)
(0.000311393 -0.00013049 0.112567)
(8.32763e-07 5.06058e-05 0.11318)
(4.54293e-05 -5.50238e-05 0.11181)
(4.07151e-05 -3.17378e-05 0.111768)
(3.55494e-05 -3.18341e-05 0.111828)
(4.44107e-05 -3.70708e-05 0.111891)
(3.39601e-05 -3.48288e-05 0.111952)
(3.55096e-05 -3.96376e-05 0.112013)
(2.32316e-05 -3.67953e-05 0.112059)
(2.22329e-05 -3.93347e-05 0.112096)
(8.80196e-06 -3.76183e-05 0.112115)
(6.251e-06 -3.85011e-05 0.112127)
(-0.00885563 0.00184376 0.0307021)
(-0.000331488 -8.37312e-05 0.0901234)
(0.000117043 6.03891e-05 0.113001)
(-5.45152e-05 -1.2658e-05 0.112048)
(7.26311e-05 -4.03395e-05 0.111606)
(3.0798e-05 -2.81689e-05 0.1117)
(5.40985e-05 -5.4765e-05 0.111804)
(3.6091e-05 -4.53219e-05 0.111891)
(4.63808e-05 -5.83014e-05 0.11197)
(3.14917e-05 -6.1782e-05 0.112028)
(3.03654e-05 -6.74476e-05 0.112066)
(1.46405e-05 -7.1923e-05 0.112082)
(7.63416e-06 -7.3573e-05 0.11209)
(-0.00454371 -0.000449304 0.0192654)
(-0.000380758 0.000401895 0.0771077)
(0.000359548 -0.000198762 0.112753)
(-1.23077e-05 -2.97637e-05 0.112785)
(2.22105e-05 -9.72725e-05 0.111462)
(1.98632e-05 -2.11566e-05 0.111523)
(2.72676e-05 -3.17602e-05 0.111701)
(3.04183e-05 -3.65626e-05 0.111827)
(1.92307e-05 -3.76643e-05 0.111928)
(1.42987e-05 -3.09856e-05 0.111996)
(1.23041e-05 -3.15769e-05 0.112029)
(2.78129e-06 -2.71611e-05 0.112034)
(4.61724e-06 -2.65648e-05 0.112034)
(-0.00604226 0.000601142 0.0312802)
(-0.00033962 -0.000268215 0.0911621)
(9.05039e-05 0.000246954 0.112977)
(7.81858e-05 -7.93292e-05 0.111954)
(9.63602e-05 -2.28555e-05 0.111463)
(3.99729e-05 -7.33649e-05 0.111606)
(3.06001e-05 -4.18012e-05 0.111765)
(5.23777e-05 -5.37093e-05 0.111909)
(3.7814e-05 -7.40204e-05 0.111995)
(3.41548e-05 -7.56307e-05 0.112017)
(1.94049e-05 -9.08363e-05 0.111997)
(8.28058e-06 -9.17335e-05 0.111976)
(-0.00425927 -0.00185817 0.0148892)
(-0.000439561 0.000573733 0.0732982)
(0.000542082 -0.00054375 0.113057)
(-0.00024777 -9.08072e-05 0.112974)
(2.89192e-05 1.17261e-05 0.112783)
(1.12919e-05 5.33574e-05 0.112044)
(5.31673e-05 -4.62796e-05 0.111805)
(-1.17489e-05 -3.20291e-05 0.111886)
(-7.28505e-06 -3.06813e-06 0.111984)
(-4.16643e-06 -3.53235e-06 0.111999)
(-1.30038e-05 9.88341e-06 0.111925)
(4.23175e-06 1.24379e-05 0.111862)
(0.0023565 -0.0117208 0.0163483)
(-0.000574867 0.000440949 0.0732404)
(0.000267346 0.000339198 0.091121)
(0.000196896 -0.000361388 0.112743)
(-6.10654e-05 -0.000118442 0.112993)
(-5.12109e-05 -2.24555e-06 0.113173)
(0.00010062 1.67159e-05 0.112385)
(6.86926e-05 -0.000106868 0.112114)
(4.59464e-05 -8.24378e-05 0.111989)
(3.31789e-05 -0.000133342 0.111833)
(1.02684e-05 -0.000128294 0.111696)
(0.00416374 -0.00865833 0.0188078)
(-0.00139388 -0.000613546 0.0267693)
(-0.000402432 0.000380614 0.0770967)
(8.28213e-05 0.000330976 0.0901123)
(0.000129119 -0.000312563 0.11256)
(-0.000162534 -9.71944e-05 0.113394)
(-0.000104078 8.78404e-05 0.113541)
(-2.53509e-05 5.74409e-05 0.112566)
(-5.61117e-05 9.01637e-05 0.112014)
(1.04977e-05 9.57518e-05 0.111817)
(-0.00215154 0.00141113 0.0295969)
(-0.00449768 0.000448945 0.0264343)
(-0.000393439 0.000321676 0.0754396)
(0.000232937 0.000258084 0.0911271)
(0.000184829 -0.000387041 0.113474)
(4.376e-05 -0.00012237 0.114896)
(6.25665e-05 -0.000238468 0.112656)
(1.31095e-05 -0.000211657 0.112426)
(-0.00254051 0.000437618 0.016708)
(-0.00269027 0.00157637 0.0314471)
(-0.00436113 -0.000169228 0.0265633)
(-0.000358554 0.000458427 0.078193)
(0.000116024 0.000138452 0.0964267)
(-9.34461e-05 0.000242019 0.0914762)
(3.251e-05 0.000228439 0.09107)
(-0.0023097 -0.00660574 0.0220545)
(0.00301403 -0.00671389 0.0247966)
(-0.0010979 0.00153024 0.031964)
(0.000150498 0.00149673 0.0291469)
(-0.00501023 -3.25336e-07 0.0217038)
(-0.000224462 -3.36825e-05 0.0910742)
(0.000214039 -1.30049e-05 0.112433)
(-9.28525e-05 -1.26436e-05 0.11182)
(0.000130952 -1.14419e-05 0.111704)
(-1.07574e-05 -6.0939e-06 0.111861)
(9.44861e-05 -9.56097e-06 0.111979)
(2.74897e-05 -6.46732e-06 0.11203)
(7.54771e-05 -9.35019e-06 0.112086)
(3.87571e-05 -8.29443e-06 0.112119)
(6.05388e-05 -1.02527e-05 0.112161)
(3.58696e-05 -1.05438e-05 0.112194)
(4.11948e-05 -1.19373e-05 0.112234)
(1.96366e-05 -1.30927e-05 0.112268)
(1.32846e-05 -1.46784e-05 0.112295)
(-0.00470993 -0.000708083 0.0197178)
(-0.000237779 9.37687e-05 0.0914887)
(0.000240197 -6.5933e-05 0.112675)
(-8.82143e-05 5.60204e-05 0.112024)
(0.000137069 -3.62094e-05 0.111845)
(-7.72303e-06 1.25763e-05 0.111928)
(9.41018e-05 -2.16355e-05 0.112002)
(2.7938e-05 -3.41855e-06 0.112031)
(7.35092e-05 -1.65858e-05 0.11208)
(3.80946e-05 -9.77169e-06 0.112109)
(5.83444e-05 -1.5502e-05 0.112151)
(3.3788e-05 -1.38468e-05 0.112183)
(3.86182e-05 -1.72647e-05 0.112221)
(1.72209e-05 -1.78401e-05 0.112249)
(1.17228e-05 -2.06731e-05 0.112269)
(-0.0012782 -0.00151495 0.0103682)
(-0.000136829 -0.000116078 0.0964361)
(0.000124744 -4.27875e-05 0.11491)
(-5.38361e-05 2.20872e-05 0.112575)
(8.48886e-05 -4.72127e-05 0.112001)
(6.19084e-06 2.60936e-06 0.112004)
(7.82125e-05 -3.68081e-05 0.112023)
(3.28168e-05 -1.41701e-05 0.112029)
(6.9007e-05 -3.29962e-05 0.112065)
(3.9811e-05 -2.44415e-05 0.112091)
(5.64063e-05 -3.41499e-05 0.112132)
(3.40285e-05 -3.30637e-05 0.112164)
(3.71515e-05 -3.84486e-05 0.112198)
(1.62318e-05 -3.99115e-05 0.11222)
(1.08015e-05 -4.25954e-05 0.112235)
(-0.000452735 0.000357257 0.078196)
(0.00038567 -0.000188733 0.113484)
(-8.76778e-05 0.00010204 0.113548)
(0.000112358 -7.31773e-05 0.112126)
(3.93952e-06 5.75636e-06 0.111989)
(7.69618e-05 -4.10631e-05 0.112002)
(3.17675e-05 -1.59551e-05 0.111996)
(6.29832e-05 -3.41234e-05 0.112028)
(3.67779e-05 -2.45919e-05 0.112056)
(4.96327e-05 -3.32101e-05 0.112099)
(2.94493e-05 -3.03232e-05 0.112132)
(3.17703e-05 -3.50338e-05 0.112164)
(1.31259e-05 -3.47163e-05 0.112183)
(9.17752e-06 -3.67558e-05 0.112195)
(-0.00590027 0.0014258 0.028977)
(-0.000256043 -0.000243693 0.0911332)
(0.000100073 0.000163542 0.113399)
(-1.39037e-05 -0.000106672 0.112394)
(3.58259e-05 1.03262e-05 0.111894)
(5.60744e-05 -5.66134e-05 0.111915)
(3.94518e-05 -2.12826e-05 0.111931)
(6.00902e-05 -5.01942e-05 0.111971)
(4.05119e-05 -3.72586e-05 0.112011)
(5.06099e-05 -5.17688e-05 0.11206)
(3.21976e-05 -5.05473e-05 0.112098)
(3.28074e-05 -5.75253e-05 0.112132)
(1.46024e-05 -5.9273e-05 0.112151)
(8.98052e-06 -6.18165e-05 0.112162)
(-0.00326156 0.000484218 0.0180211)
(-0.000319731 0.000390831 0.0754431)
(0.000318591 -0.000131746 0.112563)
(5.23345e-06 4.91416e-05 0.11318)
(4.87603e-05 -5.70586e-05 0.111811)
(4.39578e-05 -3.39926e-05 0.11177)
(3.76618e-05 -3.28503e-05 0.111828)
(4.67494e-05 -3.90303e-05 0.111891)
(3.50479e-05 -3.58651e-05 0.111949)
(3.63512e-05 -4.15821e-05 0.11201)
(2.37645e-05 -3.77806e-05 0.112055)
(2.31463e-05 -4.08793e-05 0.112091)
(8.8929e-06 -3.89693e-05 0.112109)
(6.71442e-06 -4.01445e-05 0.11212)
(-0.00885843 0.00184366 0.0307118)
(-0.000326268 -8.70959e-05 0.0901237)
(0.000120038 5.891e-05 0.113)
(-5.10587e-05 -1.30061e-05 0.112049)
(7.69955e-05 -4.30125e-05 0.111611)
(3.38927e-05 -2.97458e-05 0.111702)
(5.70558e-05 -5.77992e-05 0.111807)
(3.79792e-05 -4.77807e-05 0.11189)
(4.88493e-05 -6.13605e-05 0.111969)
(3.30984e-05 -6.40336e-05 0.112026)
(3.17725e-05 -7.01767e-05 0.112064)
(1.53645e-05 -7.4482e-05 0.112079)
(8.18849e-06 -7.63607e-05 0.112087)
(-0.00454458 -0.000449676 0.0192693)
(-0.000376656 0.000399064 0.0771063)
(0.000367538 -0.000202043 0.112751)
(-1.02697e-05 -3.36362e-05 0.112783)
(2.40851e-05 -9.8579e-05 0.111463)
(2.15456e-05 -2.3533e-05 0.111523)
(2.87284e-05 -3.5437e-05 0.111703)