/*--------------------------------*- C++ -*----------------------------------*\
| =========                 |                                                 |
| \\      /  F ield         | OpenFOAM: The Open Source CFD Toolbox           |
|  \\    /   O peration     | Version:  2.1.1                                 |
|   \\  /    A nd           | Web:      www.OpenFOAM.org                      |
|    \\/     M anipulation  |                                                 |
\*---------------------------------------------------------------------------*/
FoamFile
{
    version     2.0;
    format      ascii;
    class       volScalarField;
    location    "0.004";
    object      p;
}
// * * * * * * * * * * * * * * * * * * * * * * * * * * * * * * * * * * * * * //

dimensions      [0 2 -2 0 0 0 0];

internalField   nonuniform List<scalar> 
10229
(
0.0225605
0.0229647
0.0243397
0.0200492
0.0200793
0.0199645
0.0201535
0.028588
0.0229516
0.0198189
0.0198226
0.0198599
0.0198165
0.019933
0.0200695
0.0305486
0.0231002
0.0199647
0.0199663
0.0199419
0.019972
0.0199027
0.0198962
0.0199833
0.0200835
0.0283885
0.0252108
0.019833
0.0198366
0.0198525
0.0198607
0.0198875
0.0199201
0.0198594
0.0198911
0.019936
0.0201811
0.0409549
0.0198901
0.0198949
0.01989
0.0199026
0.0198951
0.0199035
0.0199325
0.0199164
0.0199528
0.0197806
0.020164
0.0386012
0.019806
0.0198127
0.0198216
0.0198377
0.0198489
0.019877
0.0198661
0.0199013
0.0199123
0.0199528
0.0199354
0.0326522
0.019817
0.0198231
0.0198268
0.019841
0.0198475
0.0198644
0.0198766
0.0198941
0.0199031
0.0199179
0.0198926
0.0200855
0.0299844
0.0197555
0.0197644
0.0197723
0.0197915
0.0198022
0.0198326
0.0198375
0.0198807
0.0198705
0.0199344
0.0198614
0.0199853
0.0311101
0.0230637
0.0197478
0.0197551
0.0197622
0.0197814
0.0197925
0.0198199
0.0198323
0.0198653
0.0198744
0.0199038
0.0199218
0.0198984
0.0200718
0.0281631
0.0197046
0.0197129
0.0197217
0.019745
0.0197576
0.0197928
0.0198023
0.0198477
0.0198477
0.0198975
0.0198898
0.0199045
0.019935
0.0305095
0.0196912
0.0196996
0.0197084
0.0197324
0.0197455
0.0197824
0.0197928
0.0198415
0.0198372
0.0199035
0.0198622
0.0199737
0.0198179
0.020157
0.0360446
0.0196638
0.0196731
0.0196826
0.0197089
0.0197229
0.019764
0.0197739
0.0198276
0.0198215
0.0198905
0.0198539
0.019944
0.0198625
0.0199675
0.0318724
0.0196546
0.0196641
0.0196736
0.0197007
0.0197147
0.0197577
0.0197667
0.019825
0.0198133
0.019896
0.0198381
0.0199683
0.0198257
0.0200825
0.031648
0.0196452
0.019655
0.0196648
0.0196927
0.0197067
0.0197509
0.0197598
0.01982
0.0198081
0.0198924
0.0198355
0.0199676
0.019822
0.0200529
0.0309889
0.0215128
0.0219171
0.0232923
0.0190002
0.0190294
0.0189159
0.019105
0.0275417
0.021904
0.0187664
0.0187646
0.0188089
0.0187655
0.0188845
0.0190214
0.0295018
0.0220526
0.0189118
0.0189204
0.0188893
0.0189217
0.018853
0.0188457
0.0189336
0.0190364
0.0273415
0.0241647
0.0187747
0.0187796
0.018796
0.0188036
0.0188315
0.0188656
0.0188063
0.0188404
0.0188854
0.0191227
0.039819
0.018827
0.0188332
0.0188292
0.0188435
0.0188373
0.0188438
0.0188779
0.0188624
0.018904
0.0187299
0.0191254
0.0375517
0.0187359
0.0187447
0.018756
0.0187733
0.0187837
0.0188082
0.0188076
0.0188473
0.0188587
0.0189051
0.018887
0.0316058
0.0187411
0.0187484
0.0187539
0.0187705
0.018779
0.0187983
0.0188169
0.0188362
0.0188492
0.0188648
0.0188426
0.0190388
0.0289376
0.0186726
0.0186813
0.0186914
0.018714
0.0187279
0.0187627
0.0187713
0.0188196
0.0188135
0.018882
0.0188092
0.0189359
0.0300628
0.0220161
0.0186576
0.0186659
0.0186752
0.0186979
0.0187131
0.0187458
0.0187636
0.0188028
0.0188223
0.0188485
0.0188679
0.0188482
0.0190238
0.0271161
0.0186065
0.0186163
0.0186277
0.0186549
0.0186721
0.0187134
0.0187286
0.0187806
0.0187865
0.0188396
0.0188334
0.0188551
0.0188867
0.0294626
0.0185873
0.0185974
0.0186089
0.0186374
0.0186554
0.0186987
0.0187147
0.0187701
0.0187695
0.0188432
0.018805
0.0189237
0.018768
0.0191076
0.0349996
0.0185545
0.0185654
0.0185781
0.0186093
0.0186286
0.0186763
0.0186922
0.0187529
0.0187503
0.0188281
0.0187974
0.0188915
0.0188115
0.0189186
0.0308259
0.0185416
0.018553
0.018566
0.0185984
0.0186178
0.0186677
0.0186827
0.0187482
0.0187407
0.018833
0.0187813
0.0189234
0.0187666
0.0190322
0.0306007
0.0185305
0.0185419
0.0185553
0.0185886
0.0186084
0.0186598
0.018675
0.0187427
0.018736
0.0188286
0.0187772
0.0189148
0.0187695
0.0190037
0.0299416
0.0204696
0.020874
0.0222494
0.0179564
0.0179852
0.0178716
0.0180615
0.0264998
0.0208607
0.0177178
0.0177166
0.0177624
0.0177169
0.0178399
0.017977
0.0284595
0.0210094
0.0178614
0.0178708
0.0178387
0.0178749
0.017805
0.0177993
0.0178878
0.0179932
0.0262986
0.0231211
0.0177176
0.0177226
0.0177408
0.0177485
0.0177793
0.0178146
0.0177574
0.017793
0.0178392
0.0180762
0.0387846
0.0177642
0.0177707
0.0177677
0.0177849
0.0177816
0.0177901
0.0178286
0.0178128
0.0178585
0.0176834
0.0180837
0.0365145
0.017662
0.0176707
0.0176842
0.0177052
0.0177248
0.0177542
0.0177531
0.0177954
0.0178081
0.01786
0.0178417
0.0305643
0.0176624
0.0176701
0.0176777
0.0176981
0.0177114
0.0177355
0.0177574
0.01778
0.0177975
0.0178157
0.0177958
0.0179959
0.0278955
0.0175848
0.0175945
0.017607
0.0176335
0.0176517
0.0176921
0.0177052
0.0177588
0.0177562
0.0178332
0.0177608
0.0178903
0.0290197
0.0209728
0.0175622
0.017572
0.0175838
0.0176108
0.0176307
0.0176695
0.0176927
0.0177369
0.0177556
0.0177907
0.0178166
0.0178019
0.0179795
0.0260736
0.0175021
0.0175136
0.017528
0.0175601
0.0175826
0.0176309
0.0176523
0.0177114
0.0177203
0.0177816
0.017781
0.0178072
0.0178422
0.0284202
0.0174762
0.0174882
0.017503
0.0175369
0.0175606
0.0176115
0.0176344
0.0176996
0.0177099
0.0177866
0.0177502
0.0178769
0.0177192
0.0180643
0.0339582
0.0174367
0.0174497
0.0174662
0.0175032
0.0175288
0.0175847
0.0176081
0.0176788
0.0176862
0.017769
0.0177426
0.0178407
0.0177651
0.0178741
0.0297838
0.0174196
0.0174334
0.0174503
0.0174891
0.0175149
0.0175734
0.0175959
0.0176712
0.0176718
0.017772
0.0177245
0.0178732
0.0177192
0.0179881
0.0295581
0.0174057
0.0174199
0.0174374
0.0174771
0.0175038
0.0175638
0.0175867
0.0176636
0.0176634
0.0177658
0.0177201
0.0178641
0.0177209
0.0179597
0.0288984
0.0194319
0.0198362
0.0212116
0.0169172
0.0169461
0.0168321
0.0170231
0.0254631
0.0198227
0.0166734
0.0166722
0.0167203
0.0166722
0.0167991
0.0169375
0.0274222
0.0199711
0.0168145
0.0168249
0.0167921
0.0168321
0.0167611
0.016757
0.016846
0.0169541
0.0252607
0.022084
0.0166622
0.0166675
0.0166879
0.016696
0.016732
0.0167659
0.0167115
0.0167498
0.0167988
0.017048
0.0378022
0.0167035
0.0167107
0.0167081
0.0167282
0.0167266
0.0167395
0.0167788
0.016766
0.0168173
0.0166414
0.0170342
0.0354777
0.0165918
0.0166004
0.0166151
0.0166379
0.0166583
0.0166951
0.0166982
0.0167449
0.0167605
0.0168179
0.016799
0.0295268
0.0165824
0.0165911
0.0166005
0.0166243
0.0166411
0.0166709
0.0166977
0.0167258
0.0167483
0.0167692
0.0167526
0.0169569
0.0268583
0.0164927
0.0165037
0.016519
0.0165498
0.016573
0.0166198
0.0166387
0.0166994
0.0167019
0.0167825
0.0167151
0.0168486
0.0279814
0.0199345
0.0164612
0.0164727
0.0164876
0.0165196
0.0165448
0.0165911
0.0166206
0.0166727
0.0166977
0.0167422
0.016769
0.0167599
0.01694
0.0250366
0.0163905
0.016404
0.016422
0.0164598
0.0164886
0.0165451
0.0165738
0.0166424
0.0166594
0.0167281
0.0167331
0.0167631
0.0168013
0.0273826
0.0163569
0.0163712
0.0163898
0.0164302
0.0164604
0.0165204
0.016551
0.0166257
0.0166397
0.0167297
0.0166976
0.016834
0.0166745
0.0170256
0.0329227
0.0163094
0.0163252
0.016346
0.0163899
0.0164227
0.0164883
0.0165201
0.0166014
0.0166167
0.0167095
0.0166898
0.0167939
0.0167229
0.0168344
0.0287471
0.0162878
0.0163043
0.0163259
0.016372
0.0164053
0.016474
0.0165052
0.0165926
0.016602
0.0167124
0.0166696
0.0168272
0.0166747
0.016949
0.0285206
0.01627
0.0162876
0.0163101
0.0163575
0.016392
0.0164623
0.0164944
0.0165835
0.0165935
0.0167051
0.0166649
0.016817
0.0166766
0.0169202
0.0278606
0.0183998
0.0188042
0.0201796
0.0158831
0.0159127
0.0157978
0.0159905
0.0244327
0.0187906
0.0156337
0.0156319
0.0156829
0.0156322
0.0157635
0.0159027
0.0263908
0.0189388
0.0157717
0.015783
0.0157495
0.0157936
0.0157211
0.0157204
0.0158092
0.0159199
0.0242283
0.021051
0.0156085
0.0156142
0.0156371
0.0156453
0.0156854
0.0157234
0.0156706
0.0157108
0.0157589
0.0159932
0.0366721
0.0156435
0.0156517
0.0156498
0.0156734
0.0156734
0.0156906
0.0157326
0.0157226
0.0157783
0.0156033
0.0160186
0.0344521
0.015518
0.0155277
0.015545
0.0155707
0.0155953
0.0156364
0.0156388
0.0156933
0.0157159
0.0157821
0.0157642
0.028497
0.0154995
0.0155098
0.015521
0.0155493
0.0155704
0.0156059
0.0156377
0.015674
0.0157076
0.0157286
0.0157145
0.015923
0.0258266
0.0153956
0.0154084
0.015427
0.0154627
0.0154916
0.015546
0.0155716
0.0156423
0.0156554
0.015739
0.0156742
0.0158116
0.0269494
0.0189023
0.015354
0.0153675
0.015386
0.0154239
0.0154553
0.0155101
0.0155471
0.0156091
0.0156421
0.0156946
0.015726
0.015723
0.0159048
0.0240051
0.0152713
0.015287
0.0153092
0.0153536
0.0153894
0.0154554
0.0154926
0.0155721
0.0155975
0.0156756
0.015687
0.0157229
0.0157654
0.026351
0.0152283
0.0152452
0.0152687
0.015316
0.0153541
0.0154247
0.0154639
0.0155506
0.0155723
0.0156748
0.0156469
0.0157953
0.0156342
0.0159927
0.0318935
0.0151721
0.015191
0.0152168
0.0152686
0.0153098
0.0153866
0.015428
0.0155219
0.0155465
0.015651
0.015639
0.0157512
0.0156854
0.0158
0.0277162
0.0151443
0.0151643
0.0151916
0.015246
0.0152883
0.0153688
0.01541
0.0155112
0.0155295
0.0156534
0.0156162
0.0157852
0.0156343
0.0159152
0.0274887
0.0151226
0.0151441
0.0151727
0.0152288
0.0152725
0.0153551
0.0153972
0.0155006
0.01552
0.0156448
0.0156111
0.0157738
0.0156368
0.0158859
0.0268289
0.0173741
0.0177788
0.0191544
0.014855
0.0148853
0.0147695
0.014965
0.0234093
0.0177652
0.0145991
0.0145964
0.0146514
0.0145981
0.014734
0.0148735
0.0253663
0.0179129
0.0147329
0.0147456
0.0147112
0.0147592
0.0146861
0.0146893
0.0147778
0.0148919
0.0232024
0.0200267
0.0145564
0.0145623
0.0145889
0.0145972
0.0146437
0.0146851
0.0146348
0.0146776
0.0147303
0.0149984
0.0358196
0.0145837
0.0145936
0.0145925
0.0146211
0.014623
0.0146461
0.0146941
0.0146887
0.0147496
0.0145709
0.0149618
0.0334278
0.0144424
0.0144532
0.0144738
0.014503
0.0145337
0.0145828
0.014596
0.0146628
0.0146748
0.0147462
0.0147283
0.0274711
0.0144122
0.0144245
0.0144383
0.0144722
0.0144983
0.0145425
0.0145822
0.0146243
0.0146511
0.014688
0.0146798
0.0148955
0.0248022
0.0142934
0.0143081
0.0143304
0.0143718
0.0144073
0.0144707
0.0145033
0.0145823
0.0145962
0.0146956
0.0146376
0.0147796
0.0259241
0.0178767
0.0142394
0.0142552
0.0142777
0.014322
0.0143609
0.014425
0.0144714
0.0145439
0.0145849
0.0146482
0.0146866
0.0146911
0.0148751
0.0229806
0.0141442
0.0141624
0.014189
0.0142405
0.0142843
0.0143611
0.014408
0.0144994
0.0145352
0.0146244
0.0146444
0.0146873
0.0147354
0.025327
0.014091
0.0141105
0.0141391
0.014194
0.0142412
0.0143227
0.014373
0.0144735
0.0145045
0.0146221
0.0145982
0.0147611
0.0145993
0.0149669
0.0308718
0.0140252
0.0140472
0.0140788
0.014139
0.0141896
0.0142781
0.0143313
0.0144392
0.0144749
0.0145935
0.0145905
0.0147126
0.0146534
0.0147713
0.0266927
0.0139901
0.0140139
0.0140478
0.0141111
0.0141635
0.0142564
0.0143097
0.0144259
0.0144548
0.0145952
0.0145644
0.0147474
0.0145987
0.0148876
0.0264642
0.0139638
0.0139898
0.0140256
0.0140911
0.0141451
0.0142403
0.0142948
0.0144133
0.014444
0.0145847
0.0145589
0.0147344
0.0146018
0.0148577
0.025804
0.0163567
0.0167615
0.0181371
0.0138336
0.0138649
0.0137474
0.0139469
0.0223937
0.0167472
0.0135703
0.013566
0.0136256
0.0135667
0.0137105
0.013851
0.0243494
0.0168944
0.0136975
0.0137119
0.0136771
0.0137329
0.0136574
0.0136655
0.0137526
0.0138693
0.022183
0.0190063
0.0135038
0.0135094
0.0135437
0.0135567
0.0136082
0.0136522
0.0136081
0.0136437
0.0136934
0.0139272
0.03455
0.013522
0.0135341
0.0135344
0.0135704
0.0135751
0.0136039
0.0136568
0.0136518
0.0137169
0.0135423
0.0139877
0.0324206
0.013365
0.013377
0.0134009
0.0134349
0.0134716
0.013529
0.0135453
0.0136155
0.0136382
0.0137262
0.0137085
0.0264572
0.0133199
0.0133343
0.0133512
0.0133912
0.0134235
0.0134763
0.0135246
0.0135754
0.0136163
0.0136596
0.0136559
0.0138756
0.0237854
0.0131854
0.0132022
0.0132284
0.0132764
0.0133188
0.0133924
0.0134336
0.0135249
0.0135466
0.0136573
0.0136025
0.0137526
0.024906
0.0168589
0.0131177
0.0131358
0.0131627
0.013214
0.0132611
0.0133355
0.0133929
0.0134771
0.0135301
0.0136048
0.0136524
0.0136644
0.0138519
0.0219644
0.0130093
0.0130301
0.0130616
0.0131206
0.0131732
0.0132612
0.0133193
0.0134242
0.0134725
0.0135754
0.0136079
0.0136576
0.0137116
0.0243107
0.0129451
0.0129674
0.0130015
0.0130645
0.0131212
0.0132145
0.0132773
0.0133923
0.0134361
0.0135711
0.0135568
0.0137339
0.0135683
0.0139488
0.0298588
0.0128698
0.0128948
0.0129325
0.0130012
0.013062
0.013163
0.0132292
0.0133519
0.0134019
0.0135353
0.0135451
0.0136783
0.0136276
0.013749
0.025678
0.012827
0.0128544
0.0128954
0.012968
0.0130312
0.013137
0.0132037
0.0133356
0.0133784
0.0135356
0.0135114
0.0137136
0.0135681
0.0138673
0.0254481
0.0127966
0.0128263
0.0128699
0.012945
0.0130101
0.0131184
0.0131866
0.0133208
0.0133659
0.0135221
0.0135046
0.0136981
0.0135724
0.0138359
0.0247874
0.0153486
0.0157534
0.0171288
0.0128193
0.012852
0.0127323
0.0129359
0.0213868
0.0157374
0.0125483
0.0125421
0.0126065
0.0125438
0.0126926
0.012835
0.0233408
0.0158842
0.0126669
0.0126836
0.012646
0.0127063
0.0126327
0.0126444
0.0127306
0.0128546
0.0211722
0.0179995
0.0124601
0.0124656
0.0124975
0.0125048
0.0125774
0.012624
0.0125761
0.0126206
0.012675
0.0129915
0.0339315
0.0124594
0.0124734
0.0124742
0.0125148
0.0125271
0.0125639
0.0126208
0.0126247
0.0126817
0.0125195
0.0129112
0.0314113
0.0122843
0.0122981
0.0123251
0.0123653
0.0124069
0.0124736
0.0124971
0.0125764
0.0126051
0.012721
0.0126789
0.025446
0.0122219
0.0122387
0.0122593
0.0123061
0.0123453
0.0124078
0.0124657
0.0125275
0.0125791
0.0126318
0.0126346
0.0128613
0.0227767
0.0120712
0.0120903
0.0121206
0.0121755
0.0122255
0.0123098
0.0123611
0.0124661
0.0124986
0.0126222
0.0125794
0.012733
0.0238966
0.0158493
0.011989
0.0120095
0.0120409
0.0120995
0.0121552
0.012241
0.0123102
0.0124084
0.0124743
0.0125641
0.0126227
0.0126466
0.0128366
0.0209564
0.0118673
0.0118907
0.0119271
0.0119937
0.0120554
0.0121551
0.0122258
0.0123456
0.0124072
0.0125266
0.0125759
0.012633
0.0126938
0.0233024
0.0117919
0.0118172
0.0118566
0.0119276
0.0119942
0.0120999
0.0121762
0.0123068
0.0123661
0.0125158
0.0125069
0.0127077
0.0125455
0.0129376
0.0288564
0.0117075
0.0117354
0.0117789
0.0118562
0.0119273
0.0120411
0.0121211
0.0122597
0.0123259
0.0124749
0.012499
0.0126471
0.0126084
0.0127339
0.0246729
0.0116597
0.0116888
0.0117359
0.0118176
0.0118918
0.0120105
0.0120916
0.01224
0.0122993
0.0124747
0.0124672
0.0126851
0.0125442
0.0128542
0.0244407
0.011629
0.0116591
0.0117076
0.0117919
0.0118679
0.0119893
0.0120721
0.0122226
0.0122849
0.0124594
0.0124608
0.0126678
0.0125504
0.0128214
0.0237804
0.014351
0.014756
0.0161308
0.0118124
0.0118468
0.0117245
0.0119326
0.0203898
0.014737
0.0115338
0.0115262
0.0115944
0.0115287
0.0116804
0.0118262
0.0223412
0.0148828
0.0116385
0.0116583
0.0116196
0.0116874
0.01161
0.0116276
0.0117151
0.0118483
0.0201699
0.0169952
0.0114148
0.0114218
0.0114571
0.0114741
0.0115339
0.0115961
0.0115547
0.0116092
0.0116467
0.0118818
0.0323929
0.0113937
0.0114103
0.0114139
0.0114612
0.0114759
0.0115233
0.011586
0.0116023
0.0116798
0.0114978
0.012003
0.0304278
0.011199
0.011215
0.0112452
0.011292
0.0113395
0.0114168
0.0114497
0.0115403
0.0115726
0.0116922
0.0116668
0.0244496
0.0111178
0.0111371
0.0111615
0.0112154
0.0112622
0.011336
0.0114037
0.0114794
0.011542
0.0116072
0.0116134
0.0118513
0.021777
0.0109504
0.0109719
0.0110061
0.0110683
0.0111261
0.0112221
0.0112847
0.0114037
0.0114503
0.0115865
0.0115553
0.0117148
0.0228957
0.0148486
0.0108536
0.0108766
0.0109123
0.0109783
0.0110427
0.0111405
0.0112223
0.0113363
0.011417
0.011523
0.011596
0.0116295
0.0118275
0.0199585
0.0107199
0.0107455
0.0107861
0.0108601
0.0109307
0.0110425
0.0111263
0.0112622
0.0113394
0.0114755
0.0115338
0.0116106
0.0116813
0.0223043
0.0106346
0.0106622
0.0107061
0.0107845
0.0108605
0.0109787
0.0110689
0.0112159
0.0112928
0.0114619
0.0114751
0.0116886
0.0115304
0.0119343
0.0278658
0.0105445
0.0105737
0.0106203
0.0107054
0.0107862
0.0109123
0.0110064
0.0111619
0.0112458
0.0114144
0.0114581
0.0116206
0.011596
0.011726
0.0236783
0.0104976
0.0105267
0.0105741
0.0106626
0.0107465
0.0108775
0.0109732
0.0111382
0.0112163
0.0114115
0.0114233
0.0116598
0.0115283
0.011849
0.0234444
0.0104675
0.0104971
0.0105447
0.0106344
0.01072
0.0108537
0.010951
0.0111184
0.0111997
0.0113939
0.0114156
0.0116396
0.011536
0.0118145
0.0227841
0.0133655
0.0137707
0.0151441
0.0108125
0.0108496
0.0107237
0.0109379
0.0194038
0.0137468
0.0105277
0.0105187
0.0105894
0.010521
0.0106734
0.010826
0.0213514
0.0138908
0.0106103
0.0106338
0.0105946
0.0106713
0.0105942
0.0106183
0.0107034
0.0108476
0.0191782
0.0160114
0.0103683
0.0103772
0.0104144
0.010438
0.0104962
0.0105736
0.0105349
0.0106004
0.0106529
0.0110288
0.0321724
0.0103232
0.0103427
0.0103492
0.0104038
0.0104234
0.0104816
0.010552
0.0105848
0.0106772
0.0104936
0.0108698
0.0294319
0.0101078
0.0101263
0.0101593
0.0102136
0.0102665
0.0103569
0.0103977
0.010506
0.010541
0.0106703
0.0106302
0.0234502
0.010007
0.0100287
0.0100568
0.0101181
0.0101724
0.0102587
0.0103372
0.0104287
0.0105052
0.0105825
0.010602
0.0108468
0.0207868
0.0098232
0.00984711
0.00988475
0.0099541
0.0100194
0.0101277
0.0102017
0.0103368
0.0103967
0.0105498
0.0105329
0.0107015
0.0219042
0.013858
0.00971313
0.00973851
0.00977766
0.00985063
0.00992305
0.010033
0.0101277
0.0102585
0.0103563
0.0104804
0.0105722
0.0106181
0.0108266
0.0189714
0.00956954
0.0095972
0.00964097
0.00972111
0.00979943
0.00992297
0.0100194
0.0101722
0.0102662
0.010423
0.0104957
0.0105944
0.0106739
0.0213173
0.00947984
0.00950764
0.00955324
0.00963706
0.00972142
0.00985106
0.00995458
0.0101186
0.0102142
0.0104042
0.0104389
0.0106722
0.0105225
0.0109395
0.0268886
0.0093924
0.00942067
0.00946594
0.00955243
0.00964106
0.00977769
0.00988508
0.010057
0.0101597
0.0103497
0.0104151
0.0105954
0.0105908
0.0107249
0.0226969
0.00934842
0.00937594
0.00942122
0.00950795
0.00959805
0.0097394
0.00984838
0.0100299
0.0101276
0.010344
0.0103789
0.0106355
0.0105207
0.0108518
0.0224611
0.00931976
0.00934784
0.00939249
0.00947959
0.00956956
0.0097133
0.00982363
0.0100073
0.0101083
0.0103238
0.0103692
0.0106114
0.0105298
0.0108145
0.0218005
0.0123932
0.0127991
0.01417
0.00981948
0.00986012
0.00972922
0.0099522
0.0184298
0.0127674
0.00952691
0.00951793
0.00958868
0.00952072
0.0096693
0.00983309
0.0203718
0.0129084
0.00958183
0.00960842
0.00956973
0.00965587
0.00958112
0.00961092
0.00969782
0.00985426
0.0181932
0.0150236
0.00931734
0.00932901
0.00936692
0.00940014
0.00945495
0.00955356
0.00951932
0.00961564
0.00960059
0.00986237
0.0302076
0.00924565
0.00926802
0.00927742
0.00933976
0.00936594
0.00943628
0.00951697
0.00956796
0.00965599
0.00949068
0.0100217
0.0284736
0.00900841
0.00902957
0.00906492
0.00912759
0.00918497
0.00929041
0.00933869
0.00946528
0.00950874
0.00966696
0.00964925
0.0224789
0.00888884
0.00891289
0.0089441
0.00901264
0.00907406
0.00917318
0.00926297
0.00937262
0.00946427
0.0095582
0.00957665
0.00984378
0.0198082
0.00869105
0.00871677
0.00875682
0.00883268
0.00890397
0.0090245
0.00910934
0.00926245
0.00933645
0.00950895
0.00950319
0.00969095
0.0209234
0.0128789
0.00857099
0.00859802
0.00863939
0.00871781
0.00879646
0.00891759
0.00902438
0.00917268
0.00928904
0.0094334
0.00954963
0.00960897
0.0098334
0.0179963
0.00842446
0.00845178
0.00849552
0.00857943
0.00866296
0.00879639
0.00890383
0.00907373
0.00918437
0.00936513
0.00945432
0.00958105
0.00966964
0.0203418
0.00834101
0.0083673
0.00840978
0.0084924
0.00857944
0.00871813
0.0088331
0.00901313
0.00912805
0.00934031
0.00940095
0.00965675
0.00952206
0.00995375
0.0259279
0.00825965
0.00828579
0.00832696
0.00840941
0.00849546
0.00863941
0.00875703
0.00894422
0.00906525
0.0092778
0.00936742
0.00957026
0.00958962
0.00973021
0.0217298
0.00822089
0.008246
0.00828646
0.00836765
0.0084526
0.00859891
0.00871794
0.00891403
0.00903097
0.00926938
0.00933058
0.00961005
0.0095197
0.00986222
0.0214907
0.00819434
0.00822033
0.00825972
0.00834072
0.00842454
0.0085711
0.00869125
0.00888898
0.00900881
0.0092463
0.00931824
0.00958298
0.0095287
0.00982131
0.0208302
0.0114367
0.0118428
0.0132098
0.00883213
0.00887717
0.00874104
0.00897285
0.0174692
0.0117992
0.0085285
0.00852048
0.00858938
0.00852881
0.00866351
0.00884447
0.0194016
0.0119339
0.0085505
0.00858015
0.00854265
0.00863631
0.00856704
0.00860242
0.00868739
0.00885378
0.0172168
0.0140574
0.00825879
0.00827341
0.00831084
0.00835495
0.00840795
0.0085257
0.00848735
0.00859006
0.00861917
0.00905352
0.030418
0.00815913
0.00818406
0.00819609
0.00826623
0.00829892
0.00838179
0.00846971
0.00854126
0.00865611
0.00849756
0.00885836
0.0275103
0.00789979
0.00792359
0.00796024
0.0080313
0.00809208
0.008213
0.00826815
0.00841661
0.00846559
0.00864778
0.00860117
0.0214999
0.00776441
0.00779053
0.00782373
0.00789853
0.00796554
0.00807727
0.00817774
0.00830738
0.00841443
0.00853546
0.00858342
0.00885028
0.0188418
0.0075567
0.00758405
0.00762478
0.00770549
0.00778022
0.00791178
0.0080054
0.0081771
0.00826615
0.0084657
0.00848211
0.00868455
0.019956
0.011912
0.00743692
0.00746285
0.00750279
0.00758337
0.00766527
0.00779494
0.0079115
0.00807673
0.00821178
0.00837987
0.0085236
0.00860201
0.00884602
0.0170352
0.00730114
0.00732608
0.00736495
0.00744452
0.00752565
0.00766511
0.00778004
0.00796518
0.00809141
0.00829817
0.00840734
0.00856756
0.00866474
0.0193806
0.00722896
0.00725233
0.00728912
0.00736506
0.0074448
0.00758369
0.00770596
0.00789892
0.00803177
0.00826676
0.0083555
0.00863697
0.00852949
0.00897411
0.0249864
0.00715721
0.00718021
0.00721491
0.00728873
0.00736487
0.0075028
0.00762488
0.00782387
0.00796049
0.00819639
0.00831115
0.00854273
0.00858937
0.00874159
0.0207781
0.00712516
0.00714702
0.00718091
0.00725267
0.00732696
0.00746375
0.00758529
0.00779181
0.00792513
0.00818562
0.00827504
0.00858164
0.00852207
0.00887908
0.0205349
0.00710148
0.0071245
0.00715721
0.00722853
0.00730099
0.0074368
0.00755696
0.0077648
0.00790023
0.00815959
0.00825939
0.00855113
0.00852985
0.00883357
0.0198749
0.0104974
0.0109036
0.0122644
0.00784614
0.00789551
0.00775558
0.00799409
0.016523
0.0108414
0.00752394
0.00751918
0.00758252
0.00754181
0.00764288
0.00785294
0.0184392
0.0109641
0.00750827
0.00754108
0.00750522
0.00760481
0.00754222
0.00758626
0.00766918
0.00784678
0.016245
0.0130877
0.00718415
0.0072021
0.00723756
0.00729335
0.00734414
0.0074799
0.00744638
0.00757056
0.00757413
0.00785402
0.0282948
0.00705782
0.00708513
0.00709862
0.00717603
0.00721378
0.00731063
0.00740617
0.0074971
0.00762434
0.0074923
0.00803863
0.0265841
0.00677874
0.0068045
0.00684056
0.00691918
0.00698122
0.00711737
0.00717759
0.00734987
0.00740327
0.00763405
0.00759042
0.0205445
0.00663386
0.00666111
0.00669443
0.0067734
0.00684293
0.00696576
0.00707443
0.00722417
0.00734915
0.00749726
0.00756798
0.00784653
0.0178864
0.00642838
0.00645397
0.00649081
0.00657229
0.00664685
0.0067863
0.00688473
0.00707405
0.00717658
0.00740459
0.00744397
0.00766898
0.0190031
0.0109568
0.00632626
0.00634916
0.0063827
0.00645649
0.00653226
0.00666417
0.00678583
0.00696527
0.00711638
0.00730958
0.00747922
0.00758794
0.00785761
0.0160873
0.00620793
0.00622917
0.00626028
0.00633055
0.00639951
0.00653216
0.00664676
0.00684261
0.00698059
0.00721336
0.00734389
0.0075449
0.00765268
0.0184341
0.00615196
0.0061715
0.00620027
0.00626516
0.00633087
0.00645686
0.0065727
0.00677382
0.00691967
0.00717662
0.00729402
0.00760408
0.00753439
0.00799413
0.0240659
0.0060923
0.00611123
0.0061378
0.00619985
0.00626023
0.00638258
0.0064908
0.00669447
0.00684065
0.00709891
0.00723763
0.00750438
0.00757995
0.00775527
0.0198439
0.00606841
0.00608624
0.00611202
0.00617191
0.00623009
0.00635008
0.00645525
0.0066625
0.00680609
0.00708685
0.00720381
0.00754258
0.00752051
0.0078975
0.0195947
0.00604862
0.00606761
0.0060922
0.00615151
0.00620766
0.00632592
0.0064283
0.00663374
0.00677872
0.00705805
0.00718451
0.00750871
0.00752521
0.00784725
0.0189354
0.00957959
0.00998722
0.0113393
0.00685834
0.006914
0.00676784
0.00701104
0.0155982
0.00989686
0.00651038
0.00650883
0.00655807
0.00653441
0.00661651
0.00685585
0.0174884
0.00999505
0.00645381
0.00648981
0.00645295
0.00655742
0.00650396
0.00655142
0.0066336
0.00681931
0.0152797
0.0121395
0.00609101
0.00611239
0.00614308
0.0062124
0.00625709
0.00641635
0.00638466
0.0065342
0.00654537
0.00702975
0.0284606
0.00594409
0.00597322
0.00598527
0.00606869
0.0061081
0.00621934
0.00632111
0.00643779
0.00659416
0.00649248
0.006868
0.0256741
0.00565099
0.0056783
0.00571089
0.00579512
0.00585359
0.00600443
0.00606569
0.00626503
0.00631845
0.00658492
0.00652703
0.0195916
0.0055164
0.00554062
0.00556729
0.00564522
0.00571215
0.0058431
0.00595464
0.00612305
0.00626302
0.00643607
0.00653773
0.00682147
0.0169492
0.00533659
0.00535812
0.00538509
0.00545743
0.00551848
0.00565652
0.00575207
0.00595448
0.00606481
0.00632098
0.00638574
0.00663509
0.0180744
0.010013
0.00526224
0.00528049
0.00530399
0.00536593
0.00542459
0.00554375
0.00565624
0.00584268
0.00600361
0.00621916
0.00641645
0.00655313
0.0068586
0.0151557
0.00516794
0.00518451
0.00520535
0.00526186
0.00531092
0.00542448
0.00551833
0.0057119
0.00585314
0.00610792
0.00625699
0.00650543
0.00661864
0.017507
0.00513134
0.00514623
0.00516536
0.00521633
0.0052622
0.00536625
0.0054578
0.00564576
0.00579558
0.00606951
0.00621333
0.00655865
0.00653519
0.00701325
0.0231784
0.00508558
0.00509992
0.00511687
0.00516492
0.00520529
0.00530379
0.00538514
0.00556731
0.00571107
0.00598569
0.00614341
0.00645315
0.00655833
0.00676858
0.0189343
0.00507107
0.00508423
0.00510066
0.00514663
0.00518533
0.00528133
0.0053593
0.00554199
0.00567996
0.0059751
0.00611435
0.00649201
0.00651085
0.006917
0.0186777
0.00505599
0.00507015
0.00508537
0.00513078
0.00516761
0.00526173
0.00533629
0.00551607
0.00565081
0.00594409
0.00609104
0.00645391
0.00651139
0.00685903
0.0180215
0.00867754
0.00909147
0.0104298
0.00585048
0.00591926
0.00576255
0.00600014
0.0146996
0.00895884
0.00548036
0.00548306
0.00551763
0.00551066
0.00554233
0.0058143
0.0165435
0.00900555
0.00540149
0.00544212
0.00539931
0.00550828
0.0054476
0.00548832
0.00554389
0.00573135
0.0143073
0.0111838
0.0050003
0.00502459
0.00504619
0.00512889
0.00515576
0.00534212
0.00529845
0.00547079
0.00542594
0.00586836
0.0267482
0.00484929
0.00487917
0.0048857
0.00497233
0.00500334
0.00512458
0.00522061
0.00536084
0.00552271
0.00545092
0.00594791
0.0248044
0.00455988
0.00458353
0.00460414
0.00468869
0.00473606
0.00489942
0.00494809
0.00516907
0.00520343
0.00552811
0.00543686
0.0186689
0.00446184
0.00448134
0.00449594
0.00456339
0.00461192
0.00473985
0.00484333
0.00502392
0.00516702
0.00536053
0.00546839
0.00573342
0.0160352
0.00431317
0.00432984
0.00434461
0.00440476
0.00444361
0.00456609
0.0046394
0.00484333
0.00494712
0.00522015
0.00529727
0.00554459
0.017182
0.00906714
0.00426988
0.0042835
0.00429618
0.00434447
0.00438157
0.00448054
0.00456582
0.00473943
0.00489826
0.00512431
0.00534147
0.00548952
0.00581594
0.0142374
0.00419974
0.00421164
0.00422197
0.00426448
0.004292
0.00438153
0.00444338
0.00461175
0.00473557
0.0050033
0.00515568
0.00544871
0.00554366
0.0166173
0.00418279
0.00419306
0.00420226
0.00423914
0.00426487
0.0043447
0.00440518
0.00456401
0.00468919
0.00497349
0.0051301
0.00551064
0.00551298
0.00600366
0.0223324
0.00415156
0.00416111
0.00416816
0.00420178
0.00422178
0.00429589
0.00434451
0.00449588
0.00460425
0.00488615
0.00504686
0.00540033
0.00551928
0.00576431
0.0180525
0.00414651
0.00415493
0.00416174
0.00419338
0.00421234
0.00428423
0.00433097
0.0044828
0.00458533
0.0048815
0.00502715
0.00544535
0.00548626
0.00592394
0.0177885
0.00413633
0.00414557
0.00415105
0.00418195
0.00419918
0.00426907
0.00431259
0.00446135
0.0045595
0.00484892
0.00500002
0.00540124
0.00548115
0.00585066
0.0171418
0.00776388
0.00819191
0.00951371
0.00463413
0.00472647
0.00453901
0.00482121
0.0137877
0.00800095
0.00418667
0.00418676
0.00419365
0.0041987
0.00419392
0.00456843
0.0155796
0.00793194
0.00408537
0.00412658
0.0040624
0.0041757
0.00409232
0.00413027
0.00417489
0.00442464
0.0132727
0.0102205
0.00363822
0.00366149
0.00366558
0.00375874
0.00375827
0.0039876
0.00392406
0.00413772
0.00406186
0.00471836
0.0261121
0.00351565
0.00353628
0.0035207
0.00360134
0.00361687
0.00375288
0.00384186
0.00402462
0.00421658
0.00416768
0.00481531
0.0240543
0.00327148
0.00328758
0.00328768
0.00335881
0.00337322
0.00353701
0.00356329
0.00381158
0.00381398
0.00422297
0.00407201
0.0177417
0.00322945
0.00324123
0.00323829
0.00328831
0.0033073
0.00341447
0.00348712
0.00366925
0.00380823
0.00402287
0.00413125
0.00442495
0.0151453
0.00312665
0.00313684
0.00313638
0.0031786
0.00318664
0.00328162
0.0033116
0.00348675
0.00356173
0.00384066
0.0039207
0.00417427
0.0163346
0.00812028
0.0031214
0.0031291
0.00312897
0.00315988
0.00316997
0.00323832
0.00328111
0.003414
0.00353525
0.00375213
0.00398601
0.00413089
0.00456928
0.0132962
0.0030794
0.00308597
0.00308477
0.00311043
0.00311226
0.00316989
0.00318638
0.00330706
0.00337243
0.00361677
0.00375785
0.00409332
0.00419483
0.01573
0.00308281
0.00308819
0.00308719
0.0031084
0.00311081
0.00316016
0.00317896
0.00328894
0.00335941
0.00360279
0.00376034
0.00417876
0.00420195
0.00482608
0.0214995
0.00306589
0.00307076
0.00306833
0.00308671
0.00308455
0.00312869
0.00313608
0.00323821
0.00328766
0.00352126
0.00366659
0.00406397
0.00419631
0.00454177
0.0171288
0.00306953
0.00307348
0.00307132
0.00308846
0.00308655
0.00312968
0.00313779
0.00324262
0.00328929
0.00353897
0.00366466
0.00413112
0.00419151
0.00473405
0.0169139
0.00306389
0.00306855
0.00306533
0.00308175
0.00307869
0.00312032
0.0031256
0.00322837
0.00327056
0.00351476
0.00363769
0.00408455
0.00418736
0.00463349
0.0162937
0.00720742
0.00772075
0.00909779
0.00440532
0.00455532
0.00435516
0.00451361
0.0136146
0.00750255
0.00380653
0.00384357
0.00386736
0.00398391
0.00374596