/*--------------------------------*- C++ -*----------------------------------*\
| =========                 |                                                 |
| \\      /  F ield         | OpenFOAM: The Open Source CFD Toolbox           |
|  \\    /   O peration     | Version:  2.1.1                                 |
|   \\  /    A nd           | Web:      www.OpenFOAM.org                      |
|    \\/     M anipulation  |                                                 |
\*---------------------------------------------------------------------------*/
FoamFile
{
    version     2.0;
    format      ascii;
    class       volVectorField;
    location    "0.004";
    object      U;
}
// * * * * * * * * * * * * * * * * * * * * * * * * * * * * * * * * * * * * * //

dimensions      [0 1 -1 0 0 0 0];

internalField   nonuniform List<vector> 
10229
(
(-7.89915e-07 -0.00497956 0.0217343)
(-0.000706465 -0.00468207 0.019757)
(-0.0015039 -0.00127508 0.0104573)
(-3.55825e-05 -0.00024478 0.088198)
(8.91619e-05 -0.000254997 0.0888683)
(-0.000117308 -0.000154009 0.0937248)
(0.00035028 -0.000481715 0.0751925)
(0.0014356 -0.00589414 0.0290672)
(0.00047184 -0.00324621 0.0180722)
(-1.54713e-05 0.00020631 0.112815)
(-5.98626e-05 0.000241329 0.113289)
(-4.65638e-05 0.000121356 0.116131)
(-0.000178411 0.000399767 0.113413)
(-0.000207882 -0.000270235 0.0885596)
(0.000386242 -0.000332855 0.0720124)
(0.00185246 -0.00882539 0.0309246)
(-0.000456772 -0.00451811 0.0193004)
(-6.16687e-06 -0.000111605 0.11231)
(5.53607e-05 -0.000106386 0.112564)
(3.34761e-05 -7.59219e-05 0.113499)
(0.000126153 -9.95814e-05 0.114765)
(0.000176074 8.29316e-05 0.114022)
(-0.000115185 0.000294158 0.112118)
(-4.73772e-05 -0.000346093 0.0875683)
(0.000406115 -0.000390298 0.0736905)
(0.00061227 -0.0060363 0.0313883)
(-0.00185577 -0.00423342 0.0149398)
(-1.2827e-05 0.000120742 0.111955)
(-3.08853e-05 0.000121355 0.112108)
(-4.84371e-05 7.80357e-05 0.112317)
(-6.87469e-05 8.82371e-05 0.112614)
(-0.000101468 -2.92461e-05 0.113137)
(5.21013e-05 -6.05615e-06 0.114262)
(7.03267e-05 0.000112351 0.113538)
(-0.000176411 0.000345596 0.112339)
(-0.000249661 -0.000344936 0.0886879)
(0.000581177 -0.00046205 0.0704917)
(-0.0116482 0.00241389 0.0165021)
(-4.72343e-06 -3.26812e-05 0.112168)
(1.63751e-05 -2.94301e-05 0.11225)
(7.22302e-06 -1.68303e-05 0.112325)
(1.68496e-05 -1.5259e-05 0.112296)
(1.24533e-05 1.32321e-05 0.112194)
(-5.40602e-05 2.84414e-05 0.112228)
(-1.6629e-05 -6.54256e-05 0.112674)
(-1.84743e-05 -1.75979e-05 0.113782)
(0.000265433 8.28966e-05 0.113539)
(-0.000564307 0.000564974 0.112487)
(0.000459939 -0.00058265 0.0705281)
(-0.00861458 0.00417118 0.0189012)
(-1.05571e-05 7.86119e-05 0.112312)
(-1.71814e-05 7.70802e-05 0.112343)
(-3.45163e-05 6.32252e-05 0.11237)
(-3.40248e-05 6.00334e-05 0.112335)
(-5.21893e-05 3.94631e-05 0.112208)
(-2.49162e-05 3.02315e-05 0.112006)
(-4.01152e-05 6.49819e-05 0.111822)
(-9.79395e-05 1.98694e-05 0.111785)
(-6.92878e-05 6.85138e-05 0.112648)
(-8.34505e-05 -0.00026586 0.113552)
(0.000344926 0.000247834 0.0886849)
(-0.000617096 -0.00141885 0.0271537)
(-6.21075e-06 5.28539e-06 0.112388)
(1.29661e-06 6.06826e-06 0.11239)
(-9.57318e-06 1.14657e-05 0.112386)
(-6.25023e-06 1.21572e-05 0.112346)
(-1.46591e-05 2.08993e-05 0.112257)
(-2.25056e-05 2.17654e-05 0.112121)
(-2.30557e-05 1.87261e-05 0.111932)
(-1.25503e-05 1.17893e-05 0.111681)
(-2.01506e-05 9.69981e-05 0.111795)
(1.7137e-05 1.81108e-05 0.113798)
(-0.0003472 0.000175616 0.112347)
(0.000389293 -0.000405886 0.0736921)
(0.00142135 -0.0021564 0.0296489)
(-9.93439e-06 5.99162e-05 0.112452)
(-1.12524e-05 5.78303e-05 0.112443)
(-2.8594e-05 5.43017e-05 0.112423)
(-2.46243e-05 4.84868e-05 0.112377)
(-4.23658e-05 4.63169e-05 0.112304)
(-2.63757e-05 3.44948e-05 0.112207)
(-4.77965e-05 4.7191e-05 0.112096)
(-1.97038e-05 2.21869e-05 0.111936)
(-6.53926e-05 3.97325e-05 0.11183)
(6.49597e-05 1.56403e-05 0.112682)
(-0.00011318 -7.08312e-05 0.113541)
(0.000344925 4.71374e-05 0.087568)
(0.000438931 -0.00447166 0.0268664)
(0.000427284 -0.0025226 0.0166278)
(-7.92706e-06 1.91201e-05 0.112503)
(-4.23277e-06 1.89457e-05 0.11249)
(-1.87729e-05 2.15692e-05 0.112465)
(-1.41255e-05 1.97852e-05 0.112419)
(-2.85941e-05 2.47954e-05 0.112358)
(-2.1759e-05 2.10703e-05 0.112283)
(-3.53863e-05 2.57423e-05 0.112208)
(-2.23268e-05 2.14712e-05 0.112124)
(-3.06262e-05 2.47165e-05 0.112009)
(-2.89616e-05 5.24834e-05 0.112231)
(5.09545e-06 -5.24037e-05 0.114262)
(-0.000295496 0.000114121 0.112114)
(0.000331981 -0.000385693 0.0720087)
(0.00158047 -0.00269827 0.0314881)
(-1.00767e-05 4.42914e-05 0.112556)
(-8.81789e-06 4.27815e-05 0.112542)
(-2.77022e-05 4.26483e-05 0.112515)
(-2.13067e-05 3.68918e-05 0.112472)
(-4.0994e-05 4.01365e-05 0.11242)
(-2.54396e-05 2.75845e-05 0.112359)
(-4.72834e-05 4.13272e-05 0.112305)
(-2.1438e-05 1.3658e-05 0.112258)
(-4.04e-05 5.13377e-05 0.112208)
(-1.38097e-05 -1.35737e-05 0.112194)
(2.88968e-05 0.000100739 0.113134)
(-8.36228e-05 -0.000176551 0.114016)
(0.000269254 0.000207932 0.0885541)
(-0.000175193 -0.00434336 0.0269837)
(-9.55433e-06 1.74091e-05 0.112605)
(-5.86763e-06 1.65947e-05 0.11259)
(-2.46266e-05 1.84713e-05 0.112562)
(-1.66275e-05 1.55969e-05 0.112521)
(-3.79074e-05 2.02763e-05 0.112474)
(-2.06642e-05 1.27777e-05 0.11242)
(-4.93648e-05 2.3542e-05 0.112377)
(-1.25187e-05 5.27514e-06 0.112345)
(-6.05186e-05 3.29579e-05 0.112333)
(1.48521e-05 -1.75107e-05 0.112293)
(-8.85543e-05 6.77142e-05 0.112607)
(9.90551e-05 -0.000126904 0.114755)
(-0.000400815 0.000177243 0.1134)
(0.00047988 -0.000350155 0.0751834)
(-0.00657722 -0.00230053 0.0221231)
(-1.09369e-05 2.82324e-05 0.112657)
(-7.74441e-06 2.68123e-05 0.11264)
(-2.86888e-05 2.7435e-05 0.112609)
(-1.95165e-05 2.32434e-05 0.112565)
(-4.38352e-05 2.63896e-05 0.112517)
(-2.2265e-05 1.73801e-05 0.112465)
(-5.4892e-05 2.76488e-05 0.112423)
(-1.19833e-05 8.09838e-06 0.112385)
(-6.38293e-05 3.34245e-05 0.112367)
(1.62857e-05 -8.41768e-06 0.112321)
(-7.84733e-05 4.75106e-05 0.112308)
(7.51088e-05 -3.45728e-05 0.113485)
(-0.000122166 4.53556e-05 0.116108)
(0.000152029 0.00011644 0.0937084)
(-0.00667988 0.00298938 0.0251113)
(-1.09468e-05 6.01746e-06 0.112705)
(-6.66966e-06 5.35856e-06 0.11268)
(-2.82053e-05 6.41989e-06 0.112642)
(-1.76873e-05 4.57434e-06 0.112592)
(-4.38037e-05 7.44279e-06 0.112543)
(-1.94545e-05 2.90784e-06 0.11249)
(-5.87944e-05 9.89261e-06 0.112443)
(-6.57936e-06 -2.48138e-06 0.11239)
(-7.72736e-05 1.60105e-05 0.11234)
(2.92117e-05 -1.76133e-05 0.112246)
(-0.00012155 2.98913e-05 0.112099)
(0.000105661 -5.67331e-05 0.112549)
(-0.000242257 5.90537e-05 0.113263)
(0.000253113 -9.07283e-05 0.0888504)
(0.00153145 -0.00108376 0.0321043)
(-1.14889e-05 1.01543e-05 0.112737)
(-7.34613e-06 9.77776e-06 0.112706)
(-2.9478e-05 9.59979e-06 0.112659)
(-1.85029e-05 8.35125e-06 0.112607)
(-4.55178e-05 8.8956e-06 0.112557)
(-1.98036e-05 6.47424e-06 0.112504)
(-6.03738e-05 8.39255e-06 0.112452)
(-5.62137e-06 4.80285e-06 0.112388)
(-7.92742e-05 9.40254e-06 0.11231)
(3.23423e-05 3.30954e-06 0.112165)
(-0.000121306 1.17808e-05 0.111949)
(0.000111011 4.72567e-06 0.112302)
(-0.000207496 1.45047e-05 0.112802)
(0.000243021 3.42291e-05 0.0881895)
(0.00148701 0.000151402 0.0293703)
(-6.8051e-07 -0.0049801 0.0217366)
(-0.000706544 -0.00468245 0.0197592)
(-0.00150412 -0.00127519 0.0104597)
(-3.51741e-05 -0.000242366 0.0881915)
(8.90646e-05 -0.000252364 0.0888626)
(-0.000117014 -0.000152442 0.0937198)
(0.000350006 -0.000478988 0.0751873)
(0.00143624 -0.00589503 0.0290712)
(0.000471247 -0.00324672 0.0180743)
(-1.48467e-05 0.000209441 0.112813)
(-6.09895e-05 0.000242075 0.113286)
(-4.66743e-05 0.000125308 0.116125)
(-0.000182195 0.000399173 0.113411)
(-0.000214057 -0.000269201 0.0885548)
(0.000386453 -0.000331129 0.0720069)
(0.00185324 -0.00882695 0.030929)
(-0.000457249 -0.00451852 0.019302)
(-8.33002e-06 -0.000108806 0.112307)
(5.56318e-05 -0.000104114 0.112561)
(3.25053e-05 -7.30999e-05 0.113498)
(0.000124008 -9.72471e-05 0.114759)
(0.000177606 8.70895e-05 0.114017)
(-0.000117494 0.000300096 0.112111)
(-5.3934e-05 -0.000342336 0.0875663)
(0.000404493 -0.000388187 0.0736851)
(0.000613541 -0.00603773 0.0313925)
(-0.00185616 -0.00423406 0.0149418)
(-1.27094e-05 0.000124326 0.111955)
(-3.21538e-05 0.00012654 0.112108)
(-4.87903e-05 8.06947e-05 0.112316)
(-7.11064e-05 9.32165e-05 0.112612)
(-0.000104302 -2.6927e-05 0.113135)
(5.31687e-05 -3.2189e-06 0.114259)
(6.71666e-05 0.000115026 0.113532)
(-0.000182258 0.000356849 0.112335)
(-0.000253139 -0.000344903 0.0886843)
(0.000581182 -0.000458973 0.0704896)
(-0.0116471 0.00240849 0.0165137)
(-5.38278e-06 -2.87572e-05 0.112167)
(1.56743e-05 -2.59403e-05 0.112249)
(6.05089e-06 -1.27068e-05 0.112325)
(1.44335e-05 -1.28334e-05 0.112295)
(1.17691e-05 1.7896e-05 0.112193)
(-5.58971e-05 3.10833e-05 0.112225)
(-1.56447e-05 -6.34484e-05 0.112673)
(-2.47275e-05 -1.58751e-05 0.113777)
(0.000261051 8.7235e-05 0.113536)
(-0.000562302 0.000562297 0.112482)
(0.000457441 -0.000580681 0.0705243)
(-0.00861508 0.00417196 0.0189039)
(-1.10443e-05 8.33642e-05 0.112314)
(-1.83673e-05 8.19354e-05 0.112345)
(-3.59767e-05 6.78274e-05 0.112371)
(-3.57475e-05 6.46219e-05 0.112336)
(-5.46614e-05 4.44837e-05 0.112208)
(-2.63615e-05 3.34427e-05 0.112006)
(-4.41849e-05 6.90702e-05 0.111819)
(-0.000101546 2.01966e-05 0.111784)
(-7.69015e-05 7.58294e-05 0.112646)
(-8.7933e-05 -0.000261675 0.113549)
(0.000344789 0.000251589 0.0886812)
(-0.000617328 -0.00142061 0.0271589)
(-6.8086e-06 9.34862e-06 0.112389)
(4.04599e-07 1.02747e-05 0.112392)
(-1.10336e-05 1.58339e-05 0.112387)
(-8.21245e-06 1.58352e-05 0.112346)
(-1.66442e-05 2.48329e-05 0.112258)
(-2.51466e-05 2.47705e-05 0.11212)
(-2.48144e-05 2.13332e-05 0.111932)
(-1.54603e-05 1.46232e-05 0.11168)
(-2.06733e-05 0.000100321 0.111794)
(1.53133e-05 2.44424e-05 0.113793)
(-0.000358511 0.000181195 0.112343)
(0.00038724 -0.000404298 0.0736869)
(0.00142276 -0.00215631 0.0296528)
(-1.04151e-05 6.44152e-05 0.112455)
(-1.21447e-05 6.24516e-05 0.112446)
(-3.05763e-05 5.88948e-05 0.112426)
(-2.67523e-05 5.26834e-05 0.112379)
(-4.54743e-05 5.08222e-05 0.112306)
(-2.9115e-05 3.78801e-05 0.112208)
(-5.19806e-05 5.13222e-05 0.112097)
(-2.26e-05 2.38411e-05 0.111936)
(-6.96237e-05 4.33808e-05 0.111828)
(6.28761e-05 1.44011e-05 0.112681)
(-0.000116164 -6.78439e-05 0.113536)
(0.000340897 5.3407e-05 0.0875662)
(0.00043989 -0.00447254 0.0268716)
(0.000427411 -0.00252286 0.0166293)
(-8.44516e-06 2.29441e-05 0.112504)
(-5.02117e-06 2.25959e-05 0.112492)
(-2.06307e-05 2.52372e-05 0.112466)
(-1.61347e-05 2.32007e-05 0.112421)
(-3.13611e-05 2.82228e-05 0.11236)
(-2.47753e-05 2.40684e-05 0.112284)
(-3.88794e-05 2.83746e-05 0.112209)
(-2.57798e-05 2.40685e-05 0.112123)
(-3.41798e-05 2.61049e-05 0.11201)
(-3.14529e-05 5.43044e-05 0.112228)
(2.10924e-06 -5.35032e-05 0.114259)
(-0.000301533 0.000116373 0.112108)
(0.000330354 -0.000386056 0.0720038)
(0.00158148 -0.00269854 0.0314917)
(-1.06766e-05 4.83721e-05 0.112559)
(-9.86152e-06 4.65146e-05 0.112545)
(-2.99018e-05 4.64419e-05 0.112518)
(-2.36481e-05 4.03032e-05 0.112475)
(-4.45021e-05 4.35258e-05 0.112423)
(-2.89766e-05 3.0309e-05 0.11236)
(-5.18714e-05 4.44074e-05 0.112307)
(-2.56146e-05 1.56694e-05 0.112259)
(-4.55263e-05 5.40659e-05 0.112208)
(-1.85223e-05 -1.25623e-05 0.112193)
(2.63063e-05 0.000103385 0.113132)
(-8.80434e-05 -0.000177887 0.114012)
(0.000267564 0.000213706 0.0885497)
(-0.000173828 -0.00434434 0.0269895)
(-1.03534e-05 2.0101e-05 0.112606)
(-6.94044e-06 1.935e-05 0.112591)
(-2.67978e-05 2.12281e-05 0.112564)
(-1.90334e-05 1.80465e-05 0.112523)
(-4.13623e-05 2.25754e-05 0.112476)
(-2.40078e-05 1.49297e-05 0.112421)
(-5.35997e-05 2.56636e-05 0.112379)
(-1.63673e-05 7.22773e-06 0.112346)
(-6.51513e-05 3.48665e-05 0.112334)
(1.21651e-05 -1.49992e-05 0.112291)
(-9.37608e-05 6.97567e-05 0.112605)
(9.64117e-05 -0.000124594 0.114749)
(-0.000400623 0.000180875 0.113398)
(0.000476701 -0.000349591 0.0751785)
(-0.00657796 -0.00229976 0.0221269)
(-1.17286e-05 3.09671e-05 0.112659)
(-8.71786e-06 2.96612e-05 0.112642)
(-3.11909e-05 3.00555e-05 0.112611)
(-2.23185e-05 2.54869e-05 0.112567)
(-4.76499e-05 2.85772e-05 0.112519)
(-2.60048e-05 1.92943e-05 0.112467)
(-5.97175e-05 2.93858e-05 0.112425)
(-1.64084e-05 9.65768e-06 0.112386)
(-6.84434e-05 3.48878e-05 0.112368)
(1.16266e-05 -7.2576e-06 0.11232)
(-8.12841e-05 4.78532e-05 0.112307)
(7.22721e-05 -3.34393e-05 0.113483)
(-0.000126277 4.55622e-05 0.116104)
(0.00015072 0.000116424 0.0937041)
(-0.00667974 0.00299011 0.0251165)
(-1.16851e-05 7.35132e-06 0.112706)
(-7.85599e-06 6.74118e-06 0.112682)
(-3.09837e-05 7.75793e-06 0.112643)
(-2.05291e-05 5.6682e-06 0.112594)
(-4.75948e-05 8.56478e-06 0.112545)
(-2.32641e-05 3.82757e-06 0.112492)
(-6.34085e-05 1.0826e-05 0.112445)
(-1.07103e-05 -1.43983e-06 0.11239)
(-8.22967e-05 1.7055e-05 0.112342)
(2.54364e-05 -1.67969e-05 0.112245)
(-0.000126761 3.12801e-05 0.112099)
(0.000103232 -5.70546e-05 0.112545)
(-0.000243036 6.00302e-05 0.113261)
(0.000251021 -9.04668e-05 0.0888452)
(0.00153263 -0.00108358 0.0321101)
(-1.28624e-05 1.15839e-05 0.112738)
(-8.31537e-06 1.05274e-05 0.112707)
(-3.22705e-05 1.04312e-05 0.112661)
(-2.15251e-05 9.04595e-06 0.112609)
(-4.95113e-05 9.47397e-06 0.11256)
(-2.37363e-05 7.07431e-06 0.112506)
(-6.50853e-05 8.93659e-06 0.112455)
(-9.92244e-06 5.24607e-06 0.112389)
(-8.40784e-05 9.58174e-06 0.112312)
(2.81223e-05 3.95898e-06 0.112165)
(-0.000125208 1.16898e-05 0.11195)
(0.000107922 6.86084e-06 0.1123)
(-0.000210607 1.37645e-05 0.112801)
(0.000240702 3.38768e-05 0.0881835)
(0.00148833 0.000150837 0.0293759)
(-5.87673e-07 -0.00498049 0.0217394)
(-0.000706649 -0.00468299 0.0197618)
(-0.00150425 -0.00127542 0.0104625)
(-3.41394e-05 -0.000238932 0.0881856)
(9.04815e-05 -0.000249292 0.0888571)
(-0.000116688 -0.000150224 0.0937145)
(0.000348955 -0.000474216 0.0751821)
(0.00143631 -0.00589656 0.0290762)
(0.000471029 -0.0032473 0.018077)
(-1.51696e-05 0.000214135 0.112811)
(-6.34012e-05 0.00024384 0.113283)
(-4.53979e-05 0.000130291 0.116121)
(-0.000186652 0.000398394 0.113409)
(-0.000222518 -0.00026703 0.0885518)
(0.000386341 -0.000329242 0.0720022)
(0.00185398 -0.00882856 0.0309349)
(-0.000457721 -0.00451891 0.0193045)
(-1.02771e-05 -0.000106419 0.112304)
(5.6972e-05 -0.000101291 0.112558)
(3.03079e-05 -6.94477e-05 0.113495)
(0.00012075 -9.60242e-05 0.114754)
(0.000179061 9.22677e-05 0.114013)
(-0.000119424 0.000307348 0.112104)
(-5.96138e-05 -0.000338251 0.0875628)
(0.000402689 -0.00038489 0.0736819)
(0.000614409 -0.00603921 0.0313977)
(-0.0018561 -0.00423454 0.0149446)
(-1.27409e-05 0.000127989 0.111956)
(-3.35796e-05 0.000131645 0.112108)
(-4.95264e-05 8.27319e-05 0.112316)
(-7.39862e-05 9.92731e-05 0.112612)
(-0.000107326 -2.38681e-05 0.113133)
(5.34631e-05 2.88239e-07 0.114257)
(6.44588e-05 0.000118152 0.113528)
(-0.000187145 0.000367782 0.112331)
(-0.000257262 -0.000344023 0.0886815)
(0.000580213 -0.000456143 0.0704864)
(-0.0116493 0.00240999 0.016517)
(-6.10397e-06 -2.51514e-05 0.112166)
(1.52708e-05 -2.25588e-05 0.112249)
(4.7362e-06 -8.52262e-06 0.112325)
(1.22609e-05 -1.00793e-05 0.112293)
(1.05748e-05 2.27803e-05 0.112193)
(-5.75893e-05 3.41272e-05 0.112222)
(-1.48032e-05 -6.12668e-05 0.112671)
(-3.04604e-05 -1.40924e-05 0.113773)
(0.000257754 9.19322e-05 0.113534)
(-0.000561094 0.000560949 0.112477)
(0.000454574 -0.000579261 0.0705221)
(-0.00861643 0.00417268 0.018908)
(-1.12663e-05 8.78125e-05 0.112316)
(-1.93533e-05 8.6659e-05 0.112347)
(-3.74046e-05 7.21361e-05 0.112373)
(-3.78539e-05 6.929e-05 0.112338)
(-5.72799e-05 4.91817e-05 0.112209)
(-2.86221e-05 3.7333e-05 0.112007)
(-4.81077e-05 7.31638e-05 0.111818)
(-0.000103951 2.14201e-05 0.111784)
(-8.40212e-05 8.26935e-05 0.112645)
(-9.2715e-05 -0.000258489 0.113547)
(0.000343483 0.00025571 0.0886785)
(-0.000617917 -0.00142204 0.0271656)
(-7.27591e-06 1.31194e-05 0.112389)
(-1.68585e-07 1.39237e-05 0.112392)
(-1.24017e-05 1.97113e-05 0.112387)
(-9.93393e-06 1.90748e-05 0.112347)
(-1.85209e-05 2.88494e-05 0.112258)
(-2.73389e-05 2.7601e-05 0.11212)
(-2.6526e-05 2.47667e-05 0.111932)
(-1.83065e-05 1.72419e-05 0.111679)
(-2.20162e-05 0.000102741 0.111793)
(1.3611e-05 3.01114e-05 0.113788)
(-0.000369477 0.000185891 0.112339)
(0.000384307 -0.000402641 0.0736838)
(0.00142415 -0.00215615 0.0296572)
(-1.08373e-05 6.86343e-05 0.112457)
(-1.30357e-05 6.65245e-05 0.112448)
(-3.23956e-05 6.30939e-05 0.112428)
(-2.86604e-05 5.65705e-05 0.112381)
(-4.84226e-05 5.50796e-05 0.112308)
(-3.18943e-05 4.10819e-05 0.11221)
(-5.60705e-05 5.52497e-05 0.112098)
(-2.60277e-05 2.56543e-05 0.111937)
(-7.38125e-05 4.7632e-05 0.111827)
(6.04868e-05 1.35493e-05 0.11268)
(-0.000119448 -6.52433e-05 0.113532)
(0.000337068 5.89497e-05 0.0875628)
(0.00044105 -0.00447357 0.026878)
(0.000427699 -0.00252356 0.0166314)
(-9.13221e-06 2.60803e-05 0.112504)
(-5.6046e-06 2.54995e-05 0.112491)
(-2.2154e-05 2.8362e-05 0.112466)
(-1.77468e-05 2.59161e-05 0.112421)
(-3.38744e-05 3.11299e-05 0.112361)
(-2.72819e-05 2.6481e-05 0.112284)
(-4.19835e-05 3.10793e-05 0.112211)
(-2.83576e-05 2.63323e-05 0.112123)
(-3.83013e-05 2.83123e-05 0.112011)
(-3.48353e-05 5.60913e-05 0.112225)
(-1.52939e-06 -5.38012e-05 0.114257)
(-0.000308727 0.000118365 0.112101)
(0.000328651 -0.000386154 0.0719993)
(0.00158219 -0.0026985 0.0314965)
(-1.14195e-05 5.17736e-05 0.112559)
(-1.0758e-05 4.98669e-05 0.112544)
(-3.18893e-05 4.98884e-05 0.112518)
(-2.57435e-05 4.31549e-05 0.112475)
(-4.7733e-05 4.66209e-05 0.112424)
(-3.19606e-05 3.27909e-05 0.112361)
(-5.6127e-05 4.73453e-05 0.112308)
(-2.96069e-05 1.72661e-05 0.112259)
(-5.02987e-05 5.61307e-05 0.112209)
(-2.35614e-05 -1.13627e-05 0.112193)
(2.306e-05 0.000106135 0.11313)
(-9.34018e-05 -0.00017931 0.114008)
(0.000265359 0.00022203 0.0885471)
(-0.000172358 -0.00434476 0.0269959)
(-1.10453e-05 2.25124e-05 0.112604)
(-7.4732e-06 2.18062e-05 0.112589)
(-2.88102e-05 2.35131e-05 0.112563)
(-2.0988e-05 1.99953e-05 0.112521)
(-4.42471e-05 2.46363e-05 0.112476)
(-2.66932e-05 1.66872e-05 0.112421)
(-5.76327e-05 2.75113e-05 0.112381)
(-1.98955e-05 8.88312e-06 0.112346)
(-6.97704e-05 3.66189e-05 0.112336)
(9.34855e-06 -1.29607e-05 0.11229)
(-9.99174e-05 7.24478e-05 0.112605)
(9.53226e-05 -0.000121181 0.114744)
(-0.000399913 0.000185208 0.113396)
(0.000472526 -0.000348701 0.0751735)
(-0.00657826 -0.00229983 0.022131)
(-1.24656e-05 3.40368e-05 0.112657)
(-9.73162e-06 3.23836e-05 0.11264)
(-3.36802e-05 3.24764e-05 0.11261)
(-2.46411e-05 2.75499e-05 0.112566)
(-5.10831e-05 3.06765e-05 0.11252)
(-2.9231e-05 2.09548e-05 0.112467)
(-6.41221e-05 3.11685e-05 0.112427)
(-2.05527e-05 1.1304e-05 0.112386)
(-7.28986e-05 3.63236e-05 0.112371)
(7.44383e-06 -5.8827e-06 0.11232)
(-8.32137e-05 4.86556e-05 0.112307)
(6.85846e-05 -3.12207e-05 0.113481)
(-0.000131134 4.43488e-05 0.1161)
(0.000148819 0.000116391 0.0936995)
(-0.00667985 0.00299056 0.0251219)
(-1.27013e-05 8.76885e-06 0.112703)
(-9.03465e-06 7.95874e-06 0.112679)
(-3.36573e-05 8.82899e-06 0.112641)
(-2.28107e-05 6.48238e-06 0.112592)
(-5.08919e-05 9.47734e-06 0.112545)
(-2.62845e-05 4.6144e-06 0.112491)
(-6.74842e-05 1.18258e-05 0.112447)
(-1.46018e-05 -5.64785e-07 0.112391)
(-8.71898e-05 1.81794e-05 0.112344)
(2.2037e-05 -1.60696e-05 0.112244)
(-0.000132017 3.26291e-05 0.1121)
(0.000100517 -5.83088e-05 0.112543)
(-0.000244564 6.24958e-05 0.113259)
(0.000248175 -9.17448e-05 0.0888403)
(0.0015342 -0.00108384 0.0321169)
(-1.34762e-05 1.21764e-05 0.112736)
(-9.67594e-06 1.14157e-05 0.112704)
(-3.51669e-05 1.11923e-05 0.112659)
(-2.40143e-05 9.73141e-06 0.112606)
(-5.29796e-05 1.0012e-05 0.112559)
(-2.68813e-05 7.64001e-06 0.112505)
(-6.94116e-05 9.47639e-06 0.112457)
(-1.39294e-05 5.63583e-06 0.11239)
(-8.86475e-05 1.01303e-05 0.112314)
(2.42949e-05 4.68825e-06 0.112165)
(-0.000129013 1.16728e-05 0.111951)
(0.000105597 8.95645e-06 0.112297)
(-0.000215139 1.41415e-05 0.1128)
(0.000237668 3.28775e-05 0.0881783)
(0.00149003 0.000151092 0.029383)
(-4.3791e-07 -0.00498092 0.0217429)
(-0.000706719 -0.00468357 0.0197652)
(-0.00150428 -0.0012756 0.0104659)
(-3.34562e-05 -0.000235131 0.0881822)
(9.21476e-05 -0.000245434 0.0888527)
(-0.000116443 -0.000147707 0.0937095)
(0.000347557 -0.000468214 0.075177)
(0.00143627 -0.00589817 0.0290825)
(0.00047069 -0.00324806 0.0180798)
(-1.50983e-05 0.000218322 0.112809)
(-6.5998e-05 0.000245905 0.113282)
(-4.31999e-05 0.000134434 0.116117)
(-0.000190044 0.000397862 0.113407)
(-0.000232867 -0.000264055 0.0885507)
(0.000384998 -0.00032726 0.0719992)
(0.00185482 -0.00883058 0.0309425)
(-0.000458067 -0.00451946 0.0193074)
(-1.1717e-05 -0.000103504 0.112301)
(5.83294e-05 -9.84432e-05 0.112556)
(2.79702e-05 -6.52507e-05 0.113492)
(0.000118348 -9.54544e-05 0.114751)
(0.000179796 9.6696e-05 0.114011)
(-0.000121151 0.000315722 0.112098)
(-6.34075e-05 -0.000333481 0.0875606)
(0.000400263 -0.000381523 0.0736795)
(0.00061488 -0.00604104 0.0314042)
(-0.00185625 -0.00423552 0.0149478)
(-1.27859e-05 0.000131371 0.111958)
(-3.5257e-05 0.000136044 0.112111)
(-5.01057e-05 8.50895e-05 0.112318)
(-7.71709e-05 0.000105142 0.112614)
(-0.000111071 -2.06029e-05 0.113133)
(5.32004e-05 4.4919e-06 0.114255)
(6.15342e-05 0.000121434 0.113525)
(-0.000191186 0.000377072 0.112327)
(-0.000261396 -0.000341628 0.0886801)
(0.000577145 -0.000451944 0.0704842)
(-0.0116529 0.00241494 0.0165168)
(-6.69463e-06 -2.26091e-05 0.112165)
(1.54617e-05 -1.99031e-05 0.112248)
(3.77053e-06 -4.84699e-06 0.112325)
(1.08579e-05 -8.04192e-06 0.112293)
(9.49127e-06 2.79163e-05 0.112194)
(-5.9232e-05 3.70626e-05 0.112222)
(-1.42555e-05 -5.87664e-05 0.112671)
(-3.5496e-05 -1.16783e-05 0.11377)
(0.000255362 9.71892e-05 0.113533)
(-0.000560592 0.000561127 0.112474)
(0.000450503 -0.000578392 0.0705192)
(-0.00861869 0.0041732 0.018912)
(-1.14514e-05 9.15035e-05 0.112318)
(-2.00487e-05 9.06868e-05 0.112349)
(-3.86752e-05 7.54718e-05 0.112376)
(-3.94725e-05 7.32603e-05 0.11234)
(-5.99716e-05 5.30566e-05 0.112211)
(-3.13515e-05 4.10666e-05 0.112008)
(-5.14603e-05 7.71199e-05 0.111819)
(-0.000105304 2.29301e-05 0.111785)
(-9.06713e-05 8.93917e-05 0.112647)
(-9.78376e-05 -0.00025611 0.113546)
(0.000341542 0.000259176 0.0886772)
(-0.000617731 -0.00142322 0.0271736)
(-7.62546e-06 1.55918e-05 0.112387)
(-3.62462e-07 1.61419e-05 0.11239)
(-1.34126e-05 2.23971e-05 0.112387)
(-1.07075e-05 2.11219e-05 0.112346)
(-1.96952e-05 3.17437e-05 0.112259)
(-2.87558e-05 2.98092e-05 0.11212)
(-2.80578e-05 2.80859e-05 0.111934)
(-2.04747e-05 1.93703e-05 0.111678)
(-2.35485e-05 0.000103952 0.111794)
(1.11596e-05 3.49921e-05 0.113785)
(-0.000378709 0.000189707 0.112336)
(0.000380879 -0.000400281 0.0736815)
(0.00142461 -0.00215578 0.0296632)
(-1.11908e-05 7.16203e-05 0.112456)
(-1.35335e-05 6.93659e-05 0.112447)
(-3.38194e-05 6.63896e-05 0.112428)
(-3.00004e-05 5.94687e-05 0.112381)
(-5.08455e-05 5.83572e-05 0.112309)
(-3.40996e-05 4.33404e-05 0.112211)
(-5.94404e-05 5.85428e-05 0.1121)
(-2.94984e-05 2.71145e-05 0.111938)
(-7.78504e-05 5.07701e-05 0.111828)
(5.79844e-05 1.28599e-05 0.112679)
(-0.000122625 -6.23518e-05 0.113529)
(0.000332914 6.25871e-05 0.087561)
(0.000442332 -0.00447484 0.0268851)
(0.000427816 -0.00252419 0.0166338)
(-9.72708e-06 2.76843e-05 0.1125)
(-5.47519e-06 2.70202e-05 0.112487)
(-2.30719e-05 3.01548e-05 0.112463)
(-1.84816e-05 2.71897e-05 0.112418)
(-3.5635e-05 3.29446e-05 0.112359)
(-2.86613e-05 2.79448e-05 0.112283)
(-4.43189e-05 3.32529e-05 0.112212)
(-3.07516e-05 2.75962e-05 0.112123)
(-4.21235e-05 3.08983e-05 0.112011)
(-3.76356e-05 5.77213e-05 0.112225)
(-5.76791e-06 -5.35377e-05 0.114255)
(-0.00031706 0.000119984 0.112096)
(0.000326832 -0.000385296 0.0719965)
(0.00158349 -0.00269837 0.0315022)
(-1.19204e-05 5.4451e-05 0.112554)
(-1.10559e-05 5.22985e-05 0.11254)
(-3.35324e-05 5.22187e-05 0.112515)
(-2.70248e-05 4.48261e-05 0.112472)
(-4.99436e-05 4.89129e-05 0.112422)
(-3.38108e-05 3.45391e-05 0.11236)
(-5.97217e-05 4.95929e-05 0.11231)
(-3.27632e-05 1.84396e-05 0.11226)
(-5.4108e-05 5.89212e-05 0.112212)
(-2.85543e-05 -1.03527e-05 0.112194)
(1.97811e-05 0.000109735 0.113131)
(-9.78124e-05 -0.000180049 0.114006)
(0.000262597 0.000232238 0.0885462)
(-0.000170971 -0.0043459 0.0270041)
(-1.17848e-05 2.47113e-05 0.112597)
(-7.67792e-06 2.33758e-05 0.112583)
(-3.04699e-05 2.48928e-05 0.112557)
(-2.17484e-05 2.10476e-05 0.112517)
(-4.59329e-05 2.59924e-05 0.112473)
(-2.81415e-05 1.73827e-05 0.112418)
(-6.05919e-05 2.89039e-05 0.112381)
(-2.18491e-05 1.01429e-05 0.112345)
(-7.38949e-05 3.83064e-05 0.112338)
(7.20549e-06 -1.1398e-05 0.112289)
(-0.000105755 7.55697e-05 0.112607)
(9.47625e-05 -0.000118727 0.114741)
(-0.000399186 0.000188513 0.113395)
(0.000466826 -0.000347309 0.075169)
(-0.00657884 -0.00229902 0.0221359)
(-1.33362e-05 3.70297e-05 0.112649)
(-1.08307e-05 3.49781e-05 0.112632)
(-3.58297e-05 3.46272e-05 0.112603)
(-2.59493e-05 2.91874e-05 0.11256)
(-5.36656e-05 3.2293e-05 0.112516)
(-3.10799e-05 2.20589e-05 0.112464)
(-6.72054e-05 3.27638e-05 0.112427)
(-2.34818e-05 1.23132e-05 0.112386)
(-7.64916e-05 3.74592e-05 0.112373)
(3.77889e-06 -4.7264e-06 0.11232)
(-8.57028e-05 4.91079e-05 0.112309)
(6.43606e-05 -2.88374e-05 0.113478)
(-0.000135172 4.23076e-05 0.116097)
(0.000146466 0.000116018 0.0936947)
(-0.00668001 0.00299168 0.0251287)
(-1.39374e-05 1.06508e-05 0.112693)
(-1.00741e-05 9.29717e-06 0.11267)
(-3.62761e-05 9.88276e-06 0.112633)
(-2.41154e-05 6.92365e-06 0.112585)
(-5.31267e-05 1.00482e-05 0.11254)
(-2.77788e-05 5.04734e-06 0.112487)
(-7.05737e-05 1.23693e-05 0.112447)
(-1.70337e-05 -3.24745e-07 0.112389)
(-9.11762e-05 1.89594e-05 0.112346)
(1.92821e-05 -1.62341e-05 0.112244)
(-0.000136539 3.40445e-05 0.112102)
(9.79222e-05 -5.94781e-05 0.112541)
(-0.000246584 6.49669e-05 0.113259)
(0.000244807 -9.3214e-05 0.0888359)
(0.00153581 -0.00108391 0.0321251)
(-1.4809e-05 1.35124e-05 0.112727)
(-1.16036e-05 1.25877e-05 0.112695)
(-3.82223e-05 1.2185e-05 0.112651)
(-2.58217e-05 1.05589e-05 0.1126)
(-5.55853e-05 1.06538e-05 0.112555)
(-2.87687e-05 8.09487e-06 0.112501)
(-7.27023e-05 9.84125e-06 0.112456)
(-1.66072e-05 6.08054e-06 0.112387)
(-9.26123e-05 1.0327e-05 0.112317)
(2.1416e-05 5.20086e-06 0.112164)
(-0.000132369 1.17206e-05 0.111954)
(0.000102775 1.04965e-05 0.112295)
(-0.000219099 1.41055e-05 0.112798)
(0.000234962 3.25026e-05 0.0881751)
(0.00149211 0.000151273 0.0293911)
(-4.24544e-07 -0.00498193 0.0217475)
(-0.000706712 -0.00468426 0.0197695)
(-0.00150429 -0.00127578 0.0104699)
(-3.36275e-05 -0.000231215 0.0881807)
(9.34931e-05 -0.000240892 0.0888502)
(-0.000116614 -0.000145007 0.093706)
(0.000345608 -0.000461134 0.0751722)
(0.00143628 -0.00589991 0.0290901)
(0.000470509 -0.00324897 0.0180835)
(-1.40565e-05 0.000220411 0.112808)
(-6.83633e-05 0.000247369 0.113283)
(-4.09548e-05 0.000137141 0.116115)
(-0.000192884 0.000397284 0.113407)
(-0.000243 -0.000260248 0.0885501)
(0.000382736 -0.00032495 0.0719984)
(0.00185474 -0.00883328 0.0309516)
(-0.000458422 -0.00452029 0.0193112)
(-1.26168e-05 -0.000100008 0.1123)
(5.99073e-05 -9.5979e-05 0.112555)
(2.56022e-05 -6.07741e-05 0.11349)
(0.00011728 -9.49051e-05 0.114748)
(0.000180983 0.000100757 0.11401)
(-0.000122229 0.000322749 0.112096)
(-6.58395e-05 -0.000328145 0.0875609)
(0.000397312 -0.000377506 0.0736768)
(0.000615549 -0.00604324 0.0314121)
(-0.00185653 -0.00423632 0.0149517)
(-1.29048e-05 0.000133703 0.111963)
(-3.7107e-05 0.000139016 0.112116)
(-5.03587e-05 8.72891e-05 0.112322)
(-8.04221e-05 0.000110338 0.112618)
(-0.000116047 -1.76447e-05 0.113135)
(5.25112e-05 8.79971e-06 0.114255)
(5.9276e-05 0.000123713 0.113525)
(-0.000193756 0.000384784 0.112327)
(-0.000264899 -0.000338377 0.0886817)
(0.000576652 -0.000446737 0.0704816)
(-0.0116526 0.00240953 0.0165321)
(-7.03548e-06 -2.14247e-05 0.112164)
(1.67453e-05 -1.88377e-05 0.112246)
(3.5112e-06 -2.70374e-06 0.112325)
(1.06978e-05 -7.74274e-06 0.112293)
(9.7064e-06 3.18525e-05 0.112197)
(-6.0988e-05 3.94887e-05 0.112224)
(-1.41116e-05 -5.57105e-05 0.112672)
(-3.92948e-05 -9.21124e-06 0.113768)
(0.000254452 0.000102605 0.113533)
(-0.000561601 0.000561118 0.112473)
(0.000445361 -0.000573977 0.0705176)
(-0.00862009 0.0041745 0.0189169)
(-1.17504e-05 9.31896e-05 0.112321)
(-2.11214e-05 9.23758e-05 0.112352)
(-3.9792e-05 7.70146e-05 0.112378)
(-4.07928e-05 7.55209e-05 0.112343)
(-6.25925e-05 5.48125e-05 0.112214)
(-3.26933e-05 4.32316e-05 0.11201)
(-5.35711e-05 8.07551e-05 0.111824)
(-0.000105613 2.41583e-05 0.111787)
(-9.70287e-05 9.54814e-05 0.112651)
(-0.00010333 -0.000255222 0.113547)
(0.000338359 0.000263617 0.088679)
(-0.000617809 -0.00142515 0.0271822)
(-7.93196e-06 1.47712e-05 0.112385)
(7.4698e-07 1.54149e-05 0.112388)
(-1.30873e-05 2.26121e-05 0.112386)
(-1.05518e-05 2.06872e-05 0.112345)
(-1.93984e-05 3.30459e-05 0.11226)
(-2.84389e-05 3.06161e-05 0.112121)
(-2.86585e-05 3.02031e-05 0.111937)
(-2.16778e-05 2.03228e-05 0.111679)
(-2.48144e-05 0.000103884 0.111798)
(8.88327e-06 3.86661e-05 0.113784)
(-0.000386437 0.000192362 0.112336)
(0.000376799 -0.000397258 0.073679)
(0.00142522 -0.00215579 0.029671)
(-1.15035e-05 7.32426e-05 0.112452)
(-1.35914e-05 7.10682e-05 0.112443)
(-3.4624e-05 6.7336e-05 0.112425)
(-3.01541e-05 6.02281e-05 0.11238)
(-5.21025e-05 5.97819e-05 0.112309)
(-3.45119e-05 4.35922e-05 0.112211)
(-6.1324e-05 6.04149e-05 0.112104)
(-3.19985e-05 2.7599e-05 0.111941)
(-8.16302e-05 5.30067e-05 0.111833)
(5.5307e-05 1.2731e-05 0.11268)
(-0.000124697 -6.00728e-05 0.113529)
(0.000327562 6.49093e-05 0.0875616)
(0.000444022 -0.00447712 0.026894)
(0.000427806 -0.00252532 0.0166369)
(-1.00287e-05 2.68351e-05 0.112492)
(-5.01813e-06 2.61654e-05 0.11248)
(-2.36394e-05 2.96092e-05 0.112458)
(-1.7779e-05 2.61634e-05 0.112414)
(-3.57861e-05 3.27218e-05 0.112357)
(-2.78712e-05 2.73994e-05 0.112283)
(-4.4694e-05 3.36109e-05 0.112213)
(-3.16827e-05 2.7351e-05 0.112124)
(-4.41823e-05 3.26667e-05 0.112014)
(-3.99671e-05 5.96154e-05 0.112227)
(-1.02873e-05 -5.2858e-05 0.114256)
(-0.000324031 0.000121046 0.112093)
(0.000324793 -0.000383118 0.0719961)
(0.00158372 -0.00269802 0.0315097)
(-1.24478e-05 5.64644e-05 0.112541)
(-1.07883e-05 5.40554e-05 0.112529)
(-3.44676e-05 5.36393e-05 0.112505)