/*--------------------------------*- C++ -*----------------------------------*\
| =========                 |                                                 |
| \\      /  F ield         | OpenFOAM: The Open Source CFD Toolbox           |
|  \\    /   O peration     | Version:  2.1.1                                 |
|   \\  /    A nd           | Web:      www.OpenFOAM.org                      |
|    \\/     M anipulation  |                                                 |
\*---------------------------------------------------------------------------*/
FoamFile
{
    version     2.0;
    format      ascii;
    class       volScalarField;
    location    "0.0045";
    object      p;
}
// * * * * * * * * * * * * * * * * * * * * * * * * * * * * * * * * * * * * * //

dimensions      [0 2 -2 0 0 0 0];

internalField   nonuniform List<scalar> 
10233
(
0.14585
0.152459
0.146883
0.142672
0.140356
0.138824
0.137903
0.137155
0.136592
0.136117
0.135742
0.135433
0.135196
0.135019
0.134898
0.144516
0.152056
0.147689
0.142964
0.140414
0.138839
0.137906
0.137154
0.136584
0.136107
0.135731
0.13542
0.135185
0.135007
0.134884
0.118979
0.151356
0.149271
0.143712
0.140716
0.139021
0.138025
0.137242
0.136659
0.136171
0.135783
0.135473
0.13524
0.135056
0.134922
0.152183
0.149962
0.14461
0.14119
0.139319
0.138219
0.137396
0.13679
0.136291
0.135897
0.135587
0.135346
0.135145
0.135009
0.148699
0.151035
0.14661
0.142385
0.139987
0.13862
0.137685
0.137029
0.136505
0.136098
0.135766
0.135504
0.135297
0.135159
0.135994
0.151175
0.148577
0.143929
0.140846
0.139133
0.138058
0.137338
0.136775
0.136355
0.136003
0.135724
0.135509
0.135358
0.154614
0.151932
0.146579
0.142289
0.139959
0.138616
0.137794
0.137167
0.136712
0.136326
0.136034
0.135794
0.135632
0.139688
0.153082
0.14923
0.143843
0.140906
0.139287
0.138362
0.13766
0.137165
0.136728
0.136408
0.136132
0.13595
0.15224
0.152547
0.146104
0.142374
0.14033
0.139244
0.138387
0.137829
0.137308
0.136931
0.136599
0.136385
0.136549
0.154199
0.150089
0.144591
0.141988
0.140635
0.139467
0.138765
0.138082
0.13757
0.137109
0.136838
0.144515
0.153879
0.149588
0.145359
0.143217
0.141375
0.140353
0.139327
0.138592
0.137925
0.13757
0.14482
0.157784
0.152052
0.147448
0.144525
0.142804
0.141231
0.139954
0.138907
0.138366
0.153637
0.152582
0.149009
0.146599
0.144363
0.142584
0.141387
0.140666
0.128687
0.148701
0.151237
0.147894
0.144825
0.145622
0.145153
0.133262
0.127539
0.158179
0.16051
0.1082
0.0953137
0.0974679
0.0935854
0.0929332
0.0913182
0.0906655
0.0898427
0.0893806
0.0889138
0.088612
0.0883454
0.0881756
0.0880534
0.0879987
0.107054
0.0947397
0.0972841
0.0935794
0.0929533
0.0913902
0.0907259
0.0899104
0.0894417
0.0889748
0.0886697
0.0884022
0.0882338
0.0881112
0.0880545
0.100905
0.0955365
0.0979582
0.0943367
0.0934765
0.0918165
0.0910218
0.0901473
0.0896324
0.0891378
0.0888157
0.0885405
0.0883695
0.0882376
0.0881774
0.0967447
0.0961029
0.0945449
0.0933674
0.092028
0.0911895
0.0903514
0.0898254
0.0893296
0.0890042
0.0887263
0.0885456
0.0884059
0.088347
0.121002
0.0988758
0.0967096
0.0947464
0.0929376
0.0918458
0.09084
0.0902315
0.0896766
0.0893263
0.0890125
0.0888212
0.0886736
0.0886132
0.105253
0.0985692
0.0962213
0.0948529
0.0931953
0.0921924
0.0912122
0.0906096
0.0900281
0.0896811
0.0893353
0.0891419
0.0889783
0.0889145
0.128543
0.0991419
0.0971581
0.0946445
0.0932816
0.0920172
0.0913219
0.0906129
0.0902362
0.0898314
0.0896362
0.0894454
0.089381
0.110226
0.0990573
0.0965863
0.0950076
0.0937918
0.0926315
0.0920183
0.0912168
0.0908445
0.0903574
0.0901508
0.0899143
0.0898426
0.12758
0.0998009
0.0967732
0.0956831
0.0938005
0.0932884
0.0922014
0.091853
0.0911977
0.0910265
0.090731
0.0906655
0.106849
0.0971857
0.0970874
0.0967768
0.0950171
0.0946531
0.0932058
0.0929468
0.0920381
0.0918222
0.0913975
0.0913168
0.134022
0.0972637
0.0998354
0.0966162
0.0971771
0.0948703
0.0947602
0.0933817
0.0934855
0.092963
0.0929324
0.131982
0.131735
0.0990683
0.0991579
0.0962373
0.096725
0.0945637
0.0943466
0.0935947
0.0935805
0.130485
0.130138
0.0985889
0.0988953
0.0961269
0.0979777
0.0972979
0.0974682
0.106094
0.124292
0.128026
0.0967772
0.0955503
0.0947724
0.0952976
0.125534
0.123742
0.12837
0.131421
0.107403
0.104798
0.108125
0.107554
0.108075
0.10742
0.107209
0.106715
0.106418
0.106074
0.105839
0.105622
0.105479
0.105374
0.105326
0.107545
0.104677
0.107951
0.107607
0.108071
0.107469
0.107245
0.106763
0.106463
0.106122
0.105886
0.10567
0.105527
0.105422
0.105374
0.109532
0.105825
0.108477
0.10809
0.108338
0.107707
0.107417
0.106915
0.106594
0.106243
0.106
0.10578
0.105636
0.105528
0.105479
0.104719
0.107543
0.10805
0.108187
0.1078
0.107496
0.107045
0.106726
0.106386
0.106146
0.105927
0.105782
0.105672
0.105622
0.116206
0.106631
0.108038
0.108421
0.108066
0.107775
0.107305
0.106975
0.106621
0.106378
0.106149
0.106003
0.105888
0.105839
0.106866
0.104427
0.107667
0.108247
0.10814
0.107913
0.107509
0.107198
0.106856
0.106623
0.106389
0.106245
0.106124
0.106074
0.121472
0.106423
0.108339
0.108371
0.108242
0.10785
0.107556
0.107201
0.106978
0.106731
0.106597
0.106466
0.106418
0.109819
0.105241
0.108196
0.108486
0.108403
0.108126
0.107852
0.107514
0.10731
0.107051
0.106918
0.106766
0.106715
0.118933
0.106797
0.108525
0.108524
0.108411
0.108249
0.107922
0.107782
0.107505
0.107423
0.10725
0.107209
0.112351
0.106369
0.108484
0.108536
0.108499
0.108382
0.108151
0.108075
0.107811
0.107714
0.107477
0.107419
0.132797
0.106393
0.106822
0.108216
0.108355
0.108262
0.108434
0.1082
0.108347
0.10808
0.108076
0.130318
0.123549
0.105256
0.106438
0.107682
0.108052
0.108066
0.1081
0.107621
0.107551
0.119782
0.120769
0.104446
0.106648
0.107562
0.108493
0.107966
0.108127
0.108276
0.116631
0.119601
0.104742
0.105839
0.104701
0.104789
0.125172
0.120238
0.119523
0.118859
0.107269
0.105939
0.106986
0.106735
0.106895
0.106366
0.106142
0.105704
0.105437
0.105126
0.104915
0.104716
0.104586
0.104489
0.104445
0.10759
0.105734
0.1069
0.106726
0.106891
0.106402
0.106171
0.105745
0.105477
0.105169
0.104958
0.10476
0.10463
0.104533
0.104489
0.109233
0.106037
0.107175
0.106963
0.107094
0.106585
0.106322
0.10588
0.105595
0.105279
0.105063
0.104861
0.10473
0.104631
0.104586
0.105964
0.106669
0.106984
0.107024
0.106678
0.106401
0.105998
0.105714
0.105406
0.105192
0.104991
0.104861
0.104761
0.104716
0.114755
0.106836
0.106943
0.107288
0.106921
0.106659
0.106235
0.105941
0.105621
0.105403
0.105194
0.105064
0.104959
0.104915
0.107668
0.106145
0.106929
0.107221
0.107028
0.106795
0.106421
0.106142
0.105831
0.105621
0.105409
0.10528
0.10517
0.105126
0.117976
0.10688
0.107222
0.107273
0.107084
0.106733
0.106464
0.106145
0.105944
0.105718
0.105598
0.105479
0.105437
0.108949
0.106674
0.107264
0.107323
0.107241
0.106958
0.106735
0.106425
0.106239
0.106003
0.105883
0.105749
0.105704
0.115755
0.107077
0.107345
0.107459
0.107251
0.107091
0.106804
0.106666
0.106408
0.106327
0.106176
0.106142
0.111542
0.107175
0.107014
0.107352
0.107335
0.107281
0.107038
0.106928
0.106687
0.10659
0.106408
0.106365
0.128856
0.107185
0.1071
0.107285
0.107237
0.107235
0.107299
0.107035
0.107101
0.106899
0.106895
0.126632
0.120489
0.106696
0.106894
0.106943
0.106954
0.106997
0.10697
0.106737
0.106732
0.11699
0.118028
0.106163
0.106848
0.106684
0.107187
0.106911
0.106987
0.108451
0.114453
0.11702
0.105981
0.106046
0.10576
0.105926
0.122632
0.11808
0.117662
0.116918
0.106236
0.104126
0.104837
0.104957
0.105273
0.105121
0.105071
0.104816
0.104646
0.104417
0.104256
0.104096
0.103991
0.10391
0.103873
0.106614
0.104052
0.104762
0.104935
0.105246
0.105132
0.105083
0.104841
0.104673
0.104449
0.104289
0.104131
0.104026
0.103946
0.10391
0.108224
0.104114
0.104879
0.105013
0.105336
0.105219
0.10517
0.104927
0.104757
0.104532
0.104372
0.104212
0.104108
0.104027
0.103991
0.104196
0.104482
0.10497
0.105227
0.105236
0.105193
0.104994
0.104834
0.104623
0.10447
0.104314
0.104212
0.104132
0.104096
0.112884
0.104579
0.104834
0.105302
0.105303
0.105314
0.105126
0.104979
0.104773
0.104626
0.10447
0.104372
0.10429
0.104256
0.106784
0.104395
0.104696
0.105181
0.105281
0.105334
0.105204
0.105088
0.104905
0.104774
0.104625
0.104533
0.10445
0.104417
0.115425
0.104645
0.10504
0.105325
0.105402
0.105335
0.105249
0.10509
0.104981
0.104837
0.104759
0.104675
0.104646
0.10744
0.104712
0.10494
0.105237
0.105382
0.105367
0.105337
0.105208
0.105129
0.104998
0.10493
0.104844
0.104816
0.113311
0.104828
0.105155
0.105364
0.105389
0.105407
0.105341
0.105319
0.105199
0.105174
0.105086
0.105071
0.109887
0.104918
0.104732
0.105163
0.105247
0.105333
0.10529
0.105309
0.105243
0.105223
0.105136
0.10512
0.125945
0.105064
0.104845
0.104957
0.105053
0.105193
0.105311
0.105235
0.105342
0.105252
0.105273
0.123841
0.117818
0.104743
0.104659
0.104708
0.104843
0.10498
0.105019
0.104943
0.104955
0.114834
0.115767
0.104409
0.104589
0.104493
0.104887
0.10477
0.104838
0.107218
0.112634
0.114986
0.104209
0.104121
0.104063
0.104123
0.120503
0.116379
0.115939
0.11525
0.105311
0.10306
0.103448
0.103698
0.103968
0.104009
0.104065
0.103959
0.103875
0.103732
0.103625
0.103511
0.103434
0.103373
0.103345
0.105714
0.10303
0.103391
0.103679
0.103941
0.104004
0.104065
0.103971
0.103891
0.103753
0.103648
0.103536
0.10346
0.1034
0.103373
0.107278
0.103027
0.103476
0.10369
0.103981
0.10403
0.104105
0.104015
0.103941
0.103807
0.103704
0.103594
0.10352
0.10346
0.103434
0.103122
0.103218
0.103666
0.103894
0.104019
0.104095
0.104043
0.103981
0.103863
0.103769
0.103664
0.103594
0.103536
0.103511
0.111715
0.103275
0.103514
0.103898
0.104011
0.104125
0.104095
0.104055
0.103951
0.103868
0.103769
0.103705
0.103648
0.103625
0.10586
0.103239
0.103413
0.103825
0.103965
0.104098
0.104104
0.104095
0.104015
0.103951
0.103864
0.103807
0.103754
0.103732
0.113975
0.103347
0.103645
0.103938
0.104067
0.104126
0.104141
0.104097
0.104056
0.103984
0.103942
0.103892
0.103875
0.106262
0.103445
0.103577
0.103846
0.104008
0.10408
0.104127
0.104107
0.104098
0.104046
0.104017
0.103973
0.103958
0.11186
0.103442
0.103754
0.103902
0.104012
0.104071
0.104104
0.10413
0.1041
0.104108
0.104068
0.104065
0.108581
0.103784
0.103376
0.103751
0.103851
0.103944
0.103972
0.104015
0.104024
0.104033
0.104008
0.104007
0.125349
0.103543
0.103434
0.103589
0.103654
0.103834
0.103905
0.103901
0.103985
0.103945
0.103967
0.122318
0.116279
0.103456
0.103356
0.103422
0.103521
0.103673
0.103694
0.103684
0.103696
0.113428
0.114411
0.103249
0.103283
0.103226
0.103482
0.103396
0.103448
0.106076
0.111369
0.11371
0.103131
0.103032
0.103036
0.103058
0.119327
0.115107
0.114777
0.114062
0.104385
0.102086
0.102182
0.102445
0.102625
0.102754
0.102854
0.102866
0.102855
0.102794
0.102739
0.102671
0.102622
0.102582
0.102563
0.104793
0.102076
0.102146
0.102433
0.102602
0.102745
0.102844
0.102866
0.10286
0.102803
0.102751
0.102686
0.102639
0.102599
0.102581
0.106285
0.102025
0.10222
0.102411
0.102619
0.102741
0.102853
0.102878
0.102881
0.10283
0.102783
0.102721
0.102677
0.102639
0.102622
0.10217
0.102064
0.102413
0.102557
0.102721
0.102828
0.102874
0.102889
0.102852
0.102815
0.10276
0.102721
0.102686
0.10267
0.110676
0.102162
0.102276
0.102545
0.102681
0.102817
0.102872
0.102906
0.102886
0.102861
0.102815
0.102783
0.102752
0.102738
0.104904
0.10221
0.102233
0.102515
0.102633
0.102778
0.102842
0.102895
0.102894
0.102886
0.102853
0.10283
0.102804
0.102793
0.112809
0.10223
0.10235
0.102598
0.10271
0.102814
0.10287
0.102897
0.102908
0.102891
0.102882
0.102861
0.102855
0.105197
0.102348
0.10235
0.102522
0.102654
0.102742
0.102814
0.102845
0.102874
0.102877
0.102879
0.102868
0.102865
0.110674
0.102249
0.102461
0.102547
0.102657
0.102712
0.102782
0.10282
0.102832
0.102855
0.102846
0.102853
0.107427
0.102415
0.102155
0.102468
0.102526
0.102601
0.102638
0.102684
0.102725
0.102743
0.102748
0.102753
0.122807
0.102641
0.102263
0.102353
0.102355
0.102521
0.102549
0.102562
0.102621
0.102605
0.102624
0.121092
0.115049
0.102353
0.102235
0.102239
0.102281
0.102418
0.102414
0.102437
0.102444
0.112265
0.113289
0.102217
0.102167
0.10207
0.102224
0.102149
0.102181
0.105054
0.110285
0.112624
0.102176
0.102028
0.10208
0.102084
0.118246
0.114007
0.113725
0.113019
0.103438
0.10108
0.10104
0.101306
0.101416
0.101579
0.101681
0.101756
0.101796
0.101796
0.101782
0.101753
0.101729
0.101707
0.101696
0.103848
0.101087
0.101017
0.101302
0.1014
0.101571
0.101671
0.101749
0.101793
0.101797
0.101786
0.101759
0.101737
0.101716
0.101706
0.105297
0.101001
0.10108
0.101262
0.101407
0.101551
0.101665
0.101741
0.101793
0.101803
0.101798
0.101775
0.101756
0.101737
0.101728
0.101182
0.100967
0.101277
0.101363
0.101531
0.101637
0.101722
0.101779
0.101801
0.101804
0.101789
0.101775
0.101759
0.101752
0.109649
0.101075
0.101147
0.101343
0.101479
0.101606
0.101695
0.101761
0.101795
0.10181
0.101805
0.101798
0.101786
0.101781
0.103925
0.101175
0.101113
0.101334
0.101434
0.101567
0.101652
0.101725
0.101766
0.101795
0.101801
0.101803
0.101797
0.101795
0.111714
0.101144
0.101178
0.1014
0.101486
0.101602
0.101668
0.101727
0.101761
0.101781
0.101794
0.101794
0.101796
0.10416
0.101267
0.101192
0.101331
0.101439
0.101527
0.101603
0.101653
0.101696
0.101724
0.101742
0.10175
0.101755
0.109568
0.101144
0.101296
0.101341
0.101441
0.101488
0.10157
0.101608
0.101639
0.101666
0.101672
0.101681
0.106352
0.101519
0.101012
0.101289
0.101331
0.101402
0.101438
0.101481
0.101533
0.101552
0.101572
0.101578
0.122873
0.101308
0.101123
0.101194
0.101182
0.101338
0.101346
0.101366
0.101408
0.101402
0.101415
0.119919
0.113903
0.101269
0.101147
0.101118
0.101151
0.10128
0.101264
0.101304
0.101305
0.111167
0.112221
0.10118
0.101079
0.100971
0.101082
0.101019
0.101039
0.104052
0.109238
0.111582
0.101185
0.101003
0.101089
0.101079
0.117178
0.112955
0.112693
0.112001
0.102479
0.100084
0.0999795
0.100231
0.100282
0.100445
0.100528
0.100627
0.100688
0.100731
0.100749
0.100751
0.100748
0.100741
0.100738
0.102889
0.100103
0.0999634
0.100232
0.100272
0.100438
0.100519
0.100618
0.100679
0.100726
0.100746
0.100751
0.100749
0.100744
0.100741
0.104314
0.100003
0.10002
0.100186
0.100275
0.100414
0.100507
0.100602
0.100667
0.100717
0.100743
0.100751
0.100753
0.100749
0.100747
0.100188
0.0999288
0.10021
0.100246
0.100399
0.100483
0.100579
0.100645
0.100698
0.100731
0.100745
0.100751
0.100751
0.10075
0.108637
0.100033
0.100088
0.100226
0.100346
0.100447
0.100542
0.100611
0.100669
0.100708
0.100731
0.100743
0.100746
0.100748
0.102941
0.100157
0.100057
0.100233
0.10031
0.100417
0.100498
0.100571
0.100626
0.100669
0.100698
0.100717
0.100726
0.10073
0.110662
0.100099
0.100088
0.100282
0.100338
0.100447
0.100504
0.100572
0.100612
0.100645
0.100668
0.10068
0.100687
0.103141
0.100218
0.100107
0.100222
0.100305
0.100382
0.100447
0.1005
0.100542
0.10058
0.100602
0.100619
0.100626
0.108507
0.100055
0.100197
0.100221
0.100307
0.100339
0.100419
0.100448
0.100484
0.100508
0.100519
0.100528
0.105298
0.100241
0.0999377
0.100204
0.100225
0.100283
0.100312
0.100348
0.1004
0.100414
0.100439
0.100444
0.120534
0.100428
0.100073
0.10011
0.10009
0.100236
0.100228
0.100248
0.100276
0.100272
0.100281
0.118815
0.112826
0.10022
0.100101
0.10006
0.100091
0.100212
0.100187
0.100233
0.10023
0.11011
0.111184
0.10016
0.100035
0.0999309
0.100022
0.099964
0.0999783
0.103054
0.108215
0.110562
0.10019
0.100004
0.100104
0.100083
0.11614
0.111929
0.11168
0.110996
0.101516
0.0990992
0.0989517
0.0991809
0.0991864
0.0993333
0.0993909
0.0994891
0.0995483
0.0996103
0.099649
0.0996743
0.0996864
0.0996922
0.0996944
0.101925
0.0991232
0.0989404
0.0991866
0.09918
0.0993294
0.0993837
0.0994813
0.0995398
0.0996019
0.0996423
0.0996693
0.0996827
0.0996894
0.0996919
0.103334
0.0990172
0.0989945
0.0991376
0.0991834
0.0993047
0.0993717
0.0994625
0.099524
0.0995856
0.0996283
0.0996584
0.0996743
0.0996825
0.0996859
0.099204
0.0989179
0.0991709
0.0991648
0.0992959
0.0993531
0.0994418
0.0995009
0.0995612
0.0996046
0.0996387
0.0996581
0.099669
0.0996734
0.107637
0.0990192
0.0990534
0.0991489
0.0992471
0.0993193
0.0994046
0.0994642
0.0995255
0.0995681
0.0996045
0.0996279
0.099642
0.0996481
0.101958
0.0991528
0.0990294
0.0991672
0.09922
0.0992995
0.0993685
0.0994285
0.0994834
0.0995255
0.0995612
0.0995853
0.0996016
0.0996093
0.109636
0.0990729
0.0990328
0.0991996
0.0992295
0.0993225
0.0993658
0.0994292
0.0994645
0.0995013
0.0995239
0.0995397
0.0995473
0.102137
0.0991982
0.099062
0.0991539
0.0992119
0.0992726
0.0993226
0.0993693
0.0994051
0.0994423
0.0994624
0.0994812
0.0994881
0.107474
0.0990336
0.0991481
0.0991417
0.0992126
0.0992302
0.0993007
0.0993201
0.099354
0.0993717
0.0993836
0.0993899
0.104275
0.0993786
0.0989074
0.0991441
0.0991542
0.0992006
0.0992215
0.099248
0.0992967
0.0993046
0.0993294
0.0993321
0.120501
0.0992369
0.0990216
0.0990626
0.0990346
0.0991693
0.0991503
0.0991656
0.0991834
0.0991797
0.0991851
0.117751
0.111771
0.0991989
0.0990748
0.0990316
0.0990551
0.0991712
0.0991372
0.0991861
0.0991796
0.10908
0.110162
0.0991552
0.0990206
0.0989186
0.0989944
0.09894
0.0989503
0.102063
0.107207
0.109554
0.0992049
0.0990172
0.0991228
0.0990978
0.115121
0.11092
0.110676
0.109998
0.100554
0.0981234
0.0979457
0.0981506
0.0981187
0.0982413
0.0982708
0.0983545
0.0984006
0.0984617
0.0985045
0.098544
0.0985665
0.0985808
0.0985867
0.100961
0.0981491
0.097939
0.0981588
0.0981162
0.0982401
0.0982665
0.0983488
0.0983937
0.0984537
0.0984958
0.0985361
0.0985593
0.0985742
0.0985806
0.102361
0.0980432
0.0979914
0.0981098
0.0981212
0.0982178
0.0982568
0.098332
0.0983786
0.0984365
0.098478
0.0985183
0.0985431
0.098559
0.098566
0.0982279
0.0979266
0.0981473
0.0981113
0.098216
0.0982457
0.0983168
0.0983601
0.0984143
0.0984536
0.0984921
0.0985178
0.0985357
0.0985432
0.106648
0.0980245
0.0980398
0.0981015
0.0981726
0.0982176
0.0982849
0.0983278
0.0983809
0.0984172
0.0984535
0.0984776
0.0984953
0.0985036
0.100981
0.0981632
0.0980234
0.0981279
0.0981568
0.0982087
0.0982596
0.0983019
0.0983471
0.0983807
0.0984142
0.0984361
0.0984532
0.0984607
0.108628
0.0980703
0.0980055
0.0981433
0.0981508
0.0982236
0.0982503
0.0983023
0.0983279
0.0983602
0.0983783
0.0983932
0.0983996
0.101143
0.0981847
0.098038
0.0981123
0.098147
0.0981914
0.0982237
0.09826
0.098285
0.0983169
0.0983316
0.0983483
0.0983534
0.106455
0.0980084
0.0981112
0.0980938
0.0981476
0.0981511
0.0982093
0.0982179
0.0982459
0.0982564
0.0982658
0.0982695
0.103265
0.0982372
0.097898
0.0981143
0.0981136
0.0981439
0.0981576
0.0981729
0.0982159
0.0982173
0.0982393
0.0982399
0.118643
0.0983368
0.0980177
0.0980391
0.0980063
0.0981294
0.0981026
0.0981108
0.0981202
0.0981152
0.0981172
0.116701
0.110742
0.0981857
0.0980712
0.0980257
0.0980441
0.0981431
0.0981079
0.0981574
0.098149
0.108064
0.109152
0.0981654
0.0980248
0.0979256
0.0979901
0.0979378
0.097944
0.101078
0.10621
0.108556
0.0982278
0.0980425
0.0981478
0.0981217
0.114116
0.109923
0.109681
0.109006
0.0995939
0.0971599
0.0969564
0.0971341
0.0970687
0.0971594
0.0971595
0.0972204
0.0972476
0.097297
0.0973325
0.0973725
0.097401
0.0974205
0.0974289
0.1
0.0971848
0.0969559
0.0971441
0.0970706
0.0971609
0.0971585
0.0972174
0.0972432
0.0972908
0.097325
0.0973635
0.0973919
0.0974116
0.0974205
0.101396
0.0970873
0.0970092
0.0971027
0.0970799
0.0971442
0.0971534
0.0972051
0.0972319
0.0972765
0.0973089
0.097345
0.0973719
0.0973917
0.0974007
0.0972648
0.096959
0.0971476
0.09708
0.0971493
0.0971507
0.0971972
0.0972206
0.0972604
0.0972891
0.0973215
0.0973447
0.0973631
0.0973719
0.105673
0.0970467
0.0970324
0.0970729
0.0971134
0.0971313
0.0971741
0.097197
0.0972349
0.0972596
0.0972889
0.0973084
0.0973244
0.0973318
0.100014
0.0971859
0.0970284
0.0971066
0.0971103
0.0971341
0.0971623
0.0971836
0.0972137
0.0972348
0.0972602
0.097276
0.0972901
0.097296
0.107636
0.09707
0.0969972
0.0971039
0.0970919
0.0971398
0.0971481
0.0971838
0.097197
0.0972204
0.0972314
0.0972424
0.0972466
0.10016
0.0971934
0.0970357
0.0970934
0.0971022
0.0971281
0.0971398
0.0971624
0.0971738
0.0971969
0.0972044
0.0972165
0.0972192
0.105447
0.0970232
0.0970996
0.0970694
0.0971023
0.0970919
0.0971342
0.0971312
0.0971503
0.0971526
0.0971574
0.0971582
0.102266
0.0973286
0.0969195
0.0970982
0.0970935
0.0971039
0.0971105
0.0971132
0.0971487
0.0971433
0.0971595
0.0971578
0.118143
0.097268
0.0970183
0.0970353
0.0969975
0.097107
0.0970729
0.0970793
0.0970786
0.0970692
0.0970671
0.115681
0.109724
0.0971936
0.0970702
0.0970288
0.0970326
0.0971462
0.0971014
0.0971423
0.0971325
0.107065
0.108151
0.0971862
0.0970466
0.096958
0.0970078
0.0969543
0.0969546
0.100101
0.105221
0.107567
0.0972639
0.0970861
0.097183
0.0971581
0.113123
0.108937
0.108692
0.108019
0.0986413
0.0962145
0.0959804
0.0961276
0.0960279
0.0960796
0.0960496
0.0960822
0.096088
0.0961195
0.0961429
0.0961745
0.0962003
0.0962223
0.0962323
0.0990474
0.0962371
0.0959889
0.0961384
0.096035
0.0960837
0.0960522
0.096082
0.0960865
0.0961159
0.0961376
0.0961672
0.0961913
0.0962123
0.0962223
0.100444
0.0961591
0.0960477
0.0961117
0.0960509
0.0960763
0.0960536
0.0960762
0.0960809
0.0961069
0.0961259
0.0961524
0.096173
0.0961911
0.0961999
0.0963243
0.096017
0.0961547
0.096063
0.0960883
0.0960602
0.0960768
0.096078
0.0960988
0.0961137
0.0961357
0.0961522
0.0961668
0.096174
0.104715
0.0960898
0.0960442
0.0960599
0.0960625
0.0960519
0.0960652
0.0960661
0.0960845
0.0960951
0.0961135
0.0961255
0.096137
0.0961422
0.099063
0.0962294
0.0960472
0.0961002
0.0960737
0.0960677
0.0960688
0.0960669
0.0960782
0.0960844
0.0960985
0.0961063
0.0961152
0.0961187
0.106662
0.0960796
0.0960059
0.0960756
0.0960446
0.0960629
0.0960515
0.096067
0.0960659
0.0960775
0.0960803
0.0960855
0.096087
0.0991891
0.0962173
0.0960516
0.0960902
0.0960708
0.0960746
0.0960629
0.0960686
0.0960647
0.0960762
0.0960753
0.0960808
0.096081
0.104448
0.0960503
0.0961031
0.0960628
0.0960708
0.0960444
0.0960674
0.0960513
0.0960594
0.0960526
0.0960508
0.0960484
0.101278
0.0963114
0.0959689
0.0961034
0.0960902
0.0960753
0.0960734
0.0960618
0.0960873
0.096075
0.0960821
0.0960781
0.11677
0.0963395
0.0960517
0.0960513
0.0960057
0.0960997
0.0960592
0.0960618
0.0960495
0.0960331
0.0960264
0.114658
0.108721
0.0962172
0.096079
0.0960466
0.0960435
0.0961532
0.0961103
0.0961363
0.096126
0.106083
0.107158
0.0962288
0.0960888
0.0960156
0.096046
0.0959868
0.0959787
0.0991334
0.104242
0.10659
0.0963228
0.0961574
0.0962349
0.0962127
0.112144
0.107964
0.107712
0.107035
0.097701
0.0952957
0.0950163
0.0951276
0.0949885
0.0949953
0.0949342
0.0949354
0.0949185
0.0949296
0.0949393
0.094959
0.094977
0.0949954
0.0950064
0.0981069
0.0953182
0.0950337
0.0951405
0.0950009
0.0950025
0.0949408
0.0949382
0.0949203
0.094929
0.0949368
0.0949543
0.0949702
0.0949862
0.0949955
0.0995152
0.0952759
0.0951122
0.0951388
0.0950294
0.095008
0.0949509
0.0949406
0.0949218
0.0949263
0.0949311
0.0949452
0.0949576
0.09497
0.0949768
0.0954265
0.0951109
0.0951741
0.0950568
0.0950272
0.0949674
0.0949503
0.094928
0.094927
0.0949275
0.094937
0.0949451
0.094954
0.0949585
0.103785
0.0951621
0.0950714
0.0950586
0.0950141
0.094972
0.0949521
0.0949296
0.0949258
0.0949211
0.0949272
0.0949307
0.0949362
0.0949386
0.0981384
0.095303
0.0950788
0.095106
0.0950414
0.0950028
0.0949723
0.0949458
0.0949356
0.0949257
0.0949267
0.0949258
0.0949281
0.0949289
0.105715
0.0951014
0.0950307
0.095055
0.0950023
0.0949862
0.094953
0.0949457
0.0949292
0.0949274
0.094921
0.0949191
0.0949175
0.0982353
0.0952576
0.0950892
0.0951003
0.0950485
0.0950239
0.0949861
0.094972
0.0949514
0.0949494
0.0949395
0.0949369
0.0949342
0.103458
0.0951109
0.095128
0.0950709
0.0950483
0.0950018
0.0950021
0.0949711
0.0949662
0.0949495
0.094939
0.094933
0.100299
0.0953943
0.0950601
0.0951282
0.0951001
0.0950543
0.0950406
0.0950129
0.0950257
0.0950064
0.0950005
0.0949939
0.115822
0.095397
0.0951114
0.0950886
0.09503
0.095105
0.0950573
0.0950551
0.0950276
0.0949987
0.0949872
0.113657
0.10773
0.0952571
0.0951003
0.0950776
0.0950699
0.0951721
0.0951369
0.0951379
0.0951263
0.105126
0.106179
0.0953018
0.0951603
0.095109
0.09511
0.0950313
0.0950146
0.0981827
0.103275
0.10563
0.0954242
0.0952737
0.0953152
0.0952939
0.111184
0.107008
0.106741
0.106057
0.0967761
0.0944188
0.094057
0.0941353
0.0939397
0.0938976
0.0938036
0.0937751
0.0937356
0.0937263
0.0937233
0.0937301
0.0937391
0.0937506
0.093759
0.0971828
0.0944472
0.0940873
0.0941527
0.0939565
0.0939078
0.0938141
0.0937807
0.0937407
0.0937285
0.0937237
0.0937283
0.0937354
0.0937445
0.0937506
0.0986203
0.0944717
0.0942093
0.0941842
0.0940075
0.0939306
0.0938356
0.0937923
0.0937503
0.0937328
0.0937244
0.0937256
0.0937293
0.0937353
0.0937391
0.0946108
0.0942548
0.0942112
0.0940565
0.093958
0.0938623
0.0938109
0.0937658
0.0937422
0.0937293
0.0937258
0.0937255
0.093728
0.0937298
0.102904
0.094279
0.0941128
0.0940646
0.0939599
0.0938816
0.0938272
0.0937817
0.0937548
0.0937348
0.0937289
0.093724
0.0937231
0.0937228
0.0972624
0.0944256
0.0941228
0.0941234
0.0940056
0.0939316
0.0938653
0.0938138
0.0937808
0.0937546
0.0937419
0.0937322
0.0937275
0.0937256
0.104814
0.0941411
0.0940712
0.0940376
0.0939569
0.093902
0.0938451
0.0938135
0.0937812
0.093765
0.0937493
0.0937395
0.0937349
0.0973097
0.0943164
0.0941529
0.0941217
0.0940294
0.0939689
0.0939018
0.0938648
0.0938264
0.0938097
0.0937911
0.0937792
0.0937739
0.102474
0.0942129
0.0941758
0.0940899
0.0940289
0.0939562
0.0939306
0.0938804
0.0938607
0.093834
0.0938121
0.0938026
0.0993332
0.0945553
0.09421
0.0941755
0.094121
0.0940365
0.0940043
0.0939581
0.0939563
0.0939289
0.0939055
0.0938962
0.114695
0.0945384
0.0942107
0.0941516
0.09407
0.094122
0.0940629
0.0940543
0.0940052
0.093954
0.0939384
0.112644
0.106753
0.0943151
0.0941395
0.094121
0.0941107
0.0942086
0.0941818
0.0941495
0.0941338
0.104208
0.105221
0.0944238
0.0942765
0.0942522
0.0942065
0.0940843
0.0940556
0.0972611
0.102328
0.104699
0.0946076
0.0944688
0.0944432
0.094417
0.11025
0.106078
0.105788
0.105084
0.0958726
0.0936088
0.0930647
0.0931585
0.0928503
0.092803
0.092652
0.0926006
0.0925361
0.0925072
0.092495
0.0924906
0.0924912
0.0924963
0.0925005
0.0962769
0.0936482
0.0931141
0.0931697
0.0928794
0.0928119
0.092667
0.0926083
0.0925444
0.0925117
0.0924979
0.0924914
0.0924905
0.0924932
0.0924961
0.0977785
0.09381
0.0933229
0.0932481
0.0929714
0.0928499
0.0927074
0.0926293
0.092563
0.0925228
0.0925046
0.0924944
0.0924905
0.0924905
0.0924913
0.0939528
0.0934561
0.0932604
0.0930537
0.0928763
0.0927497
0.0926547
0.0925874
0.0925398
0.0925165
0.0925021
0.0924944
0.0924911
0.0924903
0.102104
0.0934443
0.0931444
0.0930621
0.0928847
0.0927835
0.0926842
0.0926173
0.0925658
0.0925309
0.0925162
0.0925041
0.0924972
0.0924946
0.0964744
0.0936317
0.0931576
0.0931674
0.0929539
0.0928517
0.0927405
0.0926644
0.0926081
0.0925655
0.0925396
0.092522
0.0925107
0.0925064
0.10399
0.0931955
0.0931149
0.0930163
0.0928977
0.0928012
0.0927191
0.0926642
0.0926167
0.0925863
0.0925618
0.092543
0.0925354
0.0964427
0.0934103
0.093245
0.0931552
0.0930033
0.0929014
0.0928008
0.0927399
0.0926831
0.0926533
0.0926278
0.0926065
0.0925994
0.101484
0.093364
0.0932455
0.0931154
0.0930024
0.0928968
0.0928505
0.092782
0.0927478
0.0927054
0.0926649
0.0926509
0.0983525
0.0938592
0.0934486
0.0932463
0.0931544
0.0930149
0.0929523
0.0928828
0.0928738
0.0928475
0.0928091
0.0928013
0.113237
0.0938743
0.0933658
0.093244
0.0931134
0.0931657
0.09306
0.0930509
0.0929686
0.0928764
0.0928492
0.111618
0.105873
0.0934085
0.0931932
0.0931554
0.0931418
0.0932569
0.0932452
0.0931656
0.0931567
0.103362
0.104305
0.0936293
0.0934411
0.0934525
0.0933195
0.0931099
0.0930638
0.0964006
0.101413
0.103819
0.0939482
0.0938061
0.0936429
0.0936072
0.109342
0.105188
0.104856
0.104111
0.0950074
0.0928915
0.0920233
0.0921607
0.0917254
0.0916693
0.0914721
0.0914083
0.0913245
0.0912879
0.0912574
0.0912437
0.0912359
0.0912367
0.0912377
0.0953924
0.0929318
0.0921006
0.0921593
0.0917611
0.0916738
0.0914896
0.091416
0.0913344
0.091294
0.0912627
0.0912466
0.0912379
0.0912351
0.0912362
0.0970355
0.0933869
0.0924832
0.0923149
0.0919154
0.0917341
0.0915515
0.0914458
0.0913622
0.0913109
0.091276
0.0912548
0.0912434
0.0912379
0.0912362
0.0935711
0.0927682
0.0922958
0.0920354
0.0917556
0.0916045
0.0914746
0.0913931
0.0913333
0.0912952
0.0912693
0.0912549
0.0912463
0.0912433
0.101403
0.0926473
0.0921584
0.0920453
0.0917755
0.0916538
0.0915159
0.091436
0.0913692
0.0913262
0.0912951
0.0912755
0.0912619
0.0912568
0.0958587
0.0929678
0.0921758
0.0921988
0.0918701
0.0917421
0.0915898
0.0914955
0.0914208
0.0913688
0.0913326
0.0913099
0.0912928
0.0912869
0.103306
0.0922543
0.0921647
0.0919636
0.09181
0.0916725
0.0915708
0.091495
0.0914352
0.0913919
0.0913609
0.0913329
0.0913234
0.0957241
0.0925849
0.0923232
0.0921785
0.0919421
0.09181
0.0916722
0.0915889
0.0915145
0.0914728
0.0914439
0.0914138
0.0914067
0.100526
0.0925932
0.0922452
0.092092
0.0919408
0.091809
0.0917405
0.091652
0.0916022
0.0915491
0.0914872
0.0914709
0.0972582
0.0936328
0.0928081
0.0922451
0.0921777
0.0919621
0.0918685
0.0917733
0.0917523
0.091731
0.0916703
0.0916672
0.111415
0.0936316
0.092593
0.0923215
0.0921633
0.092197
0.092043
0.0920317
0.0919117
0.0917577
0.0917245
0.110523
0.104903
0.0925841
0.0922521
0.0921736
0.0921554
0.092291
0.0923111
0.0921537
0.0921587
0.10264
0.103505
0.0929648
0.0926433
0.0927637
0.0924791
0.0920958
0.0920226
0.0957054
0.100589
0.103023
0.0935636
0.0933826
0.0929231
0.0928904
0.108427
0.10439
0.103969
0.103145
0.0942579
0.0922663
0.0909009
0.0911162
0.0905473
0.0904894
0.0902588
0.0901884
0.0900928
0.0900513
0.0900139
0.0899957
0.0899835
0.0899784
0.0899761
0.0945852
0.0922371
0.0909983
0.0910822
0.0905777
0.0904852
0.0902752
0.0901948
0.0901032
0.090058
0.0900201
0.0899999
0.0899869
0.0899806
0.0899779
0.0965474
0.0934225
0.0916673
0.0913443
0.0908237
0.0905699
0.0903627
0.0902326
0.0901396
0.0900788
0.0900379
0.0900115
0.089996
0.0899869
0.0899831
0.0937735
0.0921996
0.0912263
0.0909552
0.0905746
0.0904168
0.0902608
0.0901727
0.0901035
0.09006
0.0900292
0.0900114
0.0899994
0.089995
0.100818
0.0918157
0.0911003
0.0909982
0.090612
0.0904843
0.0903123
0.0902268
0.0901463
0.090099
0.0900598
0.0900374
0.0900193
0.090013
0.0956657
0.0924504
0.0911482
0.0911919
0.0907395
0.0905874
0.0904016
0.0902936
0.090205
0.0901459
0.0901026
0.0900776
0.0900565
0.09005
0.102838
0.0913255
0.091237
0.0908852
0.0906945
0.0905064
0.0903896