/*--------------------------------*- C++ -*----------------------------------*\
| =========                 |                                                 |
| \\      /  F ield         | OpenFOAM: The Open Source CFD Toolbox           |
|  \\    /   O peration     | Version:  2.1.1                                 |
|   \\  /    A nd           | Web:      www.OpenFOAM.org                      |
|    \\/     M anipulation  |                                                 |
\*---------------------------------------------------------------------------*/
FoamFile
{
    version     2.0;
    format      ascii;
    class       surfaceScalarField;
    location    "0.003";
    object      phi;
}
// * * * * * * * * * * * * * * * * * * * * * * * * * * * * * * * * * * * * * //

dimensions      [0 3 -1 0 0 0 0];

internalField   nonuniform List<scalar> 
29937
(
-2.29923e-13
-2.29705e-13
1.17587e-09
-4.90587e-13
-2.24117e-13
1.17546e-09
-7.66645e-13
-2.33225e-13
1.17514e-09
-1.09617e-12
-2.17658e-13
1.17505e-09
-1.476e-12
-2.3249e-13
1.17525e-09
-1.94929e-12
-1.8625e-13
1.17583e-09
-2.45539e-12
-2.34481e-13
1.17674e-09
-3.10473e-12
-8.98866e-14
1.17835e-09
-3.75266e-12
-2.92552e-13
1.18013e-09
-4.95718e-12
1.41174e-13
1.18285e-09
-6.13344e-12
-7.99672e-13
1.18338e-09
-6.80573e-12
8.06224e-13
1.19764e-09
-5.07545e-12
-1.42321e-13
1.22198e-09
6.85717e-11
2.30968e-12
9.81332e-10
6.89387e-11
-6.70007e-11
-6.70665e-11
-4.32763e-11
1.85356e-12
9.88821e-11
-9.60258e-12
1.50955e-11
1.51193e-11
-9.49939e-12
-2.2496e-13
-4.90402e-13
1.17548e-09
-4.77466e-13
-4.77082e-13
1.17529e-09
-7.53154e-13
-4.91369e-13
1.17509e-09
-1.07667e-12
-4.62623e-13
1.17506e-09
-1.44281e-12
-4.90255e-13
1.17533e-09
-1.88857e-12
-4.10929e-13
1.17591e-09
-2.36153e-12
-5.02395e-13
1.17685e-09
-2.98087e-12
-2.47846e-13
1.1784e-09
-3.65068e-12
-6.09068e-13
1.18017e-09
-4.93396e-12
3.00899e-13
1.18293e-09
-5.82936e-12
-1.54787e-12
1.18771e-09
-6.13499e-12
2.04293e-12
1.21408e-09
-4.56633e-12
-1.46981e-12
1.20297e-09
6.96613e-11
4.96226e-11
7.98026e-10
7.22823e-11
-6.58641e-11
-7.0684e-11
7.46756e-11
-4.69922e-11
-7.03254e-11
-4.50846e-11
-6.58284e-12
1.53159e-11
9.56927e-11
-1.07977e-11
1.56401e-11
1.60489e-11
-1.05716e-11
-2.34771e-13
-7.66686e-13
1.17516e-09
-4.92604e-13
-7.52431e-13
1.17516e-09
-7.79292e-13
-7.77841e-13
1.17518e-09
-1.10965e-12
-7.33905e-13
1.1752e-09
-1.51733e-12
-7.48107e-13
1.17561e-09
-1.97885e-12
-6.43716e-13
1.17626e-09
-2.58563e-12
-6.60154e-13
1.17748e-09
-3.19461e-12
-3.85385e-13
1.17906e-09
-4.20583e-12
-4.18569e-13
1.18167e-09
-5.18559e-12
4.85624e-13
1.18481e-09
-5.96389e-12
-3.77558e-13
1.19557e-09
-2.44927e-12
1.46127e-12
1.20396e-09
4.78679e-11
2.29232e-12
9.63362e-10
6.15371e-11
-4.67376e-11
-6.0644e-11
-5.79996e-11
1.61759e-11
8.25782e-12
1.31057e-10
-3.96363e-11
-2.19521e-11
6.71284e-11
-1.91291e-11
-8.87062e-12
1.03548e-11
1.25648e-11
-8.11201e-12
-1.11301e-11
1.10514e-11
1.60285e-11
-8.2979e-12
-2.18411e-13
-1.09584e-12
1.17505e-09
-4.6336e-13
-1.07558e-12
1.17508e-09
-7.35181e-13
-1.10704e-12
1.17526e-09
-1.0483e-12
-1.04606e-12
1.17538e-09
-1.42793e-12
-1.05414e-12
1.17586e-09
-1.83331e-12
-9.62598e-13
1.17646e-09
-2.34319e-12
-9.16552e-13
1.17768e-09
-2.79839e-12
-7.22085e-13
1.17907e-09
-3.59423e-12
-4.83096e-13
1.18124e-09
-4.36195e-12
-2.13885e-14
1.18321e-09
-5.24589e-12
1.77424e-13
1.19438e-09
-2.05988e-12
-1.25102e-13
1.21218e-09
6.44156e-11
2.63909e-12
9.68219e-10
6.67236e-11
-6.286e-11
-6.51182e-11
-4.98001e-11
-5.34397e-12
1.80992e-11
1.14129e-12
1.0032e-10
2.16386e-12
-3.38333e-13
-1.36043e-11
2.43654e-12
-1.61127e-14
9.35839e-12
-2.32612e-13
-1.47521e-12
1.17526e-09
-4.90863e-13
-1.44115e-12
1.17533e-09
-7.50617e-13
-1.51363e-12
1.17563e-09
-1.05807e-12
-1.42404e-12
1.17586e-09
-1.4462e-12
-1.44089e-12
1.17657e-09
-1.86412e-12
-1.34961e-12
1.17723e-09
-2.39609e-12
-1.26582e-12
1.17861e-09
-2.88943e-12
-1.06175e-12
1.17993e-09
-3.54892e-12
-7.50337e-13
1.18206e-09
-4.56757e-12
-4.76083e-13
1.18289e-09
-5.45023e-12
3.03374e-13
1.19707e-09
-3.07992e-12
-6.11326e-13
1.22233e-09
6.66086e-11
4.41351e-12
9.78766e-10
6.75374e-11
-6.56253e-11
-6.52398e-11
-5.67316e-11
1.77922e-11
-5.55413e-12
1.09049e-10
2.05321e-12
1.44152e-13
-9.12341e-13
-1.32878e-11
1.23128e-12
1.38999e-12
1.14347e-11
-1.84368e-13
-1.94742e-12
1.17583e-09
-4.09219e-13
-1.8873e-12
1.17591e-09
-6.45168e-13
-1.97431e-12
1.17626e-09
-9.66669e-13
-1.8282e-12
1.17646e-09
-1.35507e-12
-1.85656e-12
1.17721e-09
-1.77315e-12
-1.76735e-12
1.17796e-09
-2.27029e-12
-1.62943e-12
1.17948e-09
-2.62759e-12
-1.52627e-12
1.18062e-09
-3.34861e-12
-1.03865e-12
1.18176e-09
-3.99924e-12
-1.4925e-12
1.1845e-09
-5.05565e-12
2.32032e-13
1.20745e-09
-3.63336e-12
-6.66413e-13
1.19645e-09
6.71221e-11
4.69113e-11
8.07865e-10
6.79979e-11
-6.40678e-11
-6.59904e-11
6.70266e-11
-4.46927e-11
-6.25853e-11
-4.97544e-11
-1.80404e-13
6.11996e-12
1.02049e-10
-9.85402e-12
1.39773e-11
1.44437e-11
-9.67998e-12
-2.29591e-13
-2.45272e-12
1.17675e-09
-4.99621e-13
-2.35869e-12
1.17685e-09
-6.6152e-13
-2.58129e-12
1.17748e-09
-9.23058e-13
-2.33867e-12
1.1777e-09
-1.27655e-12
-2.38656e-12
1.17861e-09
-1.64192e-12
-2.26153e-12
1.17945e-09
-2.11263e-12
-2.10164e-12
1.18121e-09
-2.68353e-12
-2.04781e-12
1.18197e-09
-2.94071e-12
-2.19361e-12
1.18405e-09
-4.66009e-12
-1.55036e-12
1.19557e-09
-1.25062e-12
-2.26367e-12
1.20536e-09
4.76778e-11
2.98065e-12
9.44786e-10
6.21013e-11
-4.69375e-11
-6.11937e-11
-6.03444e-11
1.39822e-11
6.09781e-12
1.34854e-10
1.1115e-11
-1.161e-11
-1.29095e-11
2.61904e-12
1.04497e-12
9.74055e-12
-8.35835e-14
-3.09998e-12
1.17836e-09
-2.36058e-13
-2.98407e-12
1.1784e-09
-3.76287e-13
-3.19157e-12
1.17906e-09
-7.23663e-13
-2.79436e-12
1.17909e-09
-1.07127e-12
-2.87912e-12
1.17993e-09
-1.53934e-12
-2.61607e-12
1.18061e-09
-2.0602e-12
-2.66839e-12
1.18196e-09
-2.7354e-12
-2.72622e-12
1.18364e-09
-4.00341e-12
-2.76092e-12
1.19554e-09
-3.64001e-12
-1.89387e-12
1.22459e-09
-2.08281e-12
-8.88251e-13
1.19067e-09
6.42528e-11
4.64622e-11
8.22301e-10
6.43586e-11
-6.13551e-11
-6.18931e-11
6.82818e-11
-4.52486e-11
-6.38412e-11
-4.49233e-11
-2.99346e-12
7.18664e-12
9.63965e-11
-9.6055e-12
1.20642e-11
1.3721e-11
-7.5936e-12
-1.91797e-13
-6.56648e-13
-1.5322e-12
2.38064e-12
-2.80548e-13
-3.74521e-12
1.18014e-09
-6.00131e-13
-3.6544e-12
1.18017e-09
-4.13375e-13
-4.20604e-12
1.18167e-09
-4.85205e-13
-3.59259e-12
1.18125e-09
-7.60591e-13
-3.54339e-12
1.1821e-09
-1.05827e-12
-3.33729e-12
1.18179e-09
-2.21312e-12
-2.92609e-12
1.1841e-09
-2.79371e-12
-3.98286e-12
1.19563e-09
-2.77963e-12
-2.7708e-12
1.22794e-09
-1.6072e-12
-1.84319e-12
1.18047e-09
4.46152e-11
4.93057e-11
7.62837e-10
6.79589e-11
-4.40824e-11
-6.52582e-11
6.72953e-11
-4.63942e-11
-6.44442e-11
-7.11039e-11
5.41165e-12
8.92185e-12
1.47848e-10
9.07618e-12
-1.10543e-11
-1.05272e-11
-1.18696e-12
1.24582e-12
1.24464e-11
1.65237e-13
-4.94819e-12
1.18284e-09
3.24895e-13
-4.94172e-12
1.18291e-09
4.95925e-13
-5.19113e-12
1.1848e-09
-1.90891e-14
-4.36428e-12
1.1832e-09
-4.83243e-13
-4.56665e-12
1.18292e-09
-1.50855e-12
-3.99205e-12
1.18453e-09
-1.57517e-12
-4.64477e-12
1.19565e-09
-1.89984e-12
-3.63072e-12
1.2248e-09
-1.84697e-12
-1.60564e-12
1.18055e-09
5.04901e-11
5.05426e-11
7.69259e-10
6.83414e-11
-4.82577e-11
-6.67235e-11
6.84563e-11
-4.8308e-11
-6.68265e-11
-6.22149e-11
1.52319e-11
1.5507e-11
1.31272e-10
-3.4605e-11
-1.91769e-11
6.07833e-11
-1.83506e-11
-9.52785e-12
1.40793e-11
1.21755e-11
-1.0493e-11
-7.65095e-12
9.03878e-12
1.06136e-11
-6.8862e-12
-7.79526e-13
-6.11984e-12
1.18336e-09
-1.52739e-12
-5.84167e-12
1.18767e-09
-3.7408e-13
-5.96878e-12
1.19555e-09
1.75836e-13
-5.2493e-12
1.19436e-09
2.92539e-13
-5.45284e-12
1.19709e-09
2.12369e-13
-5.05102e-12
1.20751e-09
-2.28314e-12
-1.24613e-12
1.20549e-09
-9.01157e-13
-2.0774e-12
1.19108e-09
4.92967e-11
4.45897e-11
7.63365e-10
6.79508e-11
-4.40627e-11
-6.5253e-11
6.73239e-11
-4.63724e-11
-6.44786e-11
-6.22761e-11
1.54987e-11
1.52346e-11
1.31383e-10
-3.63223e-11
6.46192e-11
-1.89321e-11
-1.89397e-11
-8.49757e-12
9.6596e-12
1.13065e-11
-7.68887e-12
-8.51503e-12
9.69148e-12
1.13354e-11
-7.71673e-12
8.26957e-13
-6.79348e-12
1.19757e-09
2.06388e-12
-6.14736e-12
1.21399e-09
1.45791e-12
-2.44885e-12
1.2039e-09
-1.12796e-13
-2.06096e-12
1.21212e-09
-6.12346e-13
-3.08725e-12
1.22235e-09
-6.745e-13
-3.63158e-12
1.1965e-09
2.97087e-12
4.76725e-11
9.4488e-10
6.20963e-11
-4.69312e-11
-6.1186e-11
4.64725e-11
6.42463e-11
8.22442e-10
6.8289e-11
-4.52609e-11
-6.38478e-11
6.43512e-11
-6.13492e-11
-6.18904e-11
-7.11188e-11
8.91969e-12
5.40227e-12
1.4786e-10
-3.46434e-11
-1.91657e-11
6.07943e-11
-1.833e-11
-7.65656e-12
9.05173e-12
1.06168e-11
-6.89232e-12
-9.52717e-12
1.4072e-11
1.21718e-11
-1.04915e-11
-1.32578e-13
-5.06054e-12
1.22184e-09
-1.45371e-12
-4.58347e-12
1.20279e-09
2.27774e-12
4.78576e-11
9.63327e-10
6.15273e-11
-4.67251e-11
-6.06411e-11
2.64939e-12
6.44123e-11
9.68176e-10
6.67186e-11
-6.28524e-11
-6.51172e-11
4.41988e-12
6.66051e-11
9.78767e-10
6.75324e-11
-6.56225e-11
-6.52379e-11
4.69109e-11
6.71196e-11
8.0788e-10
6.70257e-11
-4.46933e-11
-6.25823e-11
6.79945e-11
-6.4064e-11
-6.59877e-11
-6.03404e-11
6.09897e-12
1.39793e-11
1.34846e-10
-4.49136e-11
-2.99409e-12
7.18255e-12
9.63856e-11
-9.60503e-12
1.2063e-11
1.37211e-11
-7.59343e-12
9.0756e-12
-1.05254e-11
-1.10551e-11
1.24651e-12
-1.18717e-12
1.24456e-11
2.3163e-12
6.85699e-11
9.81032e-10
6.88922e-11
-6.69873e-11
-6.70354e-11
4.96414e-11
6.96359e-11
7.97761e-10
7.22655e-11
-6.58276e-11
-7.06734e-11
7.46881e-11
-4.7005e-11
-7.03337e-11
-5.79901e-11
8.26786e-12
1.61726e-11
1.31049e-10
-4.97971e-11
-5.34703e-12
1.14364e-12
1.8098e-11
1.00315e-10
-5.67289e-11
-5.55205e-12
1.77886e-11
1.09045e-10
2.05183e-12
-4.97535e-11
-1.81033e-13
6.11992e-12
1.02047e-10
-9.85375e-12
1.39769e-11
1.4443e-11
-9.67952e-12
1.11145e-11
-1.29086e-11
-1.16097e-11
1.04497e-12
2.61887e-12
9.74001e-12
-1.91658e-13
-1.53232e-12
-6.56453e-13
2.38043e-12
-4.32629e-11
1.85669e-12
9.88538e-11
-9.5975e-12
1.51033e-11
1.51091e-11
-9.50058e-12
-4.50497e-11
-6.58638e-12
1.53241e-11
9.56359e-11
-1.07935e-11
1.56279e-11
1.60408e-11
-1.05634e-11
-3.96334e-11
-2.19563e-11
6.71265e-11
-1.91278e-11
-1.113e-11
1.10523e-11
1.60293e-11
-8.29865e-12
-8.8705e-12
1.0355e-11
1.25648e-11
-8.11129e-12
2.16384e-12
-3.38312e-13
-1.36039e-11
-1.59444e-14
2.43633e-12
9.358e-12
1.44168e-13
-1.32875e-11
-9.12213e-13
1.38997e-12
1.23117e-12
1.14344e-11
-4.71249e-14
-4.7907e-14
1.17598e-09
-1.06415e-13
-4.58412e-14
1.17557e-09
-1.68257e-13
-5.06049e-14
1.17526e-09
-2.39489e-13
-4.52327e-14
1.17517e-09
-3.23122e-13
-5.35637e-14
1.1754e-09
-4.24508e-13
-3.63009e-14
1.17597e-09
-5.26171e-13
-6.53198e-14
1.17691e-09
-6.38229e-13
-3.49284e-15
1.17847e-09
-6.65202e-13
-1.18491e-13
1.18028e-09
-8.54352e-13
1.79131e-13
1.18286e-09
-1.10254e-12
-4.61223e-13
1.18409e-09
-2.13799e-12
5.01317e-13
1.19817e-09
-8.60444e-13
-1.09468e-12
1.22179e-09
6.68127e-11
1.48108e-12
9.77604e-10
6.7151e-11
-6.62366e-11
-6.63461e-11
-4.40465e-11
1.70554e-12
9.97404e-11
-9.94691e-12
1.45906e-11
1.46208e-11
-9.84939e-12
-4.53974e-14
-1.07263e-13
1.17559e-09
-1.01993e-13
-1.02539e-13
1.17541e-09
-1.64595e-13
-1.0922e-13
1.17521e-09
-2.3539e-13
-1.00182e-13
1.17519e-09
-3.15176e-13
-1.15642e-13
1.17547e-09
-4.07626e-13
-8.77427e-14
1.17605e-09
-4.96759e-13
-1.43889e-13
1.17702e-09
-5.86177e-13
-4.52227e-14
1.17853e-09
-6.38163e-13
-2.70705e-13
1.18037e-09
-9.67026e-13
3.20136e-13
1.18311e-09
-1.4197e-12
-8.71607e-13
1.18858e-09
-2.8691e-12
1.93604e-12
1.21409e-09
-1.63619e-12
-2.46546e-12
1.20311e-09
6.73494e-11
4.83891e-11
7.94319e-10
7.05578e-11
-6.54356e-11
-7.00426e-11
7.25019e-11
-4.84571e-11
-7.1312e-11
-4.61048e-11
-6.25622e-12
1.45777e-11
9.65681e-11
-1.11322e-11
1.5072e-11
1.55638e-11
-1.09395e-11
-5.08238e-14
-1.69181e-13
1.17527e-09
-1.09691e-13
-1.64732e-13
1.17528e-09
-1.76421e-13
-1.75476e-13
1.17532e-09
-2.47861e-13
-1.65038e-13
1.17534e-09
-3.47841e-13
-1.74549e-13
1.17577e-09
-4.41219e-13
-1.44024e-13
1.17641e-09
-5.94873e-13
-1.67937e-13
1.17766e-09
-6.57782e-13
-8.71404e-14
1.17917e-09
-9.2605e-13
-1.70538e-13
1.18184e-09
-9.75993e-13
2.50974e-13
1.18492e-09
-2.0927e-12
-1.10171e-13
1.19593e-09
3.88601e-13
1.04339e-12
1.20237e-09
4.71325e-11
8.57022e-13
9.60801e-10
6.08753e-11
-4.76816e-11
-6.06983e-11
-5.95741e-11
1.48797e-11
6.57107e-12
1.33645e-10
-4.03551e-11
-2.05163e-11
6.7542e-11
-1.77033e-11
-9.09212e-12
1.00893e-11
1.20841e-11
-8.34443e-12
-1.13465e-11
1.05939e-11
1.54886e-11
-8.44015e-12
-4.47982e-14
-2.4013e-13
1.17518e-09
-1.0017e-13
-2.35171e-13
1.17521e-09
-1.65851e-13
-2.46072e-13
1.1754e-09
-2.36101e-13
-2.34419e-13
1.17552e-09
-3.32121e-13
-2.36851e-13
1.17602e-09
-4.12126e-13
-2.21804e-13
1.17661e-09
-5.46275e-13
-2.05762e-13
1.17785e-09
-5.57812e-13
-2.01595e-13
1.1792e-09
-7.53774e-13
-1.14621e-13
1.18138e-09
-6.67175e-13
-8.60244e-14
1.18346e-09
-1.82826e-12
3.43552e-13
1.19509e-09
9.82688e-13
-4.72742e-13
1.21088e-09
6.3635e-11
1.61684e-12
9.66823e-10
6.54852e-11
-6.27163e-11
-6.47831e-11
-5.05436e-11
-4.79458e-12
1.66728e-11
9.0226e-13
1.01398e-10
1.82089e-12
-3.25092e-13
-1.32826e-11
2.41387e-12
8.69192e-15
9.36428e-12
-5.26549e-14
-3.23587e-13
1.1754e-09
-1.15629e-13
-3.14529e-13
1.17548e-09
-1.76104e-13
-3.45449e-13
1.17579e-09
-2.39829e-13
-3.29205e-13
1.17602e-09
-3.36449e-13
-3.32043e-13
1.17676e-09
-4.24537e-13
-3.24198e-13
1.17742e-09
-5.66997e-13
-2.98593e-13
1.17885e-09
-6.27618e-13
-2.90608e-13
1.18008e-09
-7.09714e-13
-1.57063e-13
1.18218e-09
-8.1527e-13
-2.01184e-13
1.18311e-09
-1.79411e-12
5.43149e-13
1.19785e-09
-3.94356e-14
-1.4392e-12
1.22154e-09
6.49347e-11
2.74927e-12
9.76401e-10
6.62494e-11
-6.55085e-11
-6.44834e-11
-5.74246e-11
1.5849e-11
-5.6249e-12
1.10137e-10
1.99826e-12
-1.57872e-13
-9.08645e-13
-1.29718e-11
1.21259e-12
1.40109e-12
1.14246e-11
-3.43133e-14
-4.24263e-13
1.17597e-09
-8.62008e-14
-4.07597e-13
1.17606e-09
-1.44476e-13
-4.39073e-13
1.17642e-09
-2.24118e-13
-4.0916e-13
1.17662e-09
-3.28493e-13
-4.19072e-13
1.1774e-09
-4.34195e-13
-4.29691e-13
1.17817e-09
-5.88269e-13
-3.76411e-13
1.17971e-09
-6.06579e-13
-4.19348e-13
1.18077e-09
-8.50662e-13
-4.20108e-14
1.18189e-09
-9.14733e-13
-5.45051e-13
1.18491e-09
-2.40755e-12
1.23409e-12
1.20825e-09
-1.57976e-12
-2.0193e-12
1.19621e-09
6.49426e-11
4.61289e-11
8.05316e-10
6.71484e-11
-6.40552e-11
-6.59836e-11
6.59699e-11
-4.63916e-11
-6.40408e-11
-5.05347e-11
2.6535e-13
4.8777e-12
1.03033e-10
-1.01704e-11
1.34716e-11
1.4032e-11
-1.00323e-11
-6.13142e-14
-5.2558e-13
1.17692e-09
-1.41387e-13
-4.97432e-13
1.17702e-09
-1.67377e-13
-5.95356e-13
1.17766e-09
-2.09147e-13
-5.43235e-13
1.17788e-09
-3.04882e-13
-5.61297e-13
1.17885e-09
-3.84423e-13
-5.81637e-13
1.17968e-09
-4.93257e-13
-4.86714e-13
1.18143e-09
-6.3634e-13
-4.43602e-13
1.18214e-09
-4.34689e-13
-5.0211e-13
1.18431e-09
-1.87296e-12
2.11654e-13
1.19626e-09
1.67366e-12
-1.89539e-12
1.20494e-09
4.65838e-11
2.73098e-12
9.42887e-10
6.10936e-11
-4.77815e-11
-6.10737e-11
-6.19503e-11
1.18998e-11
4.77718e-12
1.37986e-10
9.80732e-12
-1.10903e-11
-1.22409e-11
2.42268e-12
8.28946e-13
1.02723e-11
4.65216e-15
-6.36187e-13
1.17848e-09
-3.97791e-14
-5.88548e-13
1.17854e-09
-9.31679e-14
-6.57552e-13
1.17918e-09
-2.03141e-13
-5.64847e-13
1.17922e-09
-2.95748e-13
-6.24133e-13
1.18009e-09
-4.28672e-13
-5.96993e-13
1.18076e-09
-4.53765e-13
-6.31115e-13
1.18213e-09
-5.81619e-13
-5.84256e-13
1.18391e-09
-1.56432e-12
-2.7671e-13
1.1963e-09
-1.47968e-12
-4.9541e-13
1.22522e-09
-1.36212e-12
-4.12804e-13
1.18907e-09
6.26383e-11
4.53026e-11
8.19789e-10
6.36536e-11
-6.18136e-11
-6.23217e-11
6.75727e-11
-4.68059e-11
-6.43445e-11
-4.59295e-11
-2.29794e-12
5.82175e-12
9.80788e-11
-9.95898e-12
1.15408e-11
1.33576e-11
-7.97445e-12
-2.35821e-13
-5.91982e-13
-1.52521e-12
2.35301e-12
-1.08245e-13
-6.60807e-13
1.18029e-09
-2.63485e-13
-6.4213e-13
1.18037e-09
-1.757e-13
-9.26845e-13
1.18186e-09
-1.41236e-13
-7.50876e-13
1.18141e-09
-1.88883e-13
-7.08778e-13
1.18223e-09
-6.06052e-14
-8.53145e-13
1.18191e-09
-5.09137e-13
-4.49065e-13
1.18437e-09
-2.75258e-13
-1.56372e-12
1.19638e-09
-7.60581e-13
-6.59151e-13
1.22881e-09
7.37781e-13
-1.0959e-13
1.17858e-09
4.31599e-11
4.83344e-11
7.61336e-10
6.7104e-11
-4.5162e-11
-6.47933e-11
6.59087e-11
-4.77585e-11
-6.49673e-11
-7.28108e-11
3.29864e-12
7.09996e-12
1.50875e-10
7.92077e-12
-1.05748e-11
-9.91783e-12
-1.39393e-12
1.04291e-12
1.29229e-11
2.0009e-13
-8.48932e-13
1.18285e-09
3.36232e-13
-9.74887e-13
1.1831e-09
2.61496e-13
-9.87015e-13
1.18494e-09
-8.17605e-14
-6.69436e-13
1.18346e-09
-2.01784e-13
-8.19325e-13
1.18315e-09
-5.59002e-13
-9.1377e-13
1.18495e-09
1.65021e-13
-1.86555e-12
1.19635e-09
-6.03841e-13
-1.46111e-12
1.22547e-09
-1.07428e-13
7.22675e-13
1.17867e-09
4.96785e-11
4.97294e-11
7.68115e-10
6.73596e-11
-4.95655e-11
-6.70124e-11
6.74728e-11
-4.96173e-11
-6.71176e-11
-6.38785e-11
1.38949e-11
1.39532e-11
1.34044e-10
-3.55883e-11
-1.78338e-11
6.12742e-11
-1.72097e-11
-9.76499e-12
1.36792e-11
1.20115e-11
-1.08116e-11
-7.9214e-12
8.78335e-12
1.04489e-11
-7.06739e-12
-4.3968e-13
-1.09667e-12
1.18407e-09
-8.51018e-13
-1.43219e-12
1.18854e-09
-1.11923e-13
-2.10304e-12
1.19593e-09
3.44603e-13
-1.83732e-12
1.19507e-09
5.35927e-13
-1.7995e-12
1.19788e-09
1.21937e-12
-2.40797e-12
1.20832e-09
-1.91255e-12
1.67951e-12
1.20508e-09
-4.14795e-13
-1.35674e-12
1.18948e-09
4.83197e-11
4.31374e-11
7.61851e-10
6.70979e-11
-4.51412e-11
-6.47884e-11
6.59407e-11
-4.7741e-11
-6.50028e-11
-6.39458e-11
1.39463e-11
1.38889e-11
1.3416e-10
-3.73061e-11
6.53547e-11
-1.79125e-11
-1.79206e-11
-8.76999e-12
9.38852e-12
1.11579e-11
-7.89044e-12
-8.78825e-12
9.4202e-12
1.11852e-11
-7.91872e-12
5.48065e-13
-2.1386e-12
1.1981e-09
1.96061e-12
-2.88907e-12
1.21404e-09
1.06184e-12
3.74626e-13
1.20232e-09
-4.64467e-13
9.77947e-13
1.21083e-09
-1.4377e-12
-4.42256e-14
1.22156e-09
-2.02516e-12
-1.57777e-12
1.19626e-09
2.72384e-12
4.65782e-11
9.42985e-10
6.10881e-11
-4.77756e-11
-6.10656e-11
4.5317e-11
6.2631e-11
8.19926e-10
6.75791e-11
-4.68167e-11
-6.4351e-11
6.36496e-11
-6.18067e-11
-6.23178e-11
-7.28269e-11
7.10175e-12
3.29155e-12
1.50888e-10
-3.56195e-11
-1.78258e-11
6.12859e-11
-1.71917e-11
-7.92706e-12
8.79551e-12
1.04512e-11
-7.07402e-12
-9.76417e-12
1.36717e-11
1.20079e-11
-1.081e-11
-1.06953e-12
-8.62281e-13
1.22167e-09
-2.43983e-12
-1.66678e-12
1.20294e-09
8.62968e-13
4.71232e-11
9.60776e-10
6.08668e-11
-4.76708e-11
-6.06959e-11
1.61947e-12
6.36289e-11
9.66781e-10
6.54815e-11
-6.27101e-11
-6.47819e-11
2.74944e-12
6.49323e-11
9.76403e-10
6.62453e-11
-6.55066e-11
-6.44814e-11
4.613e-11
6.49395e-11
8.05334e-10
6.59684e-11
-4.63931e-11
-6.40402e-11
6.71459e-11
-6.40524e-11
-6.5981e-11
-6.1949e-11
4.77835e-12
1.18978e-11
1.37981e-10
-4.59281e-11
-2.29833e-12
5.81989e-12
9.80738e-11
-9.95868e-12
1.15396e-11
1.33571e-11
-7.97445e-12
7.91984e-12
-9.91582e-12
-1.05752e-11
1.04255e-12
-1.39368e-12
1.29223e-11
1.50751e-12
6.68103e-11
9.7732e-10
6.71024e-11
-6.62251e-11
-6.6327e-11
4.84088e-11
6.73253e-11
7.94044e-10
7.05434e-11
-6.54072e-11
-7.00372e-11
7.25144e-11
-4.84689e-11
-7.13215e-11
-5.95659e-11
6.58007e-12
1.48782e-11
1.3364e-10
-5.05419e-11
-4.79835e-12
9.03789e-13
1.66709e-11
1.01394e-10
-5.74225e-11
-5.62321e-12
1.58461e-11
1.10134e-10
1.99748e-12
-5.05341e-11
2.6494e-13
4.87724e-12
1.0303e-10
-1.017e-11
1.34711e-11
1.40315e-11
-1.0032e-11
9.80693e-12
-1.22401e-11
-1.10899e-11
8.28812e-13
2.42259e-12
1.02718e-11
-2.35826e-13
-1.52525e-12
-5.91846e-13
2.35292e-12
-4.40293e-11
1.71443e-12
9.9709e-11
-9.94206e-12
1.45982e-11
1.46098e-11
-9.85038e-12
-4.6071e-11
-6.26061e-12
1.45851e-11
9.65129e-11
-1.1128e-11
1.5061e-11
1.55569e-11
-1.09315e-11
-4.03522e-11
-2.052e-11
6.75409e-11
-1.77039e-11
-1.13466e-11
1.0595e-11
1.54894e-11
-8.44092e-12
-9.09201e-12
1.00897e-11
1.20844e-11
-8.3438e-12
1.8208e-12
-3.25171e-13
-1.32821e-11
8.80224e-15
2.41367e-12
9.36398e-12
-1.57865e-13
-1.29716e-11
-9.08519e-13
1.40103e-12
1.21259e-12
1.14244e-11
1.3649e-13
1.35172e-13
1.17571e-09
2.7687e-13
1.33811e-13
1.1753e-09
4.30908e-13
1.34317e-13
1.17497e-09
6.13823e-13
1.28046e-13
1.17487e-09
8.23172e-13
1.25561e-13
1.17507e-09
1.08488e-12
1.1264e-13
1.1756e-09
1.38463e-12
1.00261e-13
1.17652e-09
1.75829e-12
8.12575e-14
1.17802e-09
2.19152e-12
5.32493e-14
1.1798e-09
2.71766e-12
7.10472e-14
1.18227e-09
3.22005e-12
-1.64421e-13
1.18376e-09
2.6423e-12
2.31846e-13
1.19852e-09
2.1294e-12
-1.72871e-14
1.22233e-09
6.64081e-11
3.35502e-13
9.7926e-10
6.68155e-11
-6.64934e-11
-6.6594e-11
-4.46202e-11
1.66806e-12
1.00286e-10
-1.00474e-11
1.45215e-11
1.45555e-11
-9.95275e-12
1.35208e-13
2.75294e-13
1.17532e-09
2.7393e-13
2.72757e-13
1.17513e-09
4.24322e-13
2.7507e-13
1.17492e-09
6.01596e-13
2.60576e-13
1.17488e-09
8.04425e-13
2.56943e-13
1.17514e-09
1.05721e-12
2.30501e-13
1.17568e-09
1.34867e-12
2.06121e-13
1.17662e-09
1.72074e-12
1.67791e-13
1.17807e-09
2.16912e-12
7.16491e-14
1.17991e-09
2.62841e-12
1.01959e-13
1.18263e-09
3.1131e-12
-5.88221e-13
1.18852e-09
1.99305e-12
9.37651e-13
1.21451e-09
1.49049e-12
-2.70117e-13
1.20387e-09
6.70564e-11
4.80809e-11
7.96088e-10
7.03512e-11
-6.56792e-11
-7.02155e-11
7.17969e-11
-4.90663e-11
-7.22673e-11
-4.6535e-11
-6.16466e-12
1.44375e-11
9.70219e-11
-1.12162e-11
1.50185e-11
1.55411e-11
-1.10475e-11
1.34827e-13
4.29213e-13
1.17499e-09
2.75202e-13
4.23253e-13
1.17499e-09
4.25314e-13
4.25645e-13
1.17502e-09
6.07683e-13
3.99485e-13
1.17502e-09
8.11079e-13
3.94058e-13
1.17543e-09
1.07396e-12
3.48225e-13
1.17603e-09
1.35502e-12
3.13079e-13
1.17727e-09
1.7565e-12
2.23519e-13
1.17871e-09
2.08764e-12
9.6355e-14
1.18149e-09
2.7759e-12
-1.2237e-13
1.18446e-09
2.42114e-12
-5.88071e-13
1.19628e-09
3.56058e-12
-3.18274e-13
1.20249e-09
4.72935e-11
5.92275e-13
9.62825e-10
6.14888e-11
-4.76935e-11
-6.04139e-11
-6.00202e-11
1.49762e-11
6.16898e-12
1.34249e-10
-4.07594e-11
-2.04019e-11
6.79115e-11
-1.73341e-11
-9.15356e-12
1.00544e-11
1.20603e-11
-8.43748e-12
-1.14309e-11
1.05389e-11
1.54619e-11
-8.50955e-12
1.28956e-13
6.12204e-13
1.17487e-09
2.61262e-13
6.007e-13
1.1749e-09
3.99237e-13
6.08439e-13
1.17508e-09
5.67927e-13
5.68829e-13
1.17519e-09
7.51439e-13
5.72227e-13
1.17566e-09
9.87135e-13
5.06457e-13
1.17622e-09
1.21145e-12
4.95168e-13
1.17745e-09
1.55683e-12
3.36665e-13
1.17874e-09
1.78699e-12
2.87877e-13
1.18096e-09
2.35504e-12
-1.99334e-13
1.18297e-09
1.66689e-12
-1.45619e-13
1.19534e-09
2.65502e-12
-1.48537e-12
1.21106e-09
6.35437e-11
7.02817e-13
9.67928e-10
6.55154e-11
-6.28883e-11
-6.47307e-11
-5.08759e-11
-4.62795e-12
1.64818e-11
6.86145e-13
1.01879e-10
1.74437e-12
-3.30965e-13
-1.32421e-11
2.42547e-12
3.69709e-15
9.39959e-12
1.26542e-13
8.21562e-13
1.17507e-09
2.57304e-13
8.03913e-13
1.17514e-09
3.93247e-13
8.12308e-13
1.17545e-09
5.70183e-13
7.53275e-13
1.17566e-09
7.58546e-13
7.61972e-13
1.17639e-09
9.92626e-13
6.8329e-13
1.17701e-09
1.22832e-12
6.60369e-13
1.17845e-09
1.50571e-12
5.07704e-13
1.17963e-09
1.80432e-12
3.94401e-13
1.18177e-09
2.12725e-12
2.5881e-14
1.18256e-09
1.55178e-12
6.63717e-14
1.19821e-09
1.6365e-12
-1.7992e-12
1.22177e-09
6.45075e-11
8.93111e-13
9.7774e-10
6.60785e-11
-6.58584e-11
-6.46203e-11
-5.78726e-11
1.55485e-11
-5.81226e-12
1.10579e-10
2.06546e-12
-2.28589e-13
-9.15466e-13
-1.29523e-11
1.21548e-12
1.40717e-12
1.14737e-11
1.14718e-13
1.08347e-12
1.17561e-09
2.3223e-13
1.05629e-12
1.17569e-09
3.48426e-13
1.07504e-12
1.17604e-09
5.05122e-13
9.88962e-13
1.17623e-09
6.80372e-13
9.96731e-13
1.17699e-09
8.87949e-13
8.91707e-13
1.17776e-09
1.07034e-12
8.78807e-13
1.17931e-09
1.3323e-12
6.70484e-13
1.18034e-09
1.36853e-12
7.67521e-13
1.18148e-09
1.76948e-12
7.13098e-14
1.18447e-09
4.46643e-13
9.07254e-13
1.20874e-09
-3.75557e-13
-1.23894e-12
1.19647e-09
6.45763e-11
4.58332e-11
8.05616e-10
6.70108e-11
-6.44383e-11
-6.62505e-11
6.54142e-11
-4.69684e-11
-6.49603e-11
-5.0959e-11
4.1328e-13
4.59599e-12
1.03473e-10
-1.02417e-11
1.3421e-11
1.40158e-11
-1.0142e-11
1.03706e-13
1.38323e-12
1.17653e-09
2.08533e-13
1.34725e-12
1.17663e-09
3.1368e-13
1.35564e-12
1.17728e-09
4.93429e-13
1.2125e-12
1.17748e-09
6.56173e-13
1.23194e-12
1.17845e-09
8.73981e-13
1.07389e-12
1.17928e-09
1.07675e-12
1.08144e-12
1.18102e-09
1.21613e-12
9.7719e-13
1.18169e-09
1.61877e-12
7.45033e-13
1.18393e-09
6.69103e-13
1.16423e-12
1.19612e-09
2.7233e-12
-1.47284e-12
1.20527e-09
4.67079e-11
2.0997e-12
9.42724e-10
6.15057e-11
-4.77738e-11
-6.08922e-11
-6.25232e-11
1.19578e-11
4.42373e-12
1.38683e-10
9.68955e-12
-1.10789e-11
-1.2147e-11
2.37921e-12
7.81254e-13
1.03759e-11
8.67575e-14
1.75645e-12
1.17803e-09
1.72373e-13
1.71831e-12
1.17808e-09
2.25311e-13
1.75724e-12
1.17872e-09
3.36289e-13
1.55552e-12
1.17877e-09
5.04544e-13
1.50685e-12
1.17965e-09
6.6528e-13
1.33404e-12
1.18034e-09
9.72908e-13
1.21768e-12
1.18169e-09
1.15631e-12
1.15849e-12
1.18355e-09
8.08088e-13
1.36022e-12
1.19604e-09
8.73084e-13
6.71442e-13
1.22565e-09
-5.65504e-13
-6.43024e-13
1.18968e-09
6.24731e-11
4.50769e-11
8.1974e-10
6.3507e-11
-6.21525e-11
-6.26678e-11
6.73984e-11
-4.72117e-11
-6.48399e-11
-4.64183e-11
-2.16879e-12
5.58179e-12
9.8651e-11
-1.00055e-11
1.1504e-11
1.34012e-11
-8.07234e-12
-2.47628e-13
-5.85818e-13
-1.52048e-12
2.35393e-12
5.46188e-14
2.19368e-12
1.17981e-09
7.15201e-14
2.16422e-12
1.17991e-09
9.87971e-14
2.08452e-12
1.1815e-09
2.87634e-13
1.78353e-12
1.18099e-09
3.90734e-13
1.80233e-12
1.18183e-09
7.60956e-13
1.36628e-12
1.18151e-09
7.38841e-13
1.61838e-12
1.18399e-09
1.36504e-12
7.97283e-13
1.19612e-09
1.28361e-12
1.26862e-12
1.22898e-09
1.44707e-12
9.15874e-14
1.179e-09
4.31722e-11
4.81812e-11
7.61446e-10
6.72494e-11
-4.52723e-11
-6.48712e-11
6.57397e-11
-4.81265e-11
-6.5378e-11
-7.33753e-11
3.25624e-12
6.83877e-12
1.51529e-10
7.8225e-12
-1.05348e-11
-9.85312e-12
-1.44718e-12
9.80576e-13
1.30321e-11
7.31169e-14
2.72173e-12
1.18227e-09
1.01069e-13
2.6239e-12
1.18262e-09
-1.17452e-13
2.76157e-12
1.18448e-09
-1.9612e-13
2.34908e-12
1.18297e-09
2.43658e-14
2.12126e-12
1.18261e-09
6.52755e-14
1.76638e-12
1.18451e-09
1.15722e-12
6.65977e-13
1.19621e-09
6.80714e-13
8.68638e-13
1.22587e-09
9.75038e-14
1.43648e-12
1.17909e-09
4.9614e-11
4.96639e-11
7.68384e-10
6.74354e-11
-4.98591e-11
-6.72311e-11
6.75467e-11
-4.99108e-11
-6.73377e-11
-6.42756e-11
1.37381e-11
1.36721e-11
1.3466e-10
-3.60129e-11
-1.77079e-11
6.16318e-11
-1.69814e-11
-9.83268e-12
1.36492e-11
1.2063e-11
-1.09315e-11
-7.99518e-12
8.77869e-12
1.04758e-11
-7.1369e-12
-1.33648e-13
3.22155e-12
1.18375e-09
-5.66549e-13
3.10312e-12
1.18849e-09
-5.75922e-13
2.40534e-12
1.19629e-09
-1.41468e-13
1.65967e-12
1.19533e-09
6.43456e-14
1.5448e-12
1.19825e-09
9.02679e-13
4.42693e-13
1.2088e-09
-1.48098e-12
2.72259e-12
1.2054e-09
-6.42014e-13
-5.6858e-13
1.19008e-09
4.8166e-11
4.31497e-11
7.61955e-10
6.7244e-11
-4.52515e-11
-6.48668e-11
6.57735e-11
-4.81103e-11
-6.54134e-11
-6.43453e-11
1.36658e-11
1.37309e-11
1.34778e-10
-3.78304e-11
6.57645e-11
-1.77412e-11
-1.775e-11
-8.84369e-12
9.38763e-12
1.12018e-11
-7.97331e-12
-8.86221e-12
9.41947e-12
1.12291e-11
-8.00171e-12
2.57352e-13
2.63263e-12
1.19849e-09
1.00778e-12
1.9582e-12
1.21443e-09
-2.9784e-13
3.54758e-12
1.20249e-09
-1.47021e-12
2.65135e-12
1.21101e-09
-1.7949e-12
1.63146e-12
1.2218e-09
-1.24054e-12
-3.78954e-13
1.19652e-09
2.09862e-12
4.67019e-11
9.42818e-10
6.15005e-11
-4.77685e-11
-6.08846e-11
4.5092e-11
6.24668e-11
8.19867e-10
6.74058e-11
-4.72233e-11
-6.48463e-11
6.35031e-11
-6.21457e-11
-6.26637e-11
-7.33926e-11
6.84174e-12
3.24899e-12
1.51543e-10
-3.60453e-11
-1.77006e-11
6.16441e-11
-1.69626e-11
-8.00086e-12
8.79091e-12
1.04783e-11
-7.14366e-12
-9.83188e-12
1.36421e-11
1.20594e-11
-1.09299e-11
2.9488e-14
2.10136e-12
1.22225e-09
-2.4759e-13
1.44401e-12
1.20373e-09
6.01832e-13
4.72842e-11
9.62807e-10
6.14819e-11
-4.76855e-11
-6.0412e-11
7.07849e-13
6.35368e-11
9.67892e-10
6.55119e-11
-6.28838e-11
-6.47297e-11
8.93365e-13
6.45053e-11
9.77742e-10
6.60757e-11
-6.58568e-11
-6.46178e-11
4.58349e-11
6.45735e-11
8.05633e-10
6.54132e-11
-4.69702e-11
-6.49604e-11
6.70086e-11
-6.44359e-11
-6.62481e-11
-6.2523e-11
4.42493e-12
1.1956e-11
1.3868e-10
-4.64191e-11
-2.16927e-12
5.5809e-12
9.86475e-11
-1.00051e-11
1.1503e-11
1.34009e-11
-8.07228e-12
7.82151e-12
-9.85135e-12
-1.05353e-11
9.80414e-13
-1.44687e-12
1.30317e-11
4.02389e-13
6.64064e-11
9.79067e-10
6.67535e-11
-6.64858e-11
-6.66108e-11
4.81006e-11
6.7026e-11
7.95863e-10
7.03333e-11
-6.56725e-11
-7.02193e-11
7.18068e-11
-4.90727e-11
-7.22746e-11
-6.00132e-11
6.17744e-12
1.49756e-11
1.34245e-10
-5.08747e-11
-4.63152e-12
6.86997e-13
1.64794e-11
1.01876e-10
-5.78708e-11
-5.81101e-12
1.55459e-11
1.10576e-10
2.06517e-12
-5.09585e-11
4.12883e-13
4.5954e-12
1.03471e-10
-1.02413e-11
1.34205e-11
1.40154e-11
-1.01418e-11
9.68917e-12
-1.21463e-11
-1.10785e-11
7.81115e-13
2.37908e-12
1.03755e-11
-2.47649e-13
-1.52053e-12
-5.85692e-13
2.35387e-12
-4.46008e-11
1.69915e-12
1.0026e-10
-1.00444e-11
1.45307e-11
1.45446e-11
-9.95322e-12
-4.65017e-11
-6.1811e-12
1.44475e-11
9.6972e-11
-1.12125e-11
1.50075e-11
1.55346e-11
-1.10411e-11
-4.07568e-11
-2.04054e-11
6.79109e-11
-1.73342e-11
-1.14311e-11
1.05398e-11
1.54624e-11
-8.51029e-12
-9.15331e-12
1.00545e-11
1.20606e-11
-8.43719e-12
1.7443e-12
-3.31153e-13
-1.32414e-11
3.71622e-15
2.42529e-12
9.3993e-12
-2.2861e-13
-1.29521e-11
-9.15349e-13
1.40711e-12
1.21544e-12
1.14735e-11
3.16101e-13
3.1361e-13
1.1751e-09
6.5092e-13
3.10639e-13
1.17466e-09
1.017e-12
3.16506e-13
1.1743e-09
1.45048e-12
2.99062e-13
1.17414e-09
1.94723e-12
3.02788e-13
1.17428e-09
2.56434e-12
2.59782e-13
1.17474e-09
3.27184e-12
2.67605e-13
1.17555e-09
4.16411e-12
1.74086e-13
1.17695e-09
5.09022e-12
2.41147e-13
1.17864e-09
6.2712e-12
-1.80961e-14
1.18112e-09
7.2109e-12
2.67368e-13
1.18257e-09
7.45579e-12
-2.45598e-13
1.19853e-09
5.13124e-12
1.71732e-12
1.22294e-09
6.6522e-11
1.67225e-13
9.84267e-10
6.69443e-11
-6.66887e-11
-6.68166e-11
-4.47231e-11
1.7024e-12
1.00478e-10
-1.0069e-11
1.45373e-11
1.45712e-11
-9.97273e-12
3.13253e-13
6.48235e-13
1.17468e-09
6.41826e-13
6.39886e-13
1.17447e-09
9.99738e-13
6.51639e-13
1.17423e-09
1.42067e-12
6.15123e-13
1.17414e-09
1.90193e-12
6.24515e-13
1.17434e-09
2.49323e-12
5.45699e-13
1.1748e-09
3.17274e-12
5.58006e-13
1.17565e-09