/*--------------------------------*- C++ -*----------------------------------*\
| =========                 |                                                 |
| \\      /  F ield         | OpenFOAM: The Open Source CFD Toolbox           |
|  \\    /   O peration     | Version:  2.1.1                                 |
|   \\  /    A nd           | Web:      www.OpenFOAM.org                      |
|    \\/     M anipulation  |                                                 |
\*---------------------------------------------------------------------------*/
FoamFile
{
    version     2.0;
    format      ascii;
    class       volScalarField;
    location    "0.003";
    object      Th;
}
// * * * * * * * * * * * * * * * * * * * * * * * * * * * * * * * * * * * * * //

dimensions      [0 0 0 0 0 0 0];

internalField   nonuniform List<scalar> 
10314
(
1.00003e-14
1e-14
1e-14
1e-14
1e-14
1e-14
1.00001e-14
1.00001e-14
1.00001e-14
1.00001e-14
1e-14
1.00001e-14
1.00011e-14
1.03388e-14
1.43548e-14
1e-14
1e-14
1e-14
1e-14
1e-14
1e-14
1e-14
1e-14
1e-14
1e-14
1.00001e-14
1.00001e-14
1.00027e-14
1.09643e-14
1.82435e-14
1e-14
1e-14
1.00001e-14
1.00001e-14
1e-14
1e-14
1e-14
1e-14
1e-14
1e-14
1.00001e-14
1.00001e-14
1e-14
1.00822e-14
2.2622e-14
1e-14
1e-14
1.00001e-14
1e-14
1e-14
1.00001e-14
1.00001e-14
1.00001e-14
1e-14
1.00001e-14
1.00001e-14
1e-14
1.00168e-14
1e-14
1.01665e-14
1e-14
1e-14
1e-14
1e-14
1.00001e-14
1.00001e-14
1.00001e-14
1e-14
1e-14
1e-14
1e-14
1.00001e-14
1.00313e-14
1e-14
1e-14
1e-14
1e-14
1e-14
1.00001e-14
1.00001e-14
1e-14
1e-14
1e-14
1e-14
1e-14
1e-14
1.00028e-14
1.14152e-14
1.47032e-14
1.00001e-14
1e-14
1e-14
1.00001e-14
1.00001e-14
1e-14
1e-14
1e-14
1e-14
1.00001e-14
1e-14
1.00279e-14
1.00669e-14
1e-14
1.00001e-14
1e-14
1.00001e-14
1.00001e-14
1e-14
1e-14
1e-14
1e-14
1e-14
1.00001e-14
1.00026e-14
1.24619e-14
1.28306e-14
7.4289e-13
1.00001e-14
1e-14
1e-14
1e-14
1e-14
1e-14
1e-14
1e-14
1e-14
1.00001e-14
1.01118e-14
1.00181e-14
1e-14
1.00001e-14
1e-14
1e-14
1.00001e-14
1e-14
1e-14
1.00001e-14
1.00001e-14
1.00001e-14
1.01208e-14
1.00022e-14
1.36704e-14
1e-14
1.00001e-14
1.00001e-14
1.00001e-14
1e-14
1e-14
1e-14
1.00026e-14
1.01114e-14
1.00022e-14
1.17441e-14
1.00001e-14
1.00001e-14
1.00001e-14
1e-14
1.00001e-14
1.00028e-14
1.00279e-14
1.24607e-14
1.00182e-14
1.36598e-14
1.00011e-14
1.00027e-14
1e-14
1.00168e-14
1.00313e-14
1.14151e-14
1.00669e-14
1.28297e-14
1e-14
1.03384e-14
1.09643e-14
1.00822e-14
1e-14
1e-14
1.47029e-14
1e-14
7.42898e-13
1.43524e-14
1.8239e-14
2.26188e-14
1.01665e-14
1e-14
1.00001e-14
1e-14
1e-14
1e-14
1.00001e-14
1.00001e-14
1e-14
1e-14
1e-14
1e-14
1e-14
1.00001e-14
1.00005e-14
1.02923e-14
1.43342e-14
1e-14
1e-14
1e-14
1e-14
1e-14
1e-14
1e-14
1e-14
1e-14
1e-14
1.00001e-14
1.00001e-14
1.00013e-14
1.08725e-14
1.80274e-14
1e-14
1e-14
1e-14
1e-14
1e-14
1e-14
1e-14
1e-14
1e-14
1e-14
1.00001e-14
1.00001e-14
1e-14
1.00674e-14
2.41049e-14
1e-14
1e-14
1e-14
1e-14
1e-14
1.00001e-14
1.00001e-14
1e-14
1e-14
1e-14
1.00001e-14
1.00001e-14
1.00144e-14
1e-14
1.01401e-14
1.00001e-14
1e-14
1e-14
1e-14
1.00001e-14
1e-14
1e-14
1e-14
1e-14
1e-14
1e-14
1e-14
1.00265e-14
1e-14
1e-14
1.00001e-14
1e-14
1e-14
1.00001e-14
1e-14
1e-14
1e-14
1e-14
1e-14
1e-14
1e-14
1.00014e-14
1.13149e-14
1.45779e-14
1e-14
1e-14
1e-14
1e-14
1e-14
1e-14
1e-14
1e-14
1e-14
1e-14
1e-14
1.00247e-14
1.00606e-14
1e-14
1e-14
1e-14
1e-14
1e-14
1e-14
1e-14
1e-14
1e-14
1e-14
1e-14
1.00015e-14
1.2307e-14
1.27115e-14
7.47511e-13
1e-14
1e-14
1e-14
1e-14
1e-14
1e-14
1e-14
1e-14
1e-14
1e-14
1.00983e-14
1.00277e-14
1.04597e-14
1e-14
1e-14
1e-14
1e-14
1e-14
1e-14
1e-14
1e-14
1e-14
1.01077e-14
1e-14
1.49671e-14
1e-14
1.00001e-14
1.00001e-14
1.00001e-14
1e-14
1e-14
1e-14
1.00015e-14
1.00979e-14
1e-14
1.2603e-14
1.00001e-14
1.00001e-14
1.00001e-14
1.00001e-14
1e-14
1.00014e-14
1.00247e-14
1.23062e-14
1.00279e-14
1.49562e-14
1.00005e-14
1.00013e-14
1e-14
1.00143e-14
1.00265e-14
1.13148e-14
1.00607e-14
1.27114e-14
1.04615e-14
1.0292e-14
1.08727e-14
1.00674e-14
1e-14
1e-14
1.45776e-14
1e-14
7.47521e-13
1.43323e-14
1.80238e-14
2.41012e-14
1.01401e-14
1e-14
1e-14
1e-14
1e-14
1e-14
1e-14
1e-14
1e-14
1e-14
1e-14
1e-14
1e-14
1.00001e-14
1e-14
1.02815e-14
1.43809e-14
1e-14
1e-14
1e-14
1e-14
1e-14
1e-14
1e-14
1e-14
1e-14
1e-14
1.00001e-14
1.00001e-14
1e-14
1.0851e-14
1.8065e-14
1e-14
1e-14
1e-14
1e-14
1e-14
1e-14
1e-14
1e-14
1e-14
1e-14
1.00001e-14
1e-14
1e-14
1.00646e-14
2.45451e-14
1e-14
1e-14
1e-14
1e-14
1e-14
1e-14
1e-14
1e-14
1e-14
1.00001e-14
1.00001e-14
1e-14
1.00136e-14
1e-14
1.01384e-14
1e-14
1e-14
1e-14
1e-14
1e-14
1e-14
1e-14
1e-14
1e-14
1e-14
1e-14
1e-14
1.00258e-14
1e-14
1e-14
1e-14
1e-14
1e-14
1e-14
1e-14
1e-14
1e-14
1e-14
1e-14
1e-14
1e-14
1.00006e-14
1.12924e-14
1.46033e-14
1e-14
1e-14
1e-14
1e-14
1e-14
1e-14
1e-14
1e-14
1e-14
1e-14
1e-14
1.0024e-14
1.00586e-14
1e-14
1e-14
1e-14
1e-14
1e-14
1e-14
1e-14
1e-14
1e-14
1e-14
1e-14
1.00008e-14
1.22722e-14
1.27049e-14
7.48177e-13
1e-14
1e-14
1e-14
1e-14
1e-14
1e-14
1e-14
1e-14
1e-14
1e-14
1.0096e-14
1.00284e-14
1.07867e-14
1e-14
1e-14
1e-14
1.00001e-14
1e-14
1e-14
1e-14
1e-14
1e-14
1.01053e-14
1e-14
1.52632e-14
1e-14
1.00001e-14
1.00001e-14
1e-14
1e-14
1e-14
1e-14
1.00008e-14
1.00956e-14
1e-14
1.27875e-14
1.00001e-14
1.00001e-14
1e-14
1e-14
1e-14
1.00006e-14
1.00239e-14
1.22716e-14
1.00286e-14
1.52517e-14
1e-14
1e-14
1e-14
1.00136e-14
1.00258e-14
1.12923e-14
1.00586e-14
1.27047e-14
1.07878e-14
1.02817e-14
1.08515e-14
1.00647e-14
1e-14
1e-14
1.4603e-14
1e-14
7.48185e-13
1.43792e-14
1.80629e-14
2.45425e-14
1.01383e-14
1e-14
1e-14
1e-14
1e-14
1e-14
1e-14
1e-14
1e-14
1.00001e-14
1.00001e-14
1e-14
1e-14
1e-14
1e-14
1.02756e-14
1.43849e-14
1e-14
1e-14
1e-14
1e-14
1e-14
1e-14
1e-14
1e-14
1e-14
1e-14
1e-14
1e-14
1e-14
1.08479e-14
1.80752e-14
1e-14
1e-14
1e-14
1e-14
1e-14
1e-14
1e-14
1e-14
1e-14
1e-14
1e-14
1e-14
1e-14
1.00644e-14
2.46846e-14
1e-14
1e-14
1e-14
1e-14
1e-14
1e-14
1e-14
1e-14
1e-14
1e-14
1e-14
1e-14
1.00134e-14
1e-14
1.01366e-14
1e-14
1e-14
1e-14
1e-14
1e-14
1e-14
1e-14
1e-14
1.00001e-14
1e-14
1e-14
1e-14
1.00258e-14
1e-14
1e-14
1e-14
1e-14
1e-14
1e-14
1e-14
1e-14
1e-14
1e-14
1e-14
1e-14
1e-14
1e-14
1.12876e-14
1.46068e-14
1e-14
1e-14
1e-14
1e-14
1e-14
1e-14
1e-14
1e-14
1e-14
1e-14
1e-14
1.00232e-14
1.00567e-14
1e-14
1.00001e-14
1e-14
1e-14
1e-14
1e-14
1e-14
1e-14
1e-14
1e-14
1e-14
1e-14
1.2272e-14
1.26924e-14
7.48382e-13
1.00001e-14
1e-14
1e-14
1e-14
1e-14
1e-14
1e-14
1e-14
1e-14
1e-14
1.00957e-14
1.00274e-14
1.08141e-14
1e-14
1e-14
1e-14
1e-14
1e-14
1e-14
1e-14
1e-14
1e-14
1.01051e-14
1e-14
1.52839e-14
1e-14
1e-14
1e-14
1e-14
1e-14
1e-14
1e-14
1e-14
1.00953e-14
1e-14
1.28039e-14
1e-14
1e-14
1e-14
1e-14
1e-14
1e-14
1.00232e-14
1.22713e-14
1.00275e-14
1.52725e-14
1e-14
1e-14
1e-14
1.00134e-14
1.00258e-14
1.12875e-14
1.00567e-14
1.26922e-14
1.08142e-14
1.0276e-14
1.08488e-14
1.00645e-14
1e-14
1e-14
1.46066e-14
1e-14
7.4839e-13
1.4385e-14
1.80782e-14
2.4683e-14
1.01366e-14
1e-14
1e-14
1e-14
1e-14
1e-14
1e-14
1.00001e-14
1.00001e-14
1e-14
1e-14
1e-14
1e-14
1.00001e-14
1e-14
1.03045e-14
1.43745e-14
1e-14
1e-14
1e-14
1e-14
1e-14
1e-14
1e-14
1e-14
1e-14
1e-14
1e-14
1e-14
1e-14
1.08888e-14
1.80953e-14
1e-14
1e-14
1e-14
1e-14
1e-14
1e-14
1e-14
1e-14
1e-14
1e-14
1e-14
1e-14
1e-14
1.00674e-14
2.49576e-14
1e-14
1e-14
1e-14
1e-14
1e-14
1e-14
1e-14
1e-14
1e-14
1e-14
1e-14
1e-14
1.00133e-14
1e-14
1.01318e-14
1e-14
1e-14
1e-14
1e-14
1e-14
1e-14
1e-14
1e-14
1e-14
1e-14
1e-14
1e-14
1.00284e-14
1e-14
1e-14
1.00001e-14
1e-14
1e-14
1e-14
1e-14
1e-14
1e-14
1e-14
1e-14
1e-14
1e-14
1e-14
1.13053e-14
1.45999e-14
1.00001e-14
1e-14
1e-14
1e-14
1e-14
1e-14
1e-14
1e-14
1e-14
1e-14
1e-14
1.00225e-14
1.00551e-14
1e-14
1e-14
1e-14
1e-14
1e-14
1e-14
1e-14
1e-14
1e-14
1e-14
1e-14
1e-14
1.22164e-14
1.26582e-14
7.48447e-13
1e-14
1e-14
1e-14
1e-14
1e-14
1e-14
1e-14
1e-14
1e-14
1e-14
1.00939e-14
1.00225e-14
1.08305e-14
1e-14
1e-14
1e-14
1e-14
1e-14
1e-14
1e-14
1e-14
1e-14
1.01044e-14
1e-14
1.52591e-14
1e-14
1e-14
1e-14
1e-14
1e-14
1e-14
1e-14
1e-14
1.00935e-14
1e-14
1.27937e-14
1.00001e-14
1e-14
1e-14
1e-14
1e-14
1e-14
1.00225e-14
1.22158e-14
1.00226e-14
1.52477e-14
1e-14
1e-14
1e-14
1.00133e-14
1.00284e-14
1.13052e-14
1.00552e-14
1.26581e-14
1.08303e-14
1.03048e-14
1.08892e-14
1.00675e-14
1e-14
1e-14
1.45996e-14
1e-14
7.48454e-13
1.43726e-14
1.80989e-14
2.4956e-14
1.01317e-14
1e-14
1e-14
1e-14
1e-14
1e-14
1e-14
1.00001e-14
1e-14
1e-14
1e-14
1e-14
1.00001e-14
1.00001e-14
1e-14
1.02099e-14
1.42359e-14
1e-14
1e-14
1e-14
1e-14
1e-14
1e-14
1e-14
1e-14
1e-14
1e-14
1e-14
1e-14
1e-14
1.08232e-14
1.80992e-14
1e-14
1e-14
1e-14
1e-14
1e-14
1e-14
1e-14
1e-14
1e-14
1e-14
1e-14
1e-14
1e-14
1.00691e-14
2.61471e-14
1e-14
1e-14
1e-14
1e-14
1e-14
1e-14
1e-14
1e-14
1e-14
1e-14
1e-14
1e-14
1.00125e-14
1e-14
1.01107e-14
1e-14
1e-14
1e-14
1e-14
1e-14
1e-14
1e-14
1e-14
1e-14
1e-14
1e-14
1e-14
1.00206e-14
1e-14
1e-14
1.00001e-14
1e-14
1e-14
1e-14
1e-14
1.00001e-14
1e-14
1e-14
1e-14
1.00001e-14
1e-14
1e-14
1.1245e-14
1.45222e-14
1e-14
1e-14
1e-14
1e-14
1e-14
1e-14
1e-14
1e-14
1.00001e-14
1e-14
1e-14
1.00194e-14
1.00487e-14
1e-14
1e-14
1e-14
1e-14
1e-14
1e-14
1e-14
1e-14
1.00001e-14
1.00001e-14
1e-14
1e-14
1.2396e-14
1.25785e-14
7.48057e-13
1e-14
1e-14
1e-14
1e-14
1e-14
1e-14
1.00001e-14
1.00001e-14
1e-14
1e-14
1.01108e-14
1.00355e-14
1.09118e-14
1e-14
1e-14
1e-14
1e-14
1e-14
1.00001e-14
1e-14
1e-14
1e-14
1.01124e-14
1e-14
1.52411e-14
1.00001e-14
1e-14
1e-14
1e-14
1e-14
1e-14
1e-14
1e-14
1.01105e-14
1e-14
1.28083e-14
1.00001e-14
1e-14
1e-14
1e-14
1e-14
1e-14
1.00193e-14
1.23955e-14
1.00356e-14
1.52291e-14
1e-14
1e-14
1e-14
1.00125e-14
1.00206e-14
1.12449e-14
1.00487e-14
1.25782e-14
1.09107e-14
1.021e-14
1.08233e-14
1.00691e-14
1e-14
1e-14
1.45219e-14
1e-14
7.48062e-13
1.42355e-14
1.81006e-14
2.61453e-14
1.01106e-14
1e-14
1e-14
1e-14
1.00001e-14
1.00002e-14
1.00002e-14
1.00002e-14
1e-14
1e-14
1.00001e-14
1e-14
1.00001e-14
1.00001e-14
1e-14
1.06847e-14
1.18535e-14
1e-14
1e-14
1e-14
1e-14
1e-14
1e-14
1e-14
1e-14
1e-14
1e-14
1e-14
1e-14
1e-14
1.15252e-14
1.73013e-14
1.00001e-14
1e-14
1e-14
1e-14
1e-14
1e-14
1e-14
1e-14
1e-14
1.00001e-14
1.00001e-14
1e-14
1e-14
1.01581e-14
2.69479e-14
1.00002e-14
1e-14
1e-14
1.00001e-14
1e-14
1e-14
1e-14
1e-14
1e-14
1.00001e-14
1e-14
1e-14
1.00163e-14
1e-14
1e-14
1.00002e-14
1e-14
1e-14
1e-14
1.00001e-14
1.00001e-14
1e-14
1e-14
1e-14
1e-14
1e-14
1e-14
1.00632e-14
1e-14
1e-14
1.00002e-14
1e-14
1e-14
1e-14
1.00001e-14
1e-14
1e-14
1e-14
1.00001e-14
1e-14
1e-14
1e-14
1.17239e-14
1.40399e-14
1.00001e-14
1e-14
1e-14
1e-14
1e-14
1e-14
1e-14
1.00001e-14
1e-14
1e-14
1e-14
1.00188e-14
1.00699e-14
1e-14
1e-14
1e-14
1.00001e-14
1e-14
1e-14
1e-14
1.00001e-14
1e-14
1e-14
1e-14
1e-14
1.21955e-14
1.29231e-14
7.38544e-13
1.00001e-14
1e-14
1e-14
1e-14
1e-14
1.00001e-14
1e-14
1e-14
1e-14
1e-14
1.00341e-14
1.00247e-14
1e-14
1e-14
1e-14
1.00001e-14
1.00001e-14
1e-14
1e-14
1e-14
1e-14
1e-14
1.00701e-14
1.00007e-14
1.59501e-14
1.00001e-14
1e-14
1.00001e-14
1e-14
1e-14
1e-14
1e-14
1e-14
1.00339e-14
1.00007e-14
1.52346e-14
1.00001e-14
1e-14
1e-14
1e-14
1e-14
1e-14
1.00188e-14
1.21953e-14
1.00248e-14
1.59332e-14
1e-14
1e-14
1e-14
1.00163e-14
1.00632e-14
1.17238e-14
1.00699e-14
1.2923e-14
1e-14
1.06847e-14
1.15254e-14
1.01582e-14
1e-14
1e-14
1.40397e-14
1e-14
7.38549e-13
1.18534e-14
1.73017e-14
2.69469e-14
1e-14
1e-14
1e-14
1e-14
1e-14
1.00001e-14
1.00001e-14
1.00001e-14
1e-14
1e-14
1.00001e-14
1.00001e-14
1.00001e-14
1.00001e-14
1e-14
1.01923e-14
1e-14
1e-14
1e-14
1e-14
1e-14
1e-14
1e-14
1e-14
1e-14
1e-14
1e-14
1e-14
1e-14
1e-14
1.03099e-14
1.00764e-14
1e-14
1e-14
1e-14
1e-14
1e-14
1e-14
1e-14
1e-14
1e-14
1e-14
1e-14
1e-14
1.00001e-14
1e-14
1.79482e-14
1.00001e-14
1e-14
1e-14
1e-14
1.00001e-14
1e-14
1e-14
1e-14
1e-14
1e-14
1e-14
1e-14
1.0003e-14
1.00214e-14
1.02183e-14
1.00001e-14
1e-14
1e-14
1.00001e-14
1.00001e-14
1e-14
1e-14
1e-14
1e-14
1e-14
1e-14
1e-14
1.00151e-14
1.01171e-14
1e-14
1.00001e-14
1e-14
1e-14
1e-14
1e-14
1e-14
1e-14
1e-14
1e-14
1e-14
1e-14
1e-14
1.02437e-14
1e-14
1e-14
1e-14
1e-14
1e-14
1e-14
1e-14
1e-14
1e-14
1e-14
1e-14
1e-14
1.00027e-14
1e-14
1.03583e-14
1e-14
1e-14
1e-14
1e-14
1e-14
1e-14
1e-14
1e-14
1e-14
1e-14
1e-14
1.02993e-14
1e-14
1e-14
1.00001e-14
1e-14
1e-14
1e-14
1e-14
1e-14
1e-14
1e-14
1e-14
1e-14
1.00033e-14
1e-14
1e-14
1.00001e-14
1e-14
1e-14
1e-14
1e-14
1e-14
1e-14
1e-14
1e-14
1.00085e-14
1.00089e-14
1.46895e-14
1.00001e-14
1e-14
1e-14
1e-14
1e-14
1e-14
1e-14
1e-14
1.00033e-14
1.00089e-14
1.26413e-14
1.00001e-14
1e-14
1e-14
1e-14
1e-14
1e-14
1.00027e-14
1.02993e-14
1e-14
1.46879e-14
1e-14
1e-14
1.00001e-14
1.0003e-14
1.00151e-14
1.02437e-14
1e-14
1e-14
1e-14
1.01923e-14
1.031e-14
1e-14
1.00214e-14
1.01169e-14
1e-14
1.03583e-14
1e-14
1e-14
1.00767e-14
1.79481e-14
1.02184e-14
1e-14
1e-14
1e-14
1e-14
1e-14
1.00001e-14
1.00001e-14
1e-14
1e-14
1e-14
1.00001e-14
1.00001e-14
1.00001e-14
1e-14
1.00418e-14
1e-14
1e-14
1e-14
1e-14
1e-14
1e-14
1e-14
1e-14
1e-14
1e-14
1e-14
1e-14
1e-14
1e-14
1.00647e-14
1e-14
1e-14
1e-14
1e-14
1e-14
1.00001e-14
1e-14
1e-14
1e-14
1e-14
1e-14
1e-14
1e-14
1e-14
1e-14
1.02457e-14
1e-14
1e-14
1e-14
1.00001e-14
1e-14
1e-14
1e-14
1e-14
1e-14
1e-14
1e-14
1e-14
1.00006e-14
1.00012e-14
1.0028e-14
1.00001e-14
1e-14
1.00001e-14
1e-14
1e-14
1e-14
1e-14
1e-14
1e-14
1e-14
1e-14
1e-14
1.00032e-14
1e-14
1.00088e-14
1.00001e-14
1e-14
1e-14
1e-14
1e-14
1e-14
1e-14
1e-14
1e-14
1e-14
1e-14
1e-14
1.00424e-14
1e-14
1e-14
1e-14
1e-14
1e-14
1e-14
1e-14
1e-14
1e-14
1e-14
1e-14
1e-14
1.00004e-14
1.00017e-14
1.00093e-14
1e-14
1e-14
1e-14
1e-14
1e-14
1e-14
1e-14
1e-14
1e-14
1.00001e-14
1e-14
1.0047e-14
1e-14
1e-14
1e-14
1e-14
1e-14
1e-14
1e-14
1e-14
1e-14
1.00001e-14
1e-14
1.00002e-14
1.00013e-14
1.00037e-14
1.00001e-14
1e-14
1e-14
1e-14
1e-14
1e-14
1e-14
1e-14
1e-14
1.00009e-14
1.00002e-14
1.00497e-14
1.00001e-14
1e-14
1e-14
1e-14
1e-14
1e-14
1e-14
1e-14
1.00002e-14
1.00002e-14
1.00261e-14
1.00001e-14
1e-14
1e-14
1e-14
1e-14
1e-14
1.00004e-14
1.0047e-14
1.00013e-14
1.00496e-14
1e-14
1e-14
1e-14
1.00006e-14
1.00032e-14
1.00424e-14
1.00017e-14
1e-14
1.00037e-14
1.00418e-14
1.00647e-14
1e-14
1.00012e-14
1e-14
1e-14
1.00093e-14
1e-14
1e-14
1.02457e-14
1.0028e-14
1.00088e-14
1e-14
1e-14
1e-14
1e-14
1.00001e-14
1e-14
1e-14
1e-14
1e-14
1e-14
1e-14
1e-14
1e-14
1.00077e-14
1.00003e-14
1e-14
1e-14
1e-14
1e-14
1e-14
1e-14
1e-14
1e-14
1e-14
1e-14
1e-14
1e-14
1e-14
1.0012e-14
1.00007e-14
1e-14
1e-14
1e-14
1.00001e-14
1e-14
1e-14
1e-14
1e-14
1e-14
1e-14
1e-14
1e-14
1e-14
1.00001e-14
1.00034e-14
1e-14
1e-14
1.00001e-14
1e-14
1e-14
1e-14
1e-14
1e-14
1e-14
1e-14
1e-14
1e-14
1.00001e-14
1e-14
1.00002e-14
1.00001e-14
1e-14
1e-14
1e-14
1e-14
1e-14
1e-14
1e-14
1e-14
1e-14
1e-14
1e-14
1.00005e-14
1e-14
1.00001e-14
1e-14
1e-14
1e-14
1e-14
1e-14
1e-14
1e-14
1e-14
1e-14
1e-14
1e-14
1e-14
1.00064e-14
1.00005e-14
1e-14
1e-14
1e-14
1e-14
1e-14
1e-14
1e-14
1e-14
1e-14
1e-14
1e-14
1e-14
1.00002e-14
1e-14
1e-14
1e-14
1e-14
1e-14
1e-14
1e-14
1e-14
1e-14
1e-14
1e-14
1e-14
1.00065e-14
1.00005e-14
1e-14
1e-14
1e-14
1e-14
1e-14
1e-14
1e-14
1e-14
1e-14
1e-14
1e-14
1.00006e-14
1e-14
1e-14
1e-14
1e-14
1e-14
1e-14
1e-14
1e-14
1e-14
1e-14
1.00001e-14
1.00001e-14
1.00003e-14
1e-14
1e-14
1e-14
1e-14
1e-14
1e-14
1e-14
1e-14
1e-14
1.00001e-14
1.00001e-14
1e-14
1e-14
1e-14
1e-14
1e-14
1e-14
1e-14
1.00065e-14
1.00006e-14
1.00003e-14
1e-14
1e-14
1e-14
1.00001e-14
1.00005e-14
1.00064e-14
1.00002e-14
1.00005e-14
1e-14
1.00077e-14
1.0012e-14
1.00001e-14
1e-14
1e-14
1.00005e-14
1e-14
1.00003e-14
1.00007e-14
1.00034e-14
1.00002e-14
1.00001e-14
1e-14
1e-14
1e-14
1e-14
1e-14
1e-14
1e-14
1e-14
1e-14
1e-14
1e-14
1e-14
1e-14
1.00012e-14
1e-14
1e-14
1.00001e-14
1.00001e-14
1.00001e-14
1e-14
1e-14
1e-14
1e-14
1e-14
1e-14
1e-14
1e-14
1e-14
1.0002e-14
1e-14
1e-14
1.00001e-14
1.00001e-14
1.00001e-14
1e-14
1e-14
1e-14
1e-14
1e-14
1e-14
1e-14
1e-14
1e-14
1e-14
1e-14
1e-14
1.00001e-14
1.00001e-14
1e-14
1e-14
1e-14
1e-14
1e-14
1e-14
1e-14
1e-14
1e-14
1e-14
1e-14
1e-14
1e-14
1e-14
1e-14
1e-14
1e-14
1e-14
1e-14
1e-14
1e-14
1e-14
1e-14
1e-14
1.00001e-14
1e-14
1e-14
1e-14
1e-14
1e-14
1e-14
1e-14
1e-14
1e-14
1e-14
1e-14
1e-14
1e-14
1e-14
1.00008e-14
1.00003e-14
1e-14
1e-14
1e-14
1e-14
1e-14
1e-14
1e-14
1e-14
1e-14
1e-14
1e-14
1e-14
1e-14
1.00001e-14
1e-14
1e-14
1e-14
1e-14
1e-14
1e-14
1e-14
1e-14
1e-14
1e-14
1e-14
1.00008e-14
1.00001e-14
1e-14
1e-14
1e-14
1e-14
1e-14
1e-14
1e-14
1e-14
1e-14
1e-14
1e-14
1e-14
1.00001e-14
1e-14
1e-14
1e-14
1e-14
1e-14
1e-14
1e-14
1e-14
1e-14
1e-14
1e-14
1e-14
1e-14
1e-14
1e-14
1e-14
1e-14
1e-14
1e-14
1e-14
1e-14
1e-14
1e-14
1e-14
1e-14
1e-14
1e-14
1e-14
1e-14
1e-14
1.00008e-14
1e-14
1e-14
1e-14
1e-14
1e-14
1e-14
1.00001e-14
1.00008e-14
1e-14
1.00001e-14
1.00001e-14
1.00012e-14
1.0002e-14
1e-14
1e-14
1e-14
1.00003e-14
1.00001e-14
1e-14
1e-14
1e-14
1e-14
1e-14
1e-14
1.00001e-14
1.00001e-14
1e-14
1e-14
1e-14
1e-14
1e-14
1e-14
1e-14
1e-14
1e-14
1e-14
1.00001e-14
1e-14
1.00001e-14
1.00001e-14
1.00001e-14
1e-14
1e-14
1e-14
1e-14
1e-14
1e-14
1e-14
1e-14
1e-14
1e-14
1.00003e-14
1e-14
1.00001e-14
1.00001e-14
1.00001e-14
1e-14
1e-14
1e-14
1e-14
1e-14
1e-14
1e-14
1e-14
1e-14
1e-14
1e-14
1e-14
1e-14
1e-14
1e-14
1e-14
1e-14
1e-14
1e-14
1e-14
1e-14
1e-14
1e-14
1e-14
1e-14
1e-14
1e-14
1e-14
1e-14
1e-14
1e-14
1e-14
1e-14
1e-14
1e-14
1e-14
1e-14
1e-14
1e-14
1e-14
1e-14
1e-14
1e-14
1e-14
1e-14
1e-14
1e-14
1e-14
1e-14
1e-14
1e-14
1e-14
1e-14
1e-14
1.00001e-14
1.00001e-14
1e-14
1e-14
1e-14
1e-14
1e-14
1e-14
1e-14
1e-14
1e-14
1e-14
1e-14
1e-14
1e-14
1e-14
1e-14
1e-14
1e-14
1e-14
1e-14
1e-14
1e-14
1e-14
1e-14
1e-14
1e-14
1.00001e-14
1.00003e-14
1e-14
1e-14
1e-14
1e-14
1e-14
1e-14
1e-14
1e-14
1e-14
1e-14
1e-14
1e-14
1e-14
1e-14
1e-14
1e-14
1e-14
1e-14
1e-14
1e-14
1e-14
1e-14
1e-14
1e-14
1.00002e-14
1e-14
1e-14
1e-14
1e-14
1e-14
1e-14
1e-14
1e-14
1e-14
1e-14
1e-14
1e-14
1e-14
1e-14
1e-14
1e-14
1e-14
1e-14
1.00001e-14
1e-14
1.00002e-14
1e-14
1e-14
1e-14
1e-14
1e-14
1.00001e-14
1e-14
1.00003e-14
1e-14
1.00001e-14
1.00003e-14
1e-14
1e-14
1e-14
1.00001e-14
1e-14
1e-14
1e-14
1e-14
1e-14
1e-14
1.00002e-14
1.00002e-14
1.00001e-14
1e-14
1e-14
1e-14
1e-14
1e-14
1e-14
1e-14
1.00001e-14
1.00001e-14
1e-14
1e-14
1e-14
1.00002e-14
1.00001e-14
1.00001e-14
1e-14
1e-14
1e-14
1e-14
1e-14
1e-14
1.00001e-14
1e-14
1e-14
1e-14
1e-14
1e-14
1.00001e-14
1.00001e-14
1e-14
1e-14
1e-14
1e-14
1e-14
1e-14
1.00001e-14
1e-14
1e-14
1e-14
1e-14
1e-14
1e-14
1e-14
1e-14
1e-14
1e-14
1e-14
1e-14
1e-14
1e-14
1e-14
1e-14
1e-14
1e-14
1e-14
1e-14
1e-14
1e-14
1e-14
1e-14
1e-14
1e-14
1e-14
1e-14
1e-14
1e-14
1e-14
1e-14
1e-14
1e-14
1e-14
1.00001e-14
1e-14
1e-14
1e-14
1e-14
1e-14
1e-14
1e-14
1e-14
1e-14
1e-14
1e-14
1e-14
1e-14
1.00002e-14
1e-14
1e-14
1e-14
1e-14
1e-14
1e-14
1e-14
1e-14
1e-14
1.00001e-14
1e-14
1e-14
1e-14
1e-14
1e-14
1e-14
1e-14
1e-14
1e-14
1e-14
1e-14
1e-14
1e-14
1e-14
1e-14
1e-14
1.00001e-14
1e-14
1e-14
1.00001e-14
1e-14
1e-14
1e-14
1e-14
1e-14
1e-14
1e-14
1e-14
1.00001e-14
1e-14
1e-14
1.00001e-14
1e-14
1e-14
1e-14
1e-14
1.00001e-14
1e-14
1e-14
1e-14
1e-14
1.00001e-14
1.00001e-14
1e-14
1e-14
1e-14
1e-14
1e-14
1e-14
1e-14
1e-14
1e-14
1e-14
1.00001e-14
1e-14
1e-14
1e-14
1e-14
1e-14
1e-14
1e-14
1.00001e-14
1.00001e-14
1e-14
1e-14
1e-14
1e-14
1e-14
1e-14
1e-14
1.00001e-14
1e-14
1e-14
1e-14
1e-14
1e-14
1e-14
1.00002e-14
1e-14
1e-14
1e-14
1e-14
1e-14
1.00001e-14
1e-14
1.00002e-14
1.00001e-14
1.00001e-14
1e-14
1e-14
1e-14
1e-14
1.00001e-14
1.00001e-14
1.00002e-14
1e-14
1e-14
1e-14
1.00001e-14
1.00002e-14
1.00001e-14
1e-14
1e-14
1e-14
1e-14
1e-14
1e-14
1.00001e-14
1e-14
1e-14
1e-14
1e-14
1e-14
1e-14
1.00001e-14
1e-14
1e-14
1e-14
1e-14
1e-14
1e-14
1.00001e-14
1.00001e-14
1e-14
1e-14
1e-14
1e-14
1e-14
1.00001e-14
1.00001e-14
1e-14
1e-14
1e-14
1e-14
1e-14
1.00001e-14
1.00001e-14
1e-14
1e-14
1e-14
1e-14
1e-14
1e-14
1e-14
1e-14
1e-14
1e-14
1e-14
1e-14
1e-14
1e-14
1e-14
1e-14
1e-14
1e-14
1e-14
1e-14
1e-14
1.00001e-14
1e-14
1e-14
1e-14
1e-14
1e-14
1e-14
1e-14
1e-14
1e-14
1e-14
1e-14
1e-14
1e-14
1.00003e-14
1e-14
1e-14
1e-14
1.00001e-14
1e-14
1e-14
1e-14
1e-14
1e-14
1e-14
1e-14
1e-14
1.00002e-14
1e-14
1e-14
1e-14
1.00001e-14
1.00001e-14
1e-14
1e-14
1e-14
1e-14
1e-14
1e-14
1e-14
1e-14
1.00003e-14
1.00001e-14
1.00001e-14
1.00001e-14
1e-14
1e-14
1e-14
1e-14
1e-14
1e-14
1e-14
1e-14
1e-14
1e-14
1.00001e-14
1e-14
1e-14
1e-14
1e-14
1e-14
1e-14
1e-14
1e-14
1e-14
1e-14
1.00003e-14
1.00002e-14
1e-14
1e-14
1e-14
1e-14
1e-14
1e-14
1e-14
1e-14
1e-14
1e-14
1e-14
1e-14
1e-14
1e-14
1e-14
1e-14
1e-14
1e-14
1e-14
1.00003e-14
1e-14
1e-14
1e-14
1e-14
1e-14
1e-14
1.00002e-14
1.00003e-14
1e-14
1e-14
1e-14
1e-14
1e-14
1e-14
1.00003e-14
1e-14
1.00002e-14
1e-14
1e-14
1e-14
1.00001e-14
1e-14
1.00001e-14
1.00001e-14
1e-14
1e-14
1e-14
1e-14
1e-14
1e-14
1.00001e-14
1e-14
1e-14
1e-14
1e-14
1e-14
1.00001e-14
1.00001e-14
1e-14
1e-14
1e-14
1e-14
1e-14
1e-14
1.00001e-14
1e-14
1e-14
1e-14
1e-14
1e-14
1e-14
1.00001e-14
1e-14
1e-14
1e-14
1e-14
1e-14
1.00001e-14
1.00001e-14
1e-14
1e-14
1e-14
1e-14
1e-14
1e-14
1e-14
1e-14
1e-14
1e-14
1e-14
1e-14
1.00001e-14
1.00001e-14
1e-14
1e-14
1e-14
1e-14
1e-14
1e-14
1e-14
1e-14
1e-14
1e-14
1e-14
1e-14
1.00001e-14
1e-14
1e-14
1e-14
1e-14
1e-14
1e-14
1e-14
1e-14
1e-14
1e-14
1e-14
1e-14
1e-14
1.00001e-14
1e-14
1e-14
1e-14
1e-14
1e-14
1e-14
1e-14
1e-14
1e-14
1.00003e-14
1e-14
1e-14
1.00001e-14
1.00001e-14
1e-14
1e-14
1e-14
1e-14
1e-14
1e-14
1e-14
1e-14
1e-14
1e-14
1e-14
1e-14
1.00001e-14
1e-14
1e-14
1e-14
1e-14
1e-14
1e-14
1e-14
1e-14
1e-14
1.00002e-14
1e-14
1.00001e-14
1e-14
1e-14
1e-14
1e-14
1e-14
1e-14
1e-14
1e-14
1.00001e-14
1.00001e-14
1e-14
1.00001e-14
1e-14
1e-14
1e-14
1e-14
1e-14
1e-14
1e-14
1e-14
1e-14
1.00001e-14
1.00001e-14
1.00001e-14
1e-14
1e-14
1e-14
1e-14
1e-14
1e-14
1e-14
1.00001e-14
1.00001e-14
1.00001e-14
1e-14
1e-14
1e-14
1e-14
1e-14
1e-14
1e-14
1e-14
1.00001e-14
1.00001e-14
1e-14
1e-14
1e-14
1e-14
1e-14
1e-14
1e-14
1.00002e-14
1e-14
1e-14
1e-14
1e-14
1e-14
1e-14
1.00003e-14
1e-14
1e-14
1e-14
1e-14
1e-14
1e-14
1.96692e-14
4.74141e-13
2.11824e-14
5.0668e-13
2.41934e-14
5.37032e-13
3.28607e-14
5.90553e-14
1.27487e-14
1.04723e-14
7.71574e-14
1.15903e-14
3.70809e-14
1.01587e-14
4.34662e-14
9.64088e-14
1.12603e-12
1.77503e-14
3.21611e-13
5.12363e-14
1.01219e-14
1.50093e-14
1.13472e-14
4.06703e-14
1.21272e-14
4.30499e-13
1.39991e-14
1.13395e-13
8.68686e-14
9.63411e-13
1.02979e-14
2.72875e-14
1.51234e-14
4.10754e-13
1e-14
6.88764e-14
9.94643e-13
1.02019e-12
6.19592e-14
1.0319e-12
1.02837e-12
1.02975e-14
1.51187e-14
2.7284e-14
4.10781e-13
6.88047e-14
1.01848e-12
9.94573e-13
1.01219e-14
1.13464e-14
1.50088e-14
4.06662e-14
1.39967e-14
8.68454e-14
1.13389e-13
1e-14
1.15901e-14
1.01587e-14
3.70789e-14
4.34639e-14
1.77498e-14
5.12343e-14
3.21607e-13
1.21274e-14
4.30489e-13
9.63411e-13
1.96671e-14
2.11646e-14
4.74341e-13
5.06628e-13
2.4185e-14
3.28652e-14
5.36988e-13
5.90606e-14
1.27484e-14
1.04722e-14
7.71595e-14
9.64048e-14
1.12603e-12
3.59384e-13
1.51053e-14
3.76261e-13
1.84452e-14
4.67927e-13
1.98216e-14
5.00195e-13
4.02224e-13
1.21411e-14
2.23986e-14
5.30563e-13
2.97049e-14
1e-14
5.21761e-14
1.21374e-14
1e-14
1.05058e-14
7.20391e-14
2.71614e-14
1.01715e-14
1e-14
1.11108e-14
3.34403e-14
1.01498e-14
4.08564e-14
1.01484e-12
9.173e-14
1.11972e-12
2.47172e-13
1.81142e-14
1.67534e-14
3.19104e-13
4.68496e-14
1.09088e-14
1e-14
2.64889e-14
1.00722e-14
1.42044e-14
1.10848e-14
3.69687e-14
1.46134e-13
1.24352e-14
4.29246e-13
1e-14
1.84669e-14
1.34885e-14
1.07444e-13
7.81385e-14
9.58625e-13
1.60532e-14
1.22713e-14
3.08429e-13
1.0194e-14
2.58467e-14
1.41651e-14
4.04812e-13
1e-14
7.89961e-13
4.13948e-13
6.09245e-14
9.85216e-13
1.02438e-12
4.58845e-13
4.57869e-13
5.44653e-14
1.03392e-12
1.03025e-12
1.22711e-14
1.60524e-14
3.08428e-13
1.01936e-14
1.41595e-14
2.58438e-14
4.0483e-13
4.14124e-13
7.90021e-13
6.08582e-14
1.02277e-12
9.85162e-13
1e-14
1.09088e-14
2.64875e-14
1.00722e-14
1.10845e-14
1.4204e-14
3.69662e-14
1.84712e-14
1e-14
1.3489e-14
7.81204e-14
1.07446e-13
1e-14
1.01714e-14
2.71612e-14
1e-14
1.11106e-14
1.01498e-14
3.34388e-14
4.08533e-14
1.81135e-14
2.47173e-13
1.6753e-14
4.68477e-14
3.19102e-13
1.46148e-13
1.2435e-14
4.29244e-13
9.58627e-13
1.50993e-14
3.59585e-13
3.7633e-13
1.84442e-14
1.98073e-14
4.68125e-13
5.00159e-13
1.21416e-14
4.02279e-13
2.23918e-14
2.97093e-14
5.30531e-13
1e-14
5.21797e-14
1.21372e-14
1e-14
1.05056e-14
7.20407e-14
1.01483e-12
9.17288e-14
1.11973e-12
3.59664e-13
1.50719e-14
3.7679e-13
1.8318e-14
4.67578e-13
1.96936e-14
4.99763e-13
4.03513e-13
1.21961e-14
2.22762e-14
5.30437e-13
2.9198e-14
1e-14
5.1133e-14
1.20767e-14
1e-14
1.04729e-14
7.18529e-14
2.68588e-14
1.01777e-14
1e-14
1.10285e-14
3.30381e-14
1.01423e-14
4.01082e-14
1.01063e-12
9.18972e-14
1.1196e-12
2.48173e-13
1.83459e-14
1.66619e-14
3.19212e-13
4.65802e-14
1.08079e-14
1e-14
2.68594e-14
1.00687e-14
1.42175e-14
1.10068e-14
3.69257e-14
1.51904e-13
1.27271e-14
4.27912e-13
1e-14
1.95367e-14
1.34283e-14
1.09147e-13
7.68724e-14
9.59328e-13
1.5949e-14
1.21372e-14
3.09512e-13
1.01943e-14
2.60003e-14
1.40114e-14
4.05193e-13
1e-14
7.91382e-13
4.28604e-13
5.91837e-14
9.86391e-13
1.0214e-12
4.73987e-13
4.72977e-13
5.30359e-14
1.03111e-12
1.02748e-12
1.21373e-14
1.59484e-14
3.09508e-13
1.01939e-14
1.40062e-14
2.59978e-14
4.05208e-13
4.28766e-13
7.91417e-13
5.91213e-14
1.01982e-12
9.86342e-13
1e-14
1.08079e-14
2.68583e-14
1.00686e-14
1.10064e-14
1.42171e-14
3.69232e-14
1.95348e-14
1e-14
1.34282e-14
7.68636e-14
1.09149e-13
1e-14
1.01776e-14
2.68586e-14
1e-14
1.10283e-14
1.01422e-14
3.30366e-14
4.0107e-14
1.83452e-14
2.48176e-13
1.66615e-14
4.65784e-14
3.19208e-13
1.51916e-13
1.27268e-14
4.2791e-13
9.59343e-13
1.50672e-14
3.59862e-13
3.76862e-13
1.83178e-14
1.96825e-14
4.67773e-13
4.99741e-13
1.21966e-14
4.03564e-13
2.22713e-14
2.92037e-14
5.30418e-13
1e-14
5.1136e-14
1.20766e-14
1e-14
1.04728e-14
7.18548e-14
1.01063e-12
9.18965e-14
1.11959e-12
3.59966e-13
1.51211e-14
3.77045e-13
1.83321e-14
4.67556e-13
1.97154e-14
4.99771e-13
4.03925e-13
1.22062e-14
2.23115e-14
5.30533e-13
2.91732e-14
1e-14
5.11556e-14
1.20684e-14
1e-14
1.04654e-14
7.17881e-14
2.69678e-14
1.01809e-14
1e-14
1.10187e-14
3.30496e-14
1.0141e-14
3.99272e-14
1.00882e-12
9.20185e-14
1.11967e-12
2.4831e-13
1.84543e-14
1.66818e-14
3.19429e-13
4.65902e-14
1.08132e-14
1e-14
2.70857e-14
1.00653e-14
1.42427e-14
1.099e-14
3.69861e-14
1.51716e-13
1.27958e-14
4.27338e-13
1e-14
1.97621e-14
1.34187e-14
1.10107e-13
7.66949e-14
9.59533e-13
1.59917e-14
1.2123e-14
3.09774e-13
1.01889e-14
2.60492e-14
1.39989e-14
4.05345e-13
1e-14
7.91027e-13
4.28532e-13
5.89058e-14
9.86569e-13
1.02088e-12
4.74202e-13
4.73222e-13
5.27946e-14
1.0305e-12
1.02686e-12
1.21232e-14
1.59913e-14
3.09765e-13
1.01884e-14
1.39938e-14
2.60468e-14
4.05356e-13
4.28712e-13
7.91065e-13
5.8844e-14
1.01928e-12
9.86518e-13
1e-14
1.08131e-14
2.70846e-14
1.00653e-14
1.09898e-14
1.42424e-14
3.69844e-14
1.97611e-14
1e-14
1.34184e-14
7.66873e-14
1.1011e-13
1e-14
1.01809e-14
2.69677e-14
1e-14
1.10184e-14
1.0141e-14
3.30478e-14
3.99256e-14
1.84536e-14
2.48312e-13
1.66815e-14
4.65887e-14
3.19427e-13
1.5173e-13
1.2796e-14
4.27336e-13
9.59527e-13
1.51177e-14
3.60162e-13
3.77129e-13
1.83346e-14
1.97144e-14
4.6776e-13
4.99784e-13
1.22075e-14
4.03981e-13
2.23131e-14
2.91821e-14
5.30539e-13
1e-14
5.11573e-14
1.20684e-14
1e-14
1.04653e-14
7.1789e-14
1.00883e-12
9.20173e-14
1.11967e-12
3.59853e-13
1.51285e-14
3.76947e-13
1.8366e-14
4.6761e-13
1.97632e-14
4.99893e-13
4.03834e-13
1.21629e-14
2.23968e-14
5.30632e-13
2.9321e-14
1e-14
5.14216e-14
1.20656e-14
1e-14
1.04736e-14
7.1675e-14
2.70243e-14
1.01801e-14
1e-14
1.10136e-14
3.31107e-14
1.01401e-14
3.96696e-14
1.00833e-12
9.20571e-14
1.11968e-12
2.48394e-13
1.83823e-14
1.66981e-14
3.19769e-13
4.66179e-14
1.08232e-14
1e-14
2.70946e-14
1.00613e-14
1.42551e-14
1.09733e-14
3.69754e-14
1.51302e-13
1.28512e-14
4.26834e-13
1e-14
1.96963e-14
1.34056e-14
1.10954e-13
7.65498e-14
9.59893e-13
1.6004e-14
1.21186e-14
3.09885e-13
1.01845e-14
2.6047e-14
1.39922e-14
4.05352e-13
1e-14
7.91012e-13
4.28343e-13
5.89001e-14
9.865e-13
1.02078e-12
4.74013e-13
4.73017e-13
5.27938e-14
1.03033e-12
1.02669e-12
1.21188e-14
1.60039e-14
3.09873e-13
1.01841e-14
1.39871e-14
2.60451e-14
4.05362e-13
4.28506e-13
7.91046e-13
5.88382e-14
1.01919e-12
9.86455e-13
1e-14
1.08232e-14
2.70938e-14
1.00613e-14
1.09731e-14
1.42548e-14
3.6974e-14
1.96956e-14
1e-14
1.34053e-14
7.65408e-14
1.10956e-13
1e-14
1.01801e-14
2.7024e-14
1e-14
1.10134e-14
1.014e-14
3.3109e-14
3.96659e-14
1.8382e-14
2.48396e-13
1.66978e-14
4.66163e-14
3.19768e-13
1.5131e-13
1.28514e-14
4.26832e-13
9.59891e-13
1.51294e-14
3.60001e-13
3.77032e-13
1.83603e-14
1.97706e-14
4.67604e-13
4.99936e-13
1.21668e-14
4.03889e-13
2.24035e-14
2.93305e-14
5.3066e-13
1e-14
5.14213e-14
1.20656e-14
1e-14
1.04736e-14
7.16768e-14
1.00833e-12
9.20577e-14
1.11969e-12
3.59355e-13
1.51272e-14
3.76456e-13
1.8442e-14
4.67734e-13
1.98869e-14
5.00228e-13
4.03099e-13
1.20944e-14
2.26527e-14
5.30722e-13
2.98689e-14
1e-14
5.201e-14
1.21137e-14
1e-14
1.05355e-14
7.17114e-14
2.71811e-14
1.01776e-14
1e-14
1.10072e-14
3.34087e-14
1.01391e-14
3.91532e-14
1.00763e-12
9.25964e-14
1.11923e-12
2.48452e-13
1.82141e-14
1.67381e-14
3.2059e-13
4.67917e-14
1.08388e-14
1e-14
2.70548e-14
1.00567e-14
1.42782e-14
1.09577e-14
3.70598e-14
1.5054e-13
1.29299e-14
4.26215e-13
1e-14
1.95171e-14
1.34088e-14
1.12152e-13
7.6557e-14
9.59802e-13
1.59884e-14
1.21115e-14
3.09991e-13
1.01837e-14
2.60634e-14
1.40031e-14
4.0532e-13
1e-14
7.90922e-13
4.281e-13
5.91817e-14
9.86433e-13
1.02055e-12
4.73817e-13
4.72827e-13
5.29703e-14
1.03008e-12
1.02646e-12
1.21117e-14
1.59884e-14
3.09981e-13
1.01833e-14
1.39981e-14
2.60616e-14
4.05331e-13
4.28281e-13
7.90957e-13
5.91217e-14
1.01897e-12
9.86391e-13
1e-14
1.08387e-14
2.70543e-14
1.00567e-14
1.09575e-14
1.42779e-14
3.70585e-14
1.95151e-14
1e-14
1.34086e-14
7.65496e-14
1.12154e-13
1e-14
1.01776e-14
2.71809e-14
1e-14
1.1007e-14
1.0139e-14
3.34072e-14
3.91536e-14
1.82136e-14
2.48456e-13
1.67378e-14
4.67904e-14
3.20584e-13
1.50546e-13
1.29298e-14
4.26213e-13
9.59807e-13
1.51297e-14
3.59364e-13
3.76511e-13
1.84389e-14
1.98922e-14
4.67712e-13
5.00262e-13
1.20979e-14
4.03139e-13
2.26554e-14
2.9874e-14
5.30746e-13
1e-14
5.20078e-14