/*--------------------------------*- C++ -*----------------------------------*\
| =========                 |                                                 |
| \\      /  F ield         | OpenFOAM: The Open Source CFD Toolbox           |
|  \\    /   O peration     | Version:  2.1.1                                 |
|   \\  /    A nd           | Web:      www.OpenFOAM.org                      |
|    \\/     M anipulation  |                                                 |
\*---------------------------------------------------------------------------*/
FoamFile
{
    version     2.0;
    format      ascii;
    class       volScalarField;
    location    "0.0015";
    object      p;
}
// * * * * * * * * * * * * * * * * * * * * * * * * * * * * * * * * * * * * * //

dimensions      [0 2 -2 0 0 0 0];

internalField   nonuniform List<scalar> 
10260
(
0.0868997
0.0831566
0.0829426
0.0830086
0.0829501
0.0829675
0.082949
0.0829571
0.0829578
0.0829691
0.0829738
0.0829823
0.0829869
0.0829918
0.0829939
0.0875882
0.0833151
0.0828938
0.0830127
0.0829341
0.0829673
0.0829438
0.0829561
0.0829565
0.0829693
0.0829728
0.0829812
0.0829853
0.0829903
0.0829921
0.0955994
0.0832602
0.0829591
0.0830398
0.0829657
0.0829819
0.0829643
0.08297
0.0829695
0.0829749
0.0829785
0.0829826
0.0829854
0.0829867
0.0857442
0.0831726
0.0829435
0.0830032
0.082967
0.0829706
0.082974
0.082968
0.0829717
0.0829719
0.0829765
0.0829785
0.0829813
0.082982
0.0851636
0.0832136
0.083015
0.0830556
0.0829769
0.0830062
0.0829752
0.082984
0.0829713
0.082976
0.0829721
0.082975
0.0829733
0.0829742
0.0869023
0.0833649
0.0830251
0.0830722
0.0830308
0.0830007
0.0829995
0.0829792
0.0829806
0.0829712
0.0829716
0.0829694
0.0829696
0.0829695
0.0969637
0.0832552
0.0830732
0.0830269
0.0830538
0.0829931
0.0830087
0.0829794
0.0829835
0.0829677
0.0829706
0.0829586
0.0829593
0.0972198
0.0833959
0.0830319
0.0831547
0.0830037
0.0830606
0.0829941
0.083
0.082974
0.0829708
0.0829649
0.0829608
0.0829581
0.0996196
0.0834975
0.0829214
0.0831957
0.0830068
0.0830558
0.0830015
0.0830067
0.0829718
0.0829829
0.0829467
0.0829516
0.089385
0.0943873
0.0834808
0.0829252
0.0831636
0.0830317
0.0830306
0.0829799
0.0829682
0.0829668
0.0829666
0.0829685
0.104756
0.0939752
0.0835013
0.0830383
0.0830755
0.083075
0.0830576
0.0830069
0.083043
0.0829377
0.0829539
0.106266
0.0976539
0.0834002
0.0832665
0.0830262
0.0830136
0.0829439
0.0829603
0.0830111
0.0830108
0.0969174
0.0957484
0.0833871
0.0832234
0.0831821
0.0832651
0.082892
0.0829424
0.0988163
0.0980093
0.0976577
0.0954268
0.0958494
0.0833374
0.0831797
0.0865481
0.0965521
0.0986695
0.0961958
0.0982861
0.0858769
0.0815176
0.0814738
0.081534
0.0815549
0.0815968
0.0816243
0.0816565
0.0816797
0.0817047
0.0817219
0.0817385
0.0817489
0.0817572
0.0817612
0.0865862
0.0816857
0.081416
0.0815515
0.0815444
0.0815982
0.0816202
0.0816563
0.081677
0.0817033
0.081719
0.0817357
0.0817455
0.081754
0.0817576
0.0930877
0.0816416
0.0814724
0.0815923
0.0815835
0.081631
0.0816489
0.081677
0.0816964
0.081714
0.0817282
0.0817384
0.0817458
0.0817492
0.0838597
0.0816442
0.0814877
0.0815844
0.0815899
0.0816236
0.0816522
0.0816694
0.0816924
0.0817047
0.0817201
0.081728
0.0817358
0.0817385
0.0833944
0.0816075
0.0815331
0.0815923
0.0815869
0.0816297
0.0816379
0.0816662
0.0816779
0.0816949
0.0817049
0.0817142
0.0817195
0.0817224
0.0857317
0.0817655
0.0815242
0.0816034
0.0816106
0.0816114
0.0816473
0.0816487
0.0816736
0.0816777
0.0816923
0.0816965
0.0817037
0.0817052
0.0945796
0.0816772
0.0815781
0.0815737
0.0816314
0.0816135
0.08165
0.0816491
0.0816659
0.0816693
0.0816777
0.0816787
0.0816813
0.0957853
0.0817844
0.081486
0.0816761
0.0815573
0.0816556
0.0816155
0.0816486
0.0816372
0.0816505
0.0816501
0.0816578
0.0816581
0.0971581
0.0819296
0.0813787
0.0817214
0.0815664
0.0816384
0.0816146
0.0816303
0.0816247
0.0816324
0.0816223
0.0816261
0.0882778
0.0920475
0.0819572
0.0813847
0.0817148
0.0815865
0.0816124
0.0815837
0.0815935
0.0815854
0.081598
0.0815975
0.103545
0.091692
0.0819352
0.0815009
0.0815839
0.0816065
0.0815917
0.081587
0.0815954
0.0815462
0.0815565
0.105053
0.0951695
0.0817892
0.0816821
0.0815234
0.081532
0.0814875
0.0814722
0.0815497
0.0815356
0.094803
0.0934001
0.0817669
0.0816057
0.0816431
0.081641
0.0814125
0.0814719
0.0974311
0.0958576
0.0953764
0.0932146
0.0934787
0.0816803
0.0815146
0.0853045
0.0951888
0.0972062
0.0937209
0.0957595
0.0844931
0.0798865
0.0800091
0.0800635
0.0801677
0.0802374
0.0803098
0.0803642
0.0804102
0.0804491
0.0804782
0.0805029
0.080519
0.0805312
0.0805362
0.0851896
0.0800206
0.0799441
0.0800871
0.0801595
0.0802402
0.0803055
0.0803633
0.0804061
0.0804459
0.0804733
0.0804982
0.0805138
0.0805262
0.0805313
0.0913042
0.080017
0.0800178
0.0801485
0.080216
0.0802879
0.080346
0.080393
0.0804318
0.080461
0.0804856
0.0805018
0.0805141
0.0805193
0.0822341
0.0800869
0.080052
0.0801618
0.0802241
0.0802837
0.0803422
0.0803794
0.0804212
0.0804454
0.0804716
0.0804855
0.0804984
0.0805029
0.081799
0.0799882
0.0800677
0.0801231
0.080194
0.0802584
0.080309
0.0803556
0.0803921
0.0804212
0.0804456
0.0804611
0.0804737
0.0804786
0.0842758
0.0801631
0.0800389
0.0801348
0.080202
0.0802288
0.0803022
0.0803249
0.0803738
0.0803919
0.0804211
0.0804317
0.0804461
0.0804495
0.0928815
0.0801178
0.0801012
0.0801314
0.0802172
0.0802388
0.0802966
0.0803253
0.0803556
0.0803795
0.0803931
0.0804069
0.0804113
0.0943249
0.0802004
0.0799957
0.0802188
0.0801186
0.0802528
0.0802398
0.0803029
0.080309
0.0803418
0.0803454
0.0803625
0.080366
0.0955176
0.0803511
0.0798991
0.0802307
0.0801226
0.08022
0.0802305
0.0802587
0.0802846
0.0802887
0.0803061
0.0803099
0.0868822
0.0904236
0.0804035
0.0799012
0.080226
0.0801361
0.0802035
0.0801935
0.0802243
0.0802166
0.0802387
0.080237
0.102203
0.0900856
0.0803527
0.0800009
0.0801031
0.0801363
0.0801221
0.0801621
0.0801485
0.0801598
0.0801683
0.103731
0.0935699
0.0802024
0.0801194
0.0800387
0.0800661
0.0800499
0.0800152
0.0800846
0.0800624
0.0932865
0.0917744
0.0801606
0.0799848
0.0800843
0.0800137
0.079942
0.0800084
0.0960624
0.0943759
0.0938159
0.0916474
0.0918553
0.080012
0.0798802
0.0838746
0.0937748
0.0957656
0.0921075
0.0941421
0.0830184
0.0782286
0.0785369
0.0785916
0.078788
0.078888
0.0790028
0.079079
0.0791498
0.0792024
0.0792427
0.079275
0.0792967
0.0793125
0.079319
0.0836952
0.0783103
0.0784728
0.0786106
0.0787841
0.0788921
0.0789992
0.0790815
0.0791449
0.0791975
0.0792359
0.0792686
0.0792897
0.0793057
0.0793124
0.0896189
0.0783557
0.0785634
0.0787003
0.0788594
0.0789509
0.0790548
0.0791187
0.0791764
0.0792165
0.0792511
0.079273
0.07929
0.0792969
0.0806209
0.0785165
0.0786052
0.0787413
0.078869
0.0789599
0.0790451
0.0790997
0.0791594
0.0791948
0.0792313
0.079251
0.0792688
0.0792751
0.0802003
0.0783391
0.0785964
0.0786499
0.0788129
0.0788985
0.0789923
0.0790551
0.0791159
0.0791566
0.079195
0.0792165
0.0792364
0.0792431
0.0827318
0.078562
0.0785542
0.0786567
0.0788014
0.0788539
0.0789668
0.0790109
0.0790838
0.0791157
0.0791593
0.0791762
0.0791976
0.0792026
0.0912363
0.0785726
0.0786136
0.0786916
0.0788058
0.0788729
0.0789522
0.0790111
0.079055
0.0790999
0.0791187
0.0791453
0.0791502
0.0927515
0.0786297
0.0784858
0.0787382
0.0786858
0.0788527
0.0788729
0.0789668
0.0789921
0.0790452
0.0790547
0.0790814
0.0790784
0.0939396
0.078779
0.0784138
0.0787324
0.0786865
0.0788062
0.0788544
0.0788978
0.0789602
0.0789506
0.0789994
0.079003
0.0853646
0.0888913
0.0788505
0.0784088
0.0787383
0.0786922
0.0788021
0.0788109
0.0788678
0.0788584
0.0788911
0.0788878
0.100712
0.0885723
0.0787768
0.0784863
0.0786117
0.0786576
0.0786477
0.0787403
0.0786988
0.0787838
0.0787884
0.102253
0.0920615
0.0786293
0.0785725
0.0785524
0.0785935
0.0786022
0.0785605
0.0786077
0.0785904
0.0917769
0.0902711
0.07856
0.0783357
0.0785138
0.0783519
0.0784699
0.0785353
0.0945618
0.0929553
0.0923777
0.0902238
0.0903725
0.0783037
0.0782239
0.0823597
0.0923367
0.094285
0.0905995
0.0926735
0.0815079
0.0764917
0.0770711
0.0771236
0.0774302
0.0775562
0.0777172
0.0778174
0.077902
0.0779651
0.0780155
0.0780547
0.0780816
0.0781007
0.0781088
0.0821562
0.0764275
0.0770255
0.0771331
0.0774353
0.0775628
0.0777187
0.0778088
0.0778939
0.0779584
0.078007
0.0780467
0.0780729
0.0780922
0.0781005
0.0878152
0.076547
0.077105
0.0772423
0.0775239
0.0776485
0.0777731
0.0778543
0.0779307
0.0779809
0.0780247
0.0780519
0.0780731
0.0780817
0.0788818
0.0769052
0.077171
0.0773345
0.0775301
0.0776304
0.0777598
0.0778315
0.0779079
0.0779537
0.0779995
0.0780246
0.0780468
0.0780547
0.0784973
0.0766078
0.0771301
0.077179
0.0774576
0.0775421
0.0776887
0.0777676
0.0778515
0.0779026
0.0779539
0.0779809
0.0780074
0.0780158
0.0810914
0.0768929
0.0770813
0.0771813
0.0774081
0.0774896
0.0776446
0.0777107
0.0778059
0.0778512
0.0779078
0.0779305
0.0779584
0.0779652
0.0895191
0.0769991
0.0771016
0.0772579
0.0774018
0.077522
0.0776217
0.0777106
0.0777671
0.0778313
0.0778539
0.077894
0.0779027
0.0910912
0.0769887
0.076964
0.0772445
0.0772589
0.0774596
0.0775213
0.077644
0.0776877
0.0777586
0.0777717
0.0778079
0.0778194
0.0922986
0.0771465
0.0768961
0.0772195
0.0772587
0.0774007
0.0774886
0.0775408
0.0776291
0.0776481
0.0777191
0.0777181
0.0837735
0.0873322
0.0772598
0.0768942
0.077243
0.0772558
0.0774049
0.0774572
0.0775288
0.0775225
0.0775621
0.0775561
0.0991527
0.0870353
0.0771426
0.0769626
0.0770995
0.0771787
0.0771759
0.077333
0.0772402
0.0774347
0.0774299
0.100702
0.0905225
0.0769873
0.0770009
0.077075
0.0771257
0.0771679
0.0771021
0.0771306
0.0771227
0.0902426
0.0887769
0.0768898
0.0766038
0.0769024
0.076543
0.0770227
0.0770693
0.0929906
0.091601
0.0910453
0.0888846
0.088869
0.0764218
0.0764892
0.0807731
0.0909378
0.0927898
0.0891008
0.0912797
0.0799009
0.0746643
0.0756657
0.0756773
0.0761088
0.0762448
0.0764447
0.0765537
0.0766631
0.076737
0.0767968
0.0768417
0.0768732
0.0768951
0.0769049
0.0806126
0.074293
0.0757006
0.0756817
0.0761298
0.0762525
0.0764397
0.0765543
0.0766556
0.0767291
0.0767868
0.0768323
0.076863
0.0768852
0.0768949
0.0856245
0.0745046
0.0756726
0.0757889
0.0761995
0.0763108
0.0765101
0.0766056
0.0766961
0.0767549
0.0768064
0.0768383
0.0768632
0.0768733
0.0769378
0.0752742
0.0757877
0.0759513
0.0762226
0.0763593
0.0764942
0.0765778
0.076668
0.0767228
0.0767765
0.0768063
0.0768323
0.0768417
0.0765751
0.074773
0.0756896
0.0757187
0.0761087
0.0762345
0.0764112
0.0764978
0.0766009
0.0766608
0.0767229
0.0767549
0.0767869
0.0767969
0.0791523
0.0751025
0.0756197
0.0757204
0.076073
0.0761608
0.0763454
0.0764293
0.076543
0.0766005
0.0766678
0.0766958
0.076729
0.076737
0.0876634
0.0754191
0.0756005
0.0758606
0.0760224
0.0761952
0.0763125
0.0764291
0.0764973
0.0765777
0.0766052
0.0766557
0.0766633
0.0892808
0.0752059
0.0754336
0.0757377
0.075851
0.0760827
0.0761942
0.0763443
0.0764099
0.076494
0.076509
0.076554
0.0765538
0.0904575
0.0753746
0.0753714
0.0756805
0.0758504
0.0760208
0.076159
0.0762308
0.0763582
0.0763116
0.0764402
0.0764451
0.0820362
0.0857271
0.0755781
0.0753684
0.0757353
0.075858
0.0760722
0.076104
0.0762205
0.076198
0.0762518
0.0762448
0.097558
0.0854758
0.0753677
0.0754294
0.0755971
0.0757182
0.0757148
0.0759493
0.0757865
0.076129
0.0761084
0.0991227
0.08896
0.0752023
0.0754155
0.0756169
0.0756856
0.0757849
0.0756698
0.0756796
0.0756765
0.0886951
0.087376
0.0751
0.0747691
0.0752716
0.0745011
0.0756984
0.0756642
0.0913237
0.0904047
0.0899418
0.0876348
0.0870446
0.0742891
0.0746634
0.0790142
0.0897619
0.0913549
0.0877107
0.090105
0.076937
0.072708
0.0743301
0.0742594
0.0748264
0.0749601
0.0751994
0.0753171
0.0754391
0.0755193
0.0755868
0.0756361
0.0756715
0.0756956
0.0757067
0.0783174
0.071885
0.0744855
0.0742829
0.0748628
0.0749771
0.0752016
0.0753153
0.0754298
0.0755101
0.0755753
0.0756253
0.07566
0.0756845
0.0756956
0.0818143
0.0720808
0.0742296
0.0743655
0.0749028
0.0750655
0.0752631
0.075371
0.0754727
0.0755392
0.0755966
0.0756324
0.0756601
0.0756715
0.0755735
0.0735633
0.0744983
0.0745936
0.0749516
0.075072
0.0752447
0.0753395
0.0754402
0.0755028
0.0755624
0.0755964
0.0756253
0.075636
0.0743733
0.0728604
0.0743181
0.0743158
0.0748544
0.0749334
0.0751491
0.0752475
0.0753655
0.075433
0.075503
0.0755391
0.0755753
0.0755868
0.0751974
0.0732243
0.0742226
0.0742762
0.0747096
0.0748432
0.0750654
0.0751692
0.075297
0.0753651
0.07544
0.0754724
0.0755099
0.0755193
0.0854821
0.0738265
0.0741201
0.0744803
0.0746702
0.0748979
0.0750308
0.0751691
0.0752469
0.0753391
0.0753707
0.0754298
0.0754392
0.0868647
0.0732267
0.0739071
0.0742226
0.0744775
0.0747335
0.0748968
0.0750644
0.0751481
0.0752441
0.0752622
0.0753149
0.0753168
0.0878477
0.0733277
0.0738474
0.0741279
0.0744766
0.074668
0.0748412
0.0749327
0.075072
0.0750637
0.0752007
0.0751996
0.0795771
0.0840845
0.0737236
0.073842
0.0742194
0.0744756
0.0747041
0.0748554
0.0749511
0.0749005
0.0749741
0.0749617
0.0960373
0.0839546
0.0733183
0.0739008
0.0741149
0.0742721
0.0743131
0.0745919
0.0743634
0.0748613
0.0748263
0.0976202
0.0876185
0.0732222
0.0738208
0.0742191
0.0743139
0.0744961
0.074227
0.0742811
0.0742587
0.0872691
0.0860085
0.0732214
0.0728564
0.073561
0.072078
0.0744838
0.0743289
0.0894226
0.0892842
0.0894546
0.0867436
0.083287
0.0718825
0.0727072
0.0761627
0.0895937
0.0893932
0.0869475
0.0897781
0.0689194
0.0707986
0.0731568
0.0729153
0.0735857
0.0737076
0.073976
0.0740962
0.0742294
0.0743131
0.0743862
0.0744384
0.0744768
0.0745025
0.0745145
0.0710032
0.0709434
0.0733255
0.0730211
0.0736242
0.0737284
0.0739743
0.0740928
0.074218
0.0743025
0.0743734
0.0744265
0.0744643
0.0744904
0.0745024
0.0670408
0.0706975
0.0725542
0.0730454
0.0736028
0.0738207
0.0740321
0.0741551
0.0742624
0.074335
0.0743959
0.0744349
0.0744644
0.0744768
0.0780706
0.0712094
0.0732524
0.0732253
0.0736789
0.0738198
0.074012
0.0741184
0.0742262
0.0742952
0.0743584
0.0743958
0.0744265
0.0744382
0.0715337
0.0707922
0.0730141
0.0729717
0.0735589
0.0736779
0.0739149
0.074022
0.0741479
0.0742211
0.0742952
0.0743349
0.0743735
0.0743862
0.0633916
0.0710863
0.0729096
0.0729054
0.0734488
0.0735829
0.0738179
0.0739369
0.0740712
0.0741475
0.0742259
0.074262
0.0743023
0.074313
0.0811522
0.0724063
0.0727197
0.0731941
0.0733907
0.0736477
0.0737879
0.0739367
0.0740214
0.074118
0.0741547
0.0742179
0.0742293
0.0591879
0.0712442
0.0725523
0.0727922
0.0731854
0.0734444
0.0736466
0.073817
0.0739137
0.0740112
0.0740313
0.0740924
0.074096
0.0792271
0.07124
0.0725296
0.0726951
0.0731847
0.073389
0.0735815
0.0736765
0.073819
0.0738198
0.0739737
0.0739758
0.0930811
0.0831356
0.0716783
0.0725212
0.0727892
0.0731901
0.0734458
0.0735574
0.0736777
0.0736013
0.0737274
0.0737073
0.0948299
0.08281
0.0712333
0.0725448
0.0727176
0.0729016
0.0729685
0.0732233
0.0730437
0.0736231
0.0735853
0.0954191
0.0853299
0.0712387
0.0723998
0.0729038
0.0730095
0.07325
0.072552
0.0730197
0.0729145
0.0791025
0.0840145
0.0710813
0.0707878
0.0712061
0.0706962
0.0733241
0.0731558
0.0884625
0.0838264
0.0859483
0.0838895
0.0670389
0.0709415
0.0707977
0.0997409
0.0663186
0.0681307
0.085273
0.0857454
0.0727305
0.0707416
0.0720862
0.0718495
0.0724373
0.0725248
0.0727891
0.0729014
0.0730372
0.0731206
0.0731964
0.0732497
0.0732898
0.0733163
0.0733289
0.072467
0.0710198
0.0722814
0.0719724
0.0724598
0.0725426
0.0727812
0.0728955
0.073024
0.0731089
0.0731828
0.0732371
0.0732767
0.0733036
0.0733162
0.0709206
0.0680648
0.0712208
0.0714372
0.072048
0.0723996
0.0726459
0.0728333
0.0729632
0.0730684
0.0731443
0.0732058
0.0732467
0.0732768
0.0732899
0.0696512
0.0705231
0.0717919
0.0720174
0.0724441
0.0726132
0.072806
0.0729206
0.0730293
0.0731021
0.073166
0.0732056
0.073237
0.0732495
0.0758602
0.0711403
0.0718438
0.0719148
0.0723687
0.0724936
0.0727165
0.0728276
0.072952
0.0730279
0.073102
0.0731441
0.0731828
0.0731964
0.0690641
0.0705538
0.0717384
0.0717763
0.0722338
0.0723877
0.072614
0.0727399
0.0728714
0.0729516
0.0730289
0.073068
0.0731086
0.0731205
0.0811103
0.0715128
0.071557
0.0720451
0.0722064
0.0724584
0.072594
0.0727398
0.072827
0.0729201
0.0729627
0.0730237
0.0730371
0.069651
0.0712475
0.0713861
0.0716075
0.0720173
0.0722489
0.0724574
0.0726132
0.0727153
0.0728052
0.0728325
0.0728951
0.0729012
0.0785051
0.0703271
0.0714245
0.0715805
0.0720177
0.072205
0.0723866
0.0724921
0.0726122
0.072645
0.0727807
0.0727888
0.0721307
0.0809136
0.069385
0.0714102
0.0716054
0.0720403
0.0722315
0.0723665
0.0724426
0.0723982
0.0725417
0.0725243
0.074182
0.0804073
0.0703233
0.0713764
0.0715508
0.0717738
0.0719127
0.0720152
0.0720463
0.0724587
0.0724368
0.0723555
0.0830811
0.0712418
0.0715016
0.0717405
0.0718415
0.0717897
0.0714351
0.0719711
0.0718487
0.0805793
0.0825837
0.0705517
0.0711377
0.0705206
0.071219
0.0722801
0.0720853
0.0696718
0.0761993
0.0830963
0.0696491
0.068063
0.0710183
0.0707408
0.079039
0.0780469
0.0811495
0.0830368
0.0729455
0.0702479
0.0711008
0.0709068
0.0713489
0.0714046
0.0716367
0.0717347
0.0718641
0.0719434
0.0720185
0.0720709
0.0721114
0.0721377
0.0721506
0.0734814
0.0704836
0.0711969
0.0709881
0.0713466
0.0714131
0.0716229
0.0717262
0.0718496
0.0719311
0.0720047
0.0720581
0.0720982
0.0721248
0.0721377
0.0739342
0.0693297
0.070932
0.0706491
0.0711324
0.0712949
0.0715228
0.07167
0.0717959
0.0718927
0.071968
0.0720275
0.0720688
0.0720982
0.0721115
0.0690274
0.0703871
0.0707376
0.0709999
0.0712982
0.0714681
0.0716361
0.0717501
0.0718524
0.0719254
0.0719872
0.0720273
0.072058
0.0720708
0.0778758
0.070763
0.0708646
0.0709824
0.0712483
0.071375
0.0715589
0.0716665
0.0717805
0.0718551
0.0719252
0.0719678
0.0720046
0.0720185
0.0721447
0.0703765
0.0707469
0.0708085
0.0711229
0.0712695
0.0714624
0.0715826
0.0717016
0.0717801
0.0718521
0.0718923
0.0719308
0.0719433
0.0804128
0.0708101
0.070594
0.0710094
0.0711218
0.0713354
0.0714529
0.0715826
0.071666
0.0717497
0.0717954
0.0718493
0.0718639
0.0724495
0.0707322
0.0703945
0.070688
0.0709748
0.0711568
0.0713345
0.0714618
0.0715578
0.0716353
0.0716692
0.0717257
0.0717344
0.078845
0.0700509
0.0705605
0.0707488
0.0709756
0.0711208
0.0712686
0.0713737
0.071467
0.0715219
0.0716223
0.0716363
0.07493
0.0689651
0.0694103
0.0705537
0.0706864
0.0710058
0.0711209
0.0712459
0.0712967
0.0712938
0.0714123
0.0714041
0.0878658
0.0689653
0.0700496
0.0703902
0.0705902
0.0708057
0.0709803
0.0709981
0.071131
0.0713455
0.0713483
0.0868559
0.0830574
0.0707283
0.0708048
0.0707445
0.0708621
0.0707359
0.0706472
0.0709869
0.070906
0.0801494
0.0816116
0.0703742
0.0707608
0.0703851
0.0709304
0.0711957
0.0711
0.0721506
0.0780135
0.0815223
0.0690258
0.0693281
0.0704824
0.0702472
0.0837325
0.080767
0.0815015
0.0816683
0.0723281
0.0695771
0.0701002
0.0699618
0.0702779
0.0703182
0.0705081
0.0705921
0.0707087
0.0707818
0.0708531
0.0709031
0.0709425
0.0709679
0.0709806
0.0728037
0.0696462
0.070111
0.0700023
0.0702621
0.0703196
0.070492
0.0705824
0.0706942
0.0707695
0.0708396
0.0708905
0.0709296
0.0709553
0.0709679
0.0737642
0.0691941
0.0699772
0.0698072
0.0701423
0.0702349
0.0704216
0.0705356
0.0706494
0.0707349
0.0708062
0.0708618
0.0709017
0.0709296
0.0709425
0.0692073
0.0697806
0.0698489
0.0700384
0.0702212
0.0703663
0.0705009
0.0706053
0.0706962
0.0707653
0.0708227
0.0708616
0.0708904
0.070903
0.0775871
0.0699063
0.0699334
0.0700198
0.0701845
0.0702961
0.0704379
0.0705344
0.0706325
0.0707019
0.0707652
0.0708061
0.0708396
0.0708532
0.072248
0.0697724
0.0698625
0.0698966
0.070097
0.0702109
0.0703593
0.0704615
0.0705612
0.0706322
0.0706958
0.0707346
0.0707693
0.0707818
0.0800516
0.0700008
0.0697775
0.0700567
0.0701156
0.0702688
0.0703576
0.0704615
0.070534
0.0706048
0.070649
0.0706939
0.0707086
0.0725999
0.0700081
0.0696727
0.0699048
0.0700323
0.0701497
0.0702682
0.0703588
0.070437
0.0705002
0.0705348
0.0705819
0.0705918
0.0783295
0.0698342
0.0699205
0.0699749
0.0700328
0.070115
0.0702102
0.070295
0.0703654
0.0704207
0.0704914
0.0705077
0.0749657
0.0690889
0.0695541
0.0699183
0.0699045
0.0700547
0.0700957
0.0701828
0.07022
0.0702337
0.0703188
0.0703177
0.0887406
0.0690845
0.069832
0.0696706
0.069775
0.0698945
0.070018
0.070037
0.0701411
0.0702612
0.0702773
0.0868289
0.0821932
0.0700057
0.0699975
0.0698603
0.0699313
0.0698474
0.0698056
0.0700012
0.0699611
0.0794712
0.0809097
0.0697704
0.0699045
0.0697788
0.0699758
0.0701098
0.0700995
0.0725243
0.0779344
0.0803912
0.0692059
0.0691927
0.069645
0.0695764
0.0846245
0.0808188
0.0808903
0.0807585
0.071483
0.0687828
0.0690585
0.0689923
0.0692075
0.0692462
0.0693954
0.0694682
0.069569
0.0696349
0.0697002
0.0697466
0.0697837
0.0698077
0.0698196
0.0718977
0.0688064
0.0690518
0.0690104
0.0691911
0.069244
0.0693802
0.0694586
0.0695556
0.0696234
0.0696876
0.0697347
0.0697715
0.0697956
0.0698077
0.0730416
0.0685038
0.0689479
0.0688911
0.0691148
0.0691861
0.0693304
0.0694215
0.0695194
0.0695935
0.0696582
0.0697084
0.0697458
0.0697715
0.0697838
0.0687082
0.0688259
0.0689215
0.069045
0.0691698
0.0692845
0.0693903
0.0694803
0.0695582
0.0696207
0.0696721
0.0697083
0.0697346
0.0697466
0.0770221
0.068958
0.0689617
0.0690332
0.0691448
0.0692338
0.0693412
0.0694229
0.0695041
0.0695656
0.0696206
0.0696581
0.0696875
0.0697003
0.0716464
0.068958
0.0689272
0.0689675
0.0690919
0.0691736
0.0692827
0.0693635
0.0694434
0.0695039
0.0695579
0.0695932
0.0696232
0.069635
0.0793451
0.0690837
0.0689127
0.0690889
0.0691181
0.0692215
0.069285
0.0693635
0.0694225
0.0694799
0.069519
0.0695553
0.069569
0.071978
0.0691305
0.0688731
0.069034
0.0690745
0.0691503
0.069221
0.0692823
0.0693405
0.0693897
0.0694209
0.0694582
0.069468
0.0774346
0.0691113
0.0690478
0.0690774
0.0690748
0.0691176
0.0691731
0.069233
0.0692837
0.0693297
0.0693797
0.069395
0.0742309
0.0689654
0.0690009
0.0690468
0.0690341
0.0690878
0.069091
0.0691436
0.0691688
0.0691852
0.0692432
0.0692457
0.0888584
0.0689483
0.06911
0.0688716
0.0689111
0.0689661
0.0690319
0.0690439
0.0691138
0.0691902
0.0692069
0.0867446
0.0813383
0.0691296
0.0690819
0.0689256
0.0689602
0.0689203
0.0688897
0.0690094
0.0689916
0.0787159
0.0800706
0.0689563
0.0689565
0.0688244
0.0689467
0.0690507
0.0690578
0.0719436
0.0771273
0.0794312
0.068707
0.0685026
0.0688053
0.068782
0.0843015
0.0803017
0.0802844
0.079868
0.0705474
0.0678939
0.0680069
0.0679994
0.0681371
0.0681801
0.0682937
0.0683581
0.0684425
0.0685012
0.0685591
0.0686012
0.0686351
0.0686571
0.0686679
0.0709462
0.0679168
0.0679947
0.0680061
0.0681232
0.068176
0.068281
0.0683492
0.0684308
0.0684909
0.0685478
0.0685904
0.068624
0.0686461
0.0686572
0.0722046
0.0677069
0.067949
0.067929
0.0680775
0.0681372
0.0682462
0.0683208
0.0684022
0.0684657
0.0685225
0.068567
0.0686009
0.068624
0.0686352
0.0679078
0.0678404
0.0679561
0.0680286
0.068123
0.0682106
0.0682946
0.0683693
0.0684349
0.0684894
0.0685343
0.068567
0.0685903
0.0686012
0.0762787
0.0679846
0.0679652
0.0680284
0.0681048
0.068175
0.0682568
0.0683239
0.0683901
0.0684427
0.0684894
0.0685225
0.0685477
0.0685592
0.0708228
0.0680493
0.0679493
0.0679977
0.0680736
0.0681338
0.0682141
0.0682769
0.06834
0.0683899
0.0684347
0.0684655
0.0684908
0.0685013
0.0784778
0.0680971
0.0679572
0.0680794
0.0680981
0.0681705
0.0682178
0.0682768
0.0683236
0.0683691
0.0684019
0.0684307
0.0684425
0.0711136
0.0681707
0.0679306
0.0680523
0.0680668
0.0681248
0.0681702
0.0682138
0.0682564
0.0682942
0.0683204
0.068349
0.068358
0.0764452
0.0680731
0.068031
0.0680767
0.068067
0.0680978
0.0681334
0.0681745
0.06821
0.0682456
0.0682806
0.0682935
0.0732547
0.0681103
0.0679338
0.0680323
0.0680528
0.0680788
0.068073
0.0681041
0.0681223
0.0681365
0.0681754
0.0681797
0.0882244
0.0681513
0.0680817
0.0679311
0.0679564
0.0679967
0.0680276
0.0680279
0.0680764
0.0681224
0.0681365
0.0861608
0.0804816
0.0681706
0.0680961
0.0679481
0.0679644
0.0679562
0.0679269
0.0680049
0.0679988
0.0778634
0.0791431
0.0680479
0.0679836
0.0678393
0.0679479
0.0679937
0.0680063
0.0710801
0.0761828
0.0784874
0.0679068
0.0677058
0.0679158
0.0678931
0.0836465
0.0795887
0.079476
0.0789334
0.0695823
0.0669462
0.0669578
0.0669877
0.0670696
0.0671166
0.0672007
0.0672582
0.0673271
0.0673789
0.067429
0.0674666
0.0674967
0.0675164
0.0675257
0.0699776
0.0669633
0.0669425
0.0669899
0.0670581
0.067112
0.0671905
0.0672505
0.0673173
0.0673699
0.067419
0.0674569
0.0674868
0.0675066
0.0675166
0.0712992
0.0668214
0.0669346
0.0669395
0.067033
0.0670852
0.0671665
0.0672288
0.067295
0.0673491
0.0673978
0.0674366
0.0674663
0.0674868
0.0674968
0.0670035
0.0668502
0.06696
0.0669991
0.0670743
0.0671399
0.0672075
0.0672682
0.0673231
0.0673693
0.067408
0.0674365
0.0674569
0.0674666
0.0754313
0.0669816
0.0669519
0.0670044
0.067059
0.0671146
0.067178
0.0672324
0.0672863
0.0673303
0.0673693
0.0673978
0.0674191
0.067429
0.0699211
0.0670857
0.066944
0.0669941
0.0670401
0.0670858
0.0671463
0.0671954
0.0672455
0.0672862
0.067323
0.0673491
0.06737
0.0673791
0.0775482
0.067075
0.0669531
0.067047
0.067059
0.067113
0.0671497
0.0671954
0.0672323
0.0672681
0.0672949
0.0673173
0.0673272
0.070168
0.067169
0.0669349
0.0670257
0.0670334
0.0670802
0.0671127
0.0671461
0.0671777
0.0672073
0.0672285
0.0672504
0.0672581
0.0754627
0.0670314
0.0670124
0.0670379
0.0670334
0.0670586
0.0670855
0.0671143
0.0671395
0.0671661
0.0671902
0.0672005
0.07228
0.0671296
0.0668751
0.0670128
0.0670254
0.0670464
0.0670396
0.0670585
0.0670738
0.0670847
0.0671116
0.0671164
0.0875241
0.0672032
0.0670378
0.0669341
0.0669522
0.0669933
0.0670037
0.0669985
0.0670323
0.0670575
0.0670692
0.0854038
0.0796048
0.0671679
0.067074
0.066943
0.0669512
0.0669592
0.0669387
0.0669892
0.0669873
0.0769538
0.0781805
0.0670845
0.0669808
0.0668493
0.0669338
0.0669417
0.0669573
0.0701343
0.0752084
0.0775307
0.0670027
0.0668205
0.0669625
0.0669456
0.0828343
0.0787567
0.0785713
0.0779802
0.0686476
0.0659442
0.0659064
0.0659591
0.0660048
0.066054
0.0661147
0.0661661
0.0662211
0.0662665
0.0663087
0.0663417
0.0663678
0.0663853
0.066393
0.0690444
0.0659548
0.0658923
0.0659594
0.0659957
0.0660499
0.0661067
0.0661597
0.0662131
0.0662589
0.0663002
0.0663334
0.0663593
0.0663769
0.0663854
0.0704051
0.0658501
0.0659008
0.0659242
0.0659819
0.0660304
0.0660901
0.066143
0.0661958
0.0662419
0.0662826
0.0663159
0.0663415
0.0663593
0.0663679
0.0660078
0.0658327
0.0659412
0.0659587
0.0660222
0.0660704
0.066126
0.0661743
0.0662202
0.0662586
0.0662915
0.0663159
0.0663335
0.0663418
0.0745805
0.0659437
0.065918
0.0659637
0.0660072
0.0660515
0.0661022
0.066146
0.06619
0.0662263
0.0662587
0.0662825
0.0663004
0.0663088
0.0690136
0.0660624
0.0659122
0.0659635
0.0659943
0.0660305
0.0660779
0.0661167
0.0661572
0.06619
0.0662202
0.0662418
0.066259
0.0662666
0.0766579
0.0660182
0.0659195
0.0659979
0.0660071
0.0660506
0.0660802
0.0661167
0.0661459
0.0661743
0.0661957
0.0662132
0.0662211
0.0692353
0.0661199
0.06591
0.0659777
0.0659857
0.0660246
0.0660504
0.0660778
0.066102
0.0661259
0.0661427
0.0661597
0.066166
0.0745555
0.0659949
0.0659821
0.0659793
0.0659854
0.0660068
0.0660303
0.0660513
0.0660702
0.0660898
0.0661066
0.0661144
0.0713888
0.0662445
0.0658344
0.065974
0.0659752
0.0659973
0.0659938
0.0660069
0.0660218
0.0660301
0.0660496
0.0660538
0.087294
0.0660312
0.065962
0.0659039
0.065918
0.0659627
0.0659633
0.0659581
0.0659814
0.0659954
0.0660043
0.0845497
0.0787748
0.0661167
0.0660169
0.0659114
0.0659174
0.0659406
0.0659236
0.0659589
0.0659587
0.0760785
0.0772908
0.0660615
0.0659431
0.065832
0.0659001
0.0658917
0.0659058
0.0692087
0.0742827
0.0766397
0.0660072
0.0658492
0.0659541
0.0659434
0.0819877
0.077947
0.0776902
0.0770849
0.0773893
0.065111
0.0768499
0.0657267
0.0764658
0.0674256
0.067974
0.0758966
0.0646779
0.066839
0.0665472
0.0692707
0.0782653
0.0811379
0.069442
0.0775466
0.0669127
0.077922
0.068221
0.0657944
0.0559921
0.0666855
0.067759
0.0601592
0.0792395
0.0692911
0.0757148
0.0686361
0.0673582
0.0674052
0.0559684
0.0652703
0.0609065
0.0752097
0.0670837
0.0764691
0.0761703
0.0588013
0.0605485
0.0758005
0.0606205
0.0588435
0.0761799
0.0764742
0.0670949
0.0609157
0.0752147
0.065278
0.0559773
0.0674261
0.0673569
0.0686868
0.0692826
0.0601234
0.0792782
0.0678354
0.0758412
0.0669094
0.0577723
0.0660725
0.0683574
0.079738
0.0670874
0.0694692
0.0792664
0.081264
0.0799534
0.0717034
0.0689846
0.0689909
0.0666272
0.0761152
0.068076
0.0676571
0.0781545
0.065951
0.0653346
0.0785204
0.0790445
0.0988898
0.0873007
0.0983745
0.078394
0.0677611
0.0780733
0.0683204
0.0969395
0.096296
0.0778476
0.0699527
0.070297
0.0890809
0.0985995
0.0775285
0.0671285
0.0964804
0.096462
0.0692847
0.0693423
0.094142
0.0861661
0.071675
0.0791429
0.0954161
0.0870878
0.0976609
0.0811237
0.0710265
0.0786058
0.0691192
0.0968119
0.098046
0.0787283
0.0702031
0.0689474
0.108196
0.0987656
0.0592412
0.06718
0.103133
0.0869528
0.0957426
0.0698243
0.0635356
0.0795589
0.0706425
0.0902126
0.0755564
0.0971085
0.096914
0.0689085
0.0697608
0.0702371
0.109521
0.0575962
0.102183
0.0911456
0.0976593
0.0676592
0.0643178
0.0749937
0.0691137
0.0889859
0.106297
0.0764631
0.0775101
0.0595003
0.0890931
0.104706
0.0611953
0.0773387
0.0612578
0.0889755
0.0893836
0.0595381
0.0775228
0.0764704
0.102181
0.091147
0.099625
0.0691236
0.0643295
0.0750017
0.0676698
0.109525
0.0576033
0.0971079
0.0972182
0.0702483
0.0697642
0.0689123
0.1031
0.0869625
0.0969963
0.0706581
0.0635364
0.0795712
0.0698273
0.0902464
0.0755623
0.107878
0.0671738
0.0591903
0.0967315
0.0873163
0.0688992
0.0701835
0.078788
0.0953895
0.0873517
0.0851448
0.0691068
0.0710323
0.0786417
0.0810859
0.0943147
0.0791847
0.0716506
0.0966002
0.0692996
0.0692517
0.0890855
0.0671249
0.0775123
0.0968593
0.0878607
0.0702681
0.069938
0.0778681
0.0988105
0.0876019
0.0872437
0.0683062
0.0677406
0.0780998
0.0784309
0.0962411
0.0863168
0.0957786
0.0772258
0.0673466
0.0769041
0.0678446
0.0943634
0.0937385
0.076669
0.0693788
0.0696059
0.0869431
0.0971987
0.0765672
0.0659288
0.0952339
0.0951825
0.0679834
0.0680816
0.0928851
0.0852876
0.0703629
0.0778522
0.0930663
0.0859222
0.0953883
0.0797361
0.0702675
0.0773142
0.0685474
0.0942254
0.0958677
0.0774387
0.0694242
0.0682397
0.106687
0.0974269
0.0578848
0.0658939
0.100566
0.0849624
0.0934016
0.0688387
0.0629974
0.0783095
0.069858
0.0890664
0.0742171
0.0947095
0.0948024
0.0675905
0.0690066
0.0693606
0.10817
0.056351
0.0995378
0.0897809
0.0951743
0.0667959
0.0637377
0.0736959
0.0683428
0.0870066
0.105088
0.0752261
0.0765468
0.0581644
0.0871196
0.103486
0.0598427
0.0763848
0.0599061
0.0869969
0.088277
0.0582014
0.0765588
0.0752325
0.0995356