/*--------------------------------*- C++ -*----------------------------------*\
| =========                 |                                                 |
| \\      /  F ield         | OpenFOAM: The Open Source CFD Toolbox           |
|  \\    /   O peration     | Version:  2.1.1                                 |
|   \\  /    A nd           | Web:      www.OpenFOAM.org                      |
|    \\/     M anipulation  |                                                 |
\*---------------------------------------------------------------------------*/
FoamFile
{
    version     2.0;
    format      ascii;
    class       volScalarField;
    location    "0.0015";
    object      Th;
}
// * * * * * * * * * * * * * * * * * * * * * * * * * * * * * * * * * * * * * //

dimensions      [0 0 0 0 0 0 0];

internalField   nonuniform List<scalar> 
10260
(
1.99538e-13
1.00171e-14
1e-14
1.00001e-14
1.00001e-14
1.00001e-14
1.00002e-14
1.00002e-14
1.00001e-14
1e-14
1e-14
1e-14
1.00001e-14
1.00002e-14
1.00002e-14
2.24664e-13
1.00596e-14
1e-14
1e-14
1e-14
1e-14
1e-14
1e-14
1e-14
1e-14
1e-14
1e-14
1e-14
1e-14
1e-14
1e-14
1e-14
1e-14
1e-14
1e-14
1e-14
1e-14
1e-14
1e-14
1e-14
1e-14
1e-14
1e-14
1.00002e-14
1.0204e-14
1.00005e-14
1e-14
1e-14
1e-14
1e-14
1e-14
1e-14
1e-14
1e-14
1.00001e-14
1e-14
1e-14
1.00001e-14
1.12153e-14
1.00008e-14
1e-14
1e-14
1e-14
1e-14
1e-14
1e-14
1e-14
1e-14
1e-14
1e-14
1e-14
1e-14
1.38638e-13
1.01067e-14
1.00001e-14
1e-14
1e-14
1e-14
1e-14
1e-14
1e-14
1e-14
1e-14
1.00001e-14
1e-14
1e-14
1.01829e-14
1.00007e-14
1e-14
1e-14
1e-14
1e-14
1e-14
1e-14
1e-14
1e-14
1e-14
1e-14
1.00001e-14
1e-14
1.01082e-14
1e-14
1e-14
1e-14
1e-14
1e-14
1e-14
1.00001e-14
1.00001e-14
1.00001e-14
1e-14
1e-14
1.08365e-14
1e-14
1e-14
1e-14
1e-14
1e-14
1e-14
1e-14
1e-14
1e-14
1e-14
1e-14
4.28356e-13
1.00319e-14
1e-14
1.00001e-14
1e-14
1e-14
1e-14
1e-14
1e-14
1e-14
1e-14
1e-14
3.70778e-13
1.00315e-14
1e-14
1.00001e-14
1e-14
1e-14
1e-14
1e-14
1e-14
1e-14
1e-14
3.61696e-13
1.03484e-14
1.01083e-14
1.00008e-14
1e-14
1e-14
1e-14
1e-14
1e-14
1e-14
1e-14
1e-14
1.01084e-14
1.00008e-14
1.00006e-14
1e-14
1e-14
1.00001e-14
1.35508e-13
1.0017e-14
1.00184e-14
1e-14
1e-14
1.00606e-14
1.00181e-14
5.27093e-13
1e-14
1e-14
1e-14
1.0739e-14
2.00279e-13
1.00158e-14
1e-14
1.00001e-14
1.00001e-14
1.00001e-14
1.00001e-14
1.00001e-14
1.00001e-14
1e-14
1e-14
1e-14
1e-14
1.00001e-14
1.00001e-14
2.25799e-13
1.00545e-14
1e-14
1e-14
1e-14
1e-14
1e-14
1e-14
1e-14
1e-14
1e-14
1e-14
1e-14
1e-14
1e-14
1e-14
1e-14
1e-14
1e-14
1e-14
1e-14
1e-14
1e-14
1e-14
1e-14
1e-14
1e-14
1e-14
1.00001e-14
1.01965e-14
1.00005e-14
1e-14
1e-14
1e-14
1e-14
1e-14
1e-14
1e-14
1e-14
1e-14
1e-14
1e-14
1.00001e-14
1.13971e-14
1.00007e-14
1e-14
1e-14
1e-14
1e-14
1e-14
1e-14
1e-14
1e-14
1e-14
1e-14
1e-14
1e-14
1.39224e-13
1.0101e-14
1e-14
1e-14
1e-14
1e-14
1e-14
1e-14
1e-14
1e-14
1e-14
1e-14
1e-14
1e-14
1.01753e-14
1.00006e-14
1e-14
1e-14
1e-14
1e-14
1e-14
1e-14
1e-14
1e-14
1e-14
1e-14
1e-14
1e-14
1.00996e-14
1e-14
1e-14
1e-14
1e-14
1e-14
1e-14
1e-14
1e-14
1e-14
1e-14
1e-14
1.08376e-14
1e-14
1e-14
1e-14
1e-14
1e-14
1e-14
1e-14
1e-14
1e-14
1e-14
1e-14
4.28708e-13
1.00268e-14
1e-14
1e-14
1e-14
1e-14
1e-14
1e-14
1e-14
1e-14
1e-14
1e-14
3.73981e-13
1.00269e-14
1e-14
1e-14
1e-14
1e-14
1e-14
1e-14
1e-14
1e-14
1e-14
3.64832e-13
1.03402e-14
1.00997e-14
1.00007e-14
1e-14
1e-14
1e-14
1e-14
1e-14
1e-14
1e-14
1e-14
1.01012e-14
1.00007e-14
1.00005e-14
1.00001e-14
1e-14
1e-14
1.36823e-13
1.00639e-14
1.00189e-14
1e-14
1e-14
1.00546e-14
1.00159e-14
5.26118e-13
1e-14
1e-14
1e-14
1.07459e-14
2.00373e-13
1.00156e-14
1e-14
1e-14
1e-14
1e-14
1e-14
1e-14
1.00001e-14
1.00001e-14
1e-14
1e-14
1e-14
1e-14
1.00001e-14
2.25905e-13
1.00536e-14
1e-14
1e-14
1e-14
1e-14
1e-14
1e-14
1e-14
1e-14
1e-14
1e-14
1e-14
1e-14
1e-14
1e-14
1e-14
1e-14
1e-14
1e-14
1e-14
1e-14
1e-14
1e-14
1e-14
1e-14
1e-14
1e-14
1e-14
1.0198e-14
1.00005e-14
1e-14
1e-14
1e-14
1e-14
1e-14
1e-14
1e-14
1e-14
1e-14
1e-14
1e-14
1.00001e-14
1.14321e-14
1.00007e-14
1e-14
1e-14
1e-14
1e-14
1e-14
1e-14
1e-14
1e-14
1e-14
1e-14
1e-14
1e-14
1.39265e-13
1.01001e-14
1e-14
1e-14
1e-14
1e-14
1e-14
1e-14
1e-14
1e-14
1e-14
1e-14
1e-14
1e-14
1.01764e-14
1.00006e-14
1e-14
1e-14
1e-14
1e-14
1e-14
1e-14
1e-14
1e-14
1e-14
1e-14
1e-14
1e-14
1.00986e-14
1e-14
1e-14
1e-14
1e-14
1e-14
1e-14
1e-14
1e-14
1e-14
1e-14
1.00001e-14
1.08422e-14
1e-14
1e-14
1e-14
1e-14
1e-14
1e-14
1e-14
1e-14
1e-14
1e-14
1.00001e-14
4.2863e-13
1.00258e-14
1e-14
1e-14
1e-14
1e-14
1e-14
1e-14
1e-14
1e-14
1e-14
1.00001e-14
3.74031e-13
1.00263e-14
1e-14
1e-14
1e-14
1e-14
1e-14
1e-14
1e-14
1e-14
1e-14
3.64848e-13
1.03408e-14
1.00986e-14
1.00006e-14
1e-14
1e-14
1e-14
1e-14
1e-14
1e-14
1e-14
1e-14
1.01002e-14
1.00007e-14
1.00005e-14
1e-14
1e-14
1e-14
1.36779e-13
1.00677e-14
1.00192e-14
1e-14
1e-14
1.00535e-14
1.00156e-14
5.2571e-13
1e-14
1e-14
1e-14
1.07533e-14
2.00365e-13
1.00157e-14
1e-14
1e-14
1e-14
1e-14
1e-14
1.00001e-14
1.00001e-14
1.00001e-14
1e-14
1e-14
1e-14
1e-14
1e-14
2.25888e-13
1.00539e-14
1e-14
1e-14
1e-14
1e-14
1e-14
1e-14
1e-14
1e-14
1e-14
1e-14
1e-14
1e-14
1e-14
1e-14
1e-14
1e-14
1e-14
1e-14
1e-14
1e-14
1e-14
1e-14
1e-14
1e-14
1e-14
1e-14
1e-14
1.01979e-14
1.00005e-14
1e-14
1e-14
1e-14
1e-14
1e-14
1e-14
1e-14
1e-14
1e-14
1e-14
1e-14
1e-14
1.14365e-14
1.00007e-14
1e-14
1e-14
1e-14
1e-14
1e-14
1e-14
1e-14
1e-14
1e-14
1e-14
1e-14
1e-14
1.39293e-13
1.00999e-14
1e-14
1e-14
1e-14
1e-14
1e-14
1e-14
1e-14
1e-14
1e-14
1e-14
1e-14
1e-14
1.01768e-14
1.00006e-14
1e-14
1e-14
1e-14
1e-14
1e-14
1e-14
1e-14
1e-14
1e-14
1e-14
1e-14
1e-14
1.00982e-14
1e-14
1e-14
1e-14
1e-14
1e-14
1e-14
1e-14
1e-14
1e-14
1e-14
1.00001e-14
1.08433e-14
1e-14
1e-14
1e-14
1e-14
1e-14
1e-14
1e-14
1e-14
1e-14
1e-14
1e-14
4.28633e-13
1.00257e-14
1e-14
1e-14
1e-14
1e-14
1e-14
1e-14
1e-14
1e-14
1e-14
1e-14
3.73981e-13
1.00263e-14
1e-14
1e-14
1e-14
1e-14
1e-14
1e-14
1e-14
1e-14
1e-14
3.64808e-13
1.03403e-14
1.00982e-14
1.00006e-14
1e-14
1e-14
1e-14
1e-14
1e-14
1e-14
1e-14
1e-14
1.01e-14
1.00007e-14
1.00005e-14
1e-14
1e-14
1e-14
1.36677e-13
1.0061e-14
1.00191e-14
1e-14
1e-14
1.00538e-14
1.00157e-14
5.25592e-13
1e-14
1e-14
1e-14
1.07543e-14
2.00238e-13
1.00164e-14
1e-14
1e-14
1e-14
1e-14
1e-14
1.00001e-14
1e-14
1e-14
1e-14
1e-14
1e-14
1e-14
1.00001e-14
2.2572e-13
1.0056e-14
1e-14
1e-14
1e-14
1e-14
1e-14
1e-14
1e-14
1e-14
1e-14
1e-14
1e-14
1e-14
1e-14
1e-14
1e-14
1e-14
1e-14
1e-14
1e-14
1e-14
1e-14
1e-14
1e-14
1e-14
1e-14
1e-14
1e-14
1.0199e-14
1.00004e-14
1e-14
1e-14
1e-14
1e-14
1e-14
1e-14
1e-14
1e-14
1e-14
1e-14
1e-14
1e-14
1.14442e-14
1.00007e-14
1e-14
1e-14
1e-14
1e-14
1e-14
1e-14
1e-14
1e-14
1e-14
1e-14
1e-14
1e-14
1.39323e-13
1.01001e-14
1e-14
1e-14
1e-14
1e-14
1e-14
1e-14
1e-14
1e-14
1e-14
1e-14
1e-14
1e-14
1.01776e-14
1.00006e-14
1e-14
1e-14
1e-14
1e-14
1e-14
1e-14
1e-14
1e-14
1e-14
1e-14
1.00001e-14
1e-14
1.00969e-14
1e-14
1e-14
1e-14
1e-14
1e-14
1e-14
1e-14
1e-14
1e-14
1e-14
1e-14
1.08423e-14
1e-14
1e-14
1e-14
1e-14
1e-14
1e-14
1e-14
1e-14
1e-14
1e-14
1e-14
4.28612e-13
1.00257e-14
1e-14
1e-14
1e-14
1e-14
1e-14
1e-14
1e-14
1e-14
1e-14
1e-14
3.73938e-13
1.00264e-14
1e-14
1e-14
1e-14
1e-14
1e-14
1e-14
1e-14
1e-14
1e-14
3.6477e-13
1.03396e-14
1.00968e-14
1.00006e-14
1e-14
1e-14
1e-14
1e-14
1e-14
1e-14
1e-14
1e-14
1.01001e-14
1.00007e-14
1.00005e-14
1e-14
1e-14
1e-14
1.36452e-13
1.00496e-14
1.0019e-14
1e-14
1e-14
1.0056e-14
1.00164e-14
5.254e-13
1e-14
1e-14
1e-14
1.07565e-14
1.99789e-13
1.00144e-14
1e-14
1e-14
1e-14
1e-14
1e-14
1e-14
1e-14
1e-14
1e-14
1e-14
1e-14
1e-14
1.00001e-14
2.25117e-13
1.00598e-14
1e-14
1e-14
1e-14
1e-14
1e-14
1e-14
1e-14
1e-14
1e-14
1e-14
1e-14
1e-14
1e-14
1e-14
1e-14
1e-14
1e-14
1e-14
1e-14
1e-14
1e-14
1e-14
1e-14
1e-14
1e-14
1e-14
1e-14
1.0206e-14
1.00004e-14
1e-14
1e-14
1e-14
1e-14
1e-14
1e-14
1e-14
1e-14
1e-14
1e-14
1e-14
1e-14
1.14841e-14
1.00007e-14
1e-14
1e-14
1e-14
1e-14
1e-14
1e-14
1e-14
1e-14
1e-14
1e-14
1e-14
1.00001e-14
1.39335e-13
1.01011e-14
1e-14
1e-14
1e-14
1e-14
1e-14
1e-14
1e-14
1e-14
1e-14
1e-14
1e-14
1.00001e-14
1.01789e-14
1.00005e-14
1e-14
1e-14
1e-14
1e-14
1e-14
1e-14
1e-14
1e-14
1e-14
1e-14
1e-14
1e-14
1.011e-14
1e-14
1e-14
1e-14
1e-14
1e-14
1e-14
1e-14
1e-14
1.00001e-14
1e-14
1e-14
1.08343e-14
1e-14
1e-14
1e-14
1e-14
1e-14
1e-14
1e-14
1e-14
1e-14
1e-14
1e-14
4.2844e-13
1.00255e-14
1e-14
1e-14
1e-14
1e-14
1e-14
1e-14
1e-14
1e-14
1e-14
1e-14
3.73763e-13
1.00266e-14
1e-14
1e-14
1e-14
1e-14
1e-14
1e-14
1e-14
1e-14
1e-14
3.64568e-13
1.03382e-14
1.01099e-14
1.00005e-14
1e-14
1e-14
1e-14
1e-14
1e-14
1e-14
1e-14
1e-14
1.01011e-14
1.00007e-14
1.00005e-14
1e-14
1e-14
1e-14
1.358e-13
1.00316e-14
1.00188e-14
1e-14
1e-14
1.00599e-14
1.00144e-14
5.24777e-13
1e-14
1e-14
1e-14
1.07552e-14
1.96894e-13
1.0039e-14
1e-14
1e-14
1e-14
1e-14
1e-14
1e-14
1e-14
1e-14
1e-14
1e-14
1e-14
1e-14
1e-14
2.22198e-13
1.00976e-14
1e-14
1e-14
1e-14
1e-14
1e-14
1e-14
1e-14
1e-14
1e-14
1e-14
1e-14
1e-14
1e-14
1e-14
1e-14
1e-14
1e-14
1e-14
1e-14
1e-14
1e-14
1e-14
1e-14
1e-14
1e-14
1e-14
1e-14
1.01769e-14
1.00005e-14
1e-14
1e-14
1e-14
1e-14
1e-14
1e-14
1e-14
1e-14
1e-14
1e-14
1e-14
1e-14
1.1445e-14
1.00019e-14
1e-14
1e-14
1e-14
1e-14
1e-14
1e-14
1e-14
1e-14
1e-14
1e-14
1e-14
1.00001e-14
1.38892e-13
1.01104e-14
1e-14
1e-14
1e-14
1e-14
1e-14
1e-14
1e-14
1e-14
1e-14
1e-14
1.00001e-14
1e-14
1.01949e-14
1.00006e-14
1e-14
1e-14
1e-14
1e-14
1e-14
1e-14
1e-14
1e-14
1e-14
1e-14
1e-14
1e-14
1.00703e-14
1e-14
1e-14
1e-14
1e-14
1e-14
1e-14
1e-14
1e-14
1e-14
1e-14
1e-14
1.10264e-14
1e-14
1e-14
1e-14
1e-14
1e-14
1e-14
1e-14
1e-14
1e-14
1e-14
1e-14
4.27501e-13
1.00272e-14
1e-14
1e-14
1e-14
1e-14
1e-14
1e-14
1e-14
1e-14
1e-14
1.00001e-14
3.73492e-13
1.00283e-14
1e-14
1e-14
1e-14
1e-14
1e-14
1e-14
1e-14
1e-14
1.00001e-14
3.63905e-13
1.03497e-14
1.00702e-14
1.00006e-14
1e-14
1e-14
1e-14
1e-14
1e-14
1e-14
1e-14
1e-14
1.01104e-14
1.00019e-14
1.00005e-14
1e-14
1e-14
1e-14
1.321e-13
1.00138e-14
1.00149e-14
1e-14
1e-14
1.00977e-14
1.00391e-14
5.24945e-13
1e-14
1e-14
1e-14
1.0525e-14
1.78491e-14
1.0006e-14
1e-14
1e-14
1e-14
1e-14
1e-14
1e-14
1e-14
1e-14
1e-14
1e-14
1e-14
1e-14
1e-14
1.60008e-14
1.00093e-14
1e-14
1e-14
1e-14
1e-14
1e-14
1e-14
1e-14
1e-14
1e-14
1e-14
1e-14
1e-14
1e-14
1e-14
1e-14
1e-14
1e-14
1e-14
1e-14
1e-14
1e-14
1e-14
1e-14
1e-14
1e-14
1e-14
1e-14
1.00548e-14
1e-14
1e-14
1e-14
1e-14
1e-14
1e-14
1e-14
1e-14
1e-14
1e-14
1e-14
1e-14
1.00001e-14
1.04097e-14
1.00002e-14
1e-14
1e-14
1e-14
1e-14
1e-14
1e-14
1e-14
1e-14
1e-14
1e-14
1e-14
1.00001e-14
1.66097e-14
1.00069e-14
1e-14
1e-14
1e-14
1e-14
1e-14
1e-14
1e-14
1e-14
1e-14
1e-14
1e-14
1e-14
1.00337e-14
1.00001e-14
1e-14
1e-14
1e-14
1e-14
1e-14
1e-14
1e-14
1e-14
1e-14
1e-14
1e-14
1.28571e-14
1.00037e-14
1e-14
1e-14
1e-14
1e-14
1e-14
1e-14
1e-14
1e-14
1e-14
1e-14
1e-14
1.01764e-14
1e-14
1e-14
1e-14
1e-14
1e-14
1e-14
1e-14
1e-14
1e-14
1e-14
1e-14
1e-14
1e-14
1e-14
1e-14
1e-14
1e-14
1e-14
1e-14
1e-14
1e-14
1e-14
1.00001e-14
1e-14
1e-14
1e-14
1e-14
1e-14
1e-14
1e-14
1e-14
1e-14
1e-14
1e-14
1e-14
1e-14
1.00037e-14
1e-14
1e-14
1e-14
1e-14
1e-14
1e-14
1e-14
1.0181e-14
1.00006e-14
1.00069e-14
1.00003e-14
1.00001e-14
1e-14
1e-14
1e-14
1e-14
1.04094e-14
1e-14
1.0001e-14
1e-14
1.00093e-14
1.0006e-14
1e-14
1.87813e-14
1.03936e-14
1.03208e-14
1e-14
1.0028e-14
1.00007e-14
1e-14
1e-14
1e-14
1e-14
1e-14
1e-14
1e-14
1e-14
1e-14
1e-14
1e-14
1e-14
1.00001e-14
1.00113e-14
1.0001e-14
1e-14
1e-14
1e-14
1e-14
1e-14
1e-14
1e-14
1e-14
1e-14
1e-14
1e-14
1e-14
1e-14
1.00002e-14
1e-14
1e-14
1e-14
1e-14
1e-14
1e-14
1e-14
1e-14
1e-14
1e-14
1e-14
1e-14
1e-14
1e-14
1e-14
1e-14
1e-14
1e-14
1e-14
1e-14
1e-14
1e-14
1e-14
1e-14
1e-14
1e-14
1e-14
1e-14
1.00012e-14
1e-14
1e-14
1e-14
1e-14
1e-14
1e-14
1e-14
1e-14
1e-14
1e-14
1e-14
1e-14
1e-14
1.00132e-14
1.00006e-14
1e-14
1e-14
1e-14
1e-14
1e-14
1e-14
1e-14
1e-14
1e-14
1e-14
1e-14
1e-14
1.00002e-14
1e-14
1e-14
1e-14
1e-14
1e-14
1e-14
1e-14
1e-14
1e-14
1e-14
1e-14
1e-14
1.00025e-14
1.00004e-14
1e-14
1e-14
1e-14
1e-14
1e-14
1e-14
1e-14
1e-14
1e-14
1e-14
1e-14
1.00011e-14
1e-14
1e-14
1e-14
1e-14
1e-14
1e-14
1e-14
1e-14
1e-14
1e-14
1e-14
1e-14
1e-14
1e-14
1e-14
1e-14
1e-14
1e-14
1e-14
1e-14
1e-14
1e-14
1e-14
1e-14
1e-14
1e-14
1e-14
1e-14
1e-14
1e-14
1e-14
1e-14
1e-14
1e-14
1e-14
1e-14
1.00004e-14
1e-14
1e-14
1e-14
1e-14
1e-14
1e-14
1e-14
1.00009e-14
1e-14
1.00006e-14
1e-14
1e-14
1e-14
1e-14
1e-14
1e-14
1.00018e-14
1e-14
1e-14
1e-14
1.0001e-14
1.00007e-14
1.00165e-14
1.00009e-14
1.0002e-14
1e-14
1.00003e-14
1.00001e-14
1e-14
1e-14
1e-14
1e-14
1e-14
1e-14
1e-14
1e-14
1e-14
1e-14
1e-14
1e-14
1.00001e-14
1e-14
1.00001e-14
1e-14
1e-14
1e-14
1e-14
1e-14
1e-14
1e-14
1e-14
1e-14
1e-14
1e-14
1e-14
1e-14
1e-14
1e-14
1e-14
1e-14
1e-14
1e-14
1e-14
1e-14
1e-14
1e-14
1e-14
1e-14
1e-14
1e-14
1e-14
1e-14
1e-14
1e-14
1e-14
1e-14
1e-14
1e-14
1e-14
1e-14
1e-14
1e-14
1e-14
1e-14
1e-14
1e-14
1e-14
1e-14
1e-14
1e-14
1e-14
1e-14
1e-14
1e-14
1e-14
1e-14
1e-14
1e-14
1e-14
1e-14
1e-14
1e-14
1e-14
1e-14
1e-14
1e-14
1e-14
1e-14
1e-14
1e-14
1e-14
1e-14
1e-14
1e-14
1e-14
1e-14
1e-14
1e-14
1e-14
1e-14
1e-14
1e-14
1e-14
1e-14
1e-14
1e-14
1e-14
1.00001e-14
1e-14
1e-14
1e-14
1e-14
1e-14
1e-14
1e-14
1e-14
1e-14
1e-14
1e-14
1e-14
1e-14
1e-14
1e-14
1e-14
1e-14
1e-14
1e-14
1e-14
1e-14
1e-14
1e-14
1e-14
1e-14
1e-14
1e-14
1e-14
1e-14
1e-14
1e-14
1e-14
1e-14
1e-14
1e-14
1e-14
1e-14
1e-14
1e-14
1e-14
1e-14
1e-14
1e-14
1e-14
1e-14
1e-14
1e-14
1e-14
1.00001e-14
1e-14
1e-14
1e-14
1e-14
1e-14
1e-14
1e-14
1e-14
1e-14
1e-14
1e-14
1e-14
1e-14
1e-14
1e-14
1e-14
1e-14
1e-14
1e-14
1e-14
1.00001e-14
1.00001e-14
1e-14
1e-14
1e-14
1e-14
1.00002e-14
1e-14
1e-14
1e-14
1e-14
1e-14
1e-14
1e-14
1e-14
1e-14
1e-14
1e-14
1e-14
1.00001e-14
1.00001e-14
1e-14
1e-14
1e-14
1e-14
1e-14
1e-14
1e-14
1e-14
1e-14
1e-14
1e-14
1e-14
1e-14
1e-14
1e-14
1e-14
1e-14
1e-14
1e-14
1e-14
1e-14
1e-14
1e-14
1e-14
1e-14
1e-14
1e-14
1e-14
1e-14
1.00001e-14
1e-14
1e-14
1e-14
1e-14
1e-14
1e-14
1e-14
1e-14
1e-14
1e-14
1e-14
1e-14
1e-14
1.00001e-14
1e-14
1e-14
1e-14
1e-14
1e-14
1e-14
1e-14
1e-14
1e-14
1e-14
1e-14
1e-14
1e-14
1e-14
1e-14
1e-14
1e-14
1e-14
1e-14
1e-14
1e-14
1e-14
1e-14
1e-14
1e-14
1e-14
1e-14
1e-14
1e-14
1e-14
1e-14
1e-14
1e-14
1e-14
1e-14
1e-14
1e-14
1e-14
1e-14
1e-14
1e-14
1e-14
1e-14
1e-14
1e-14
1e-14
1e-14
1e-14
1e-14
1e-14
1e-14
1e-14
1e-14
1e-14
1e-14
1e-14
1e-14
1e-14
1e-14
1e-14
1e-14
1e-14
1e-14
1e-14
1e-14
1e-14
1e-14
1e-14
1e-14
1e-14
1e-14
1e-14
1e-14
1e-14
1e-14
1e-14
1e-14
1e-14
1e-14
1e-14
1e-14
1e-14
1e-14
1e-14
1e-14
1e-14
1e-14
1e-14
1e-14
1e-14
1e-14
1e-14
1e-14
1e-14
1e-14
1e-14
1e-14
1e-14
1e-14
1e-14
1e-14
1e-14
1e-14
1e-14
1e-14
1e-14
1e-14
1e-14
1e-14
1e-14
1e-14
1e-14
1e-14
1e-14
1e-14
1e-14
1e-14
1e-14
1e-14
1e-14
1e-14
1e-14
1e-14
1e-14
1e-14
1e-14
1e-14
1e-14
1e-14
1e-14
1.00001e-14
1.00001e-14
1.00001e-14
1e-14
1e-14
1e-14
1e-14
1e-14
1e-14
1e-14
1e-14
1e-14
1e-14
1e-14
1.00001e-14
1e-14
1e-14
1.00001e-14
1e-14
1e-14
1e-14
1e-14
1e-14
1e-14
1e-14
1e-14
1e-14
1e-14
1e-14
1e-14
1e-14
1e-14
1e-14
1e-14
1e-14
1e-14
1e-14
1e-14
1e-14
1e-14
1e-14
1e-14
1e-14
1e-14
1e-14
1e-14
1e-14
1e-14
1e-14
1e-14
1e-14
1e-14
1e-14
1e-14
1e-14
1e-14
1e-14
1e-14
1e-14
1e-14
1e-14
1e-14
1e-14
1e-14
1e-14
1e-14
1e-14
1e-14
1e-14
1e-14
1e-14
1e-14
1e-14
1e-14
1e-14
1e-14
1e-14
1e-14
1e-14
1e-14
1e-14
1e-14
1e-14
1e-14
1e-14
1e-14
1e-14
1e-14
1.00001e-14
1e-14
1e-14
1e-14
1e-14
1e-14
1e-14
1e-14
1e-14
1e-14
1e-14
1e-14
1e-14
1e-14
1e-14
1e-14
1e-14
1e-14
1e-14
1e-14
1e-14
1e-14
1e-14
1e-14
1e-14
1e-14
1e-14
1e-14
1e-14
1e-14
1e-14
1e-14
1e-14
1e-14
1e-14
1e-14
1e-14
1e-14
1e-14
1e-14
1e-14
1e-14
1e-14
1e-14
1e-14
1e-14
1e-14
1e-14
1e-14
1e-14
1e-14
1e-14
1e-14
1e-14
1e-14
1e-14
1e-14
1e-14
1e-14
1e-14
1e-14
1e-14
1e-14
1e-14
1e-14
1e-14
1e-14
1e-14
1e-14
1e-14
1e-14
1e-14
1e-14
1e-14
1.00001e-14
1e-14
1e-14
1e-14
1e-14
1e-14
1e-14
1e-14
1.00001e-14
1.00001e-14
1e-14
1e-14
1.00001e-14
1.00001e-14
1.00001e-14
1e-14
1e-14
1.00002e-14
1e-14
1e-14
1e-14
1e-14
1e-14
1e-14
1e-14
1e-14
1e-14
1e-14
1e-14
1e-14
1e-14
1e-14
1.00001e-14
1e-14
1e-14
1e-14
1e-14
1e-14
1e-14
1e-14
1e-14
1e-14
1e-14
1e-14
1e-14
1e-14
1e-14
1e-14
1e-14
1e-14
1e-14
1e-14
1e-14
1e-14
1e-14
1e-14
1e-14
1e-14
1e-14
1e-14
1e-14
1e-14
1e-14
1e-14
1e-14
1e-14
1e-14
1e-14
1e-14
1e-14
1e-14
1e-14
1e-14
1e-14
1e-14
1e-14
1e-14
1e-14
1e-14
1e-14
1e-14
1e-14
1e-14
1e-14
1e-14
1e-14
1e-14
1e-14
1e-14
1e-14
1e-14
1e-14
1e-14
1e-14
1e-14
1e-14
1e-14
1e-14
1e-14
1e-14
1e-14
1e-14
1e-14
1e-14
1e-14
1e-14
1e-14
1e-14
1e-14
1e-14
1e-14
1e-14
1e-14
1e-14
1e-14
1e-14
1e-14
1e-14
1e-14
1e-14
1e-14
1e-14
1e-14
1e-14
1e-14
1e-14
1e-14
1e-14
1e-14
1e-14
1e-14
1e-14
1e-14
1e-14
1e-14
1e-14
1e-14
1e-14
1e-14
1.00001e-14
1e-14
1e-14
1e-14
1e-14
1e-14
1e-14
1e-14
1e-14
1e-14
1e-14
1.00001e-14
1e-14
1e-14
1e-14
1e-14
1e-14
1e-14
1e-14
1e-14
1e-14
1e-14
1e-14
1e-14
1e-14
1e-14
1e-14
1e-14
1e-14
1e-14
1e-14
1e-14
1e-14
1e-14
1e-14
1e-14
1e-14
1e-14
1.00001e-14
1e-14
1e-14
1e-14
1e-14
1.00001e-14
1e-14
1e-14
1e-14
1e-14
1e-14
1e-14
1.00001e-14
1e-14
1e-14
1e-14
1e-14
1.00003e-14
1e-14
1e-14
1e-14
1e-14
1e-14
1e-14
1e-14
1e-14
1e-14
1e-14
1e-14
1e-14
1e-14
1e-14
1.00001e-14
1e-14
1e-14
1e-14
1e-14
1e-14
1e-14
1e-14
1e-14
1e-14
1e-14
1e-14
1e-14
1e-14
1e-14
1.00001e-14
1e-14
1e-14
1e-14
1e-14
1e-14
1e-14
1e-14
1e-14
1e-14
1e-14
1e-14
1e-14
1e-14
1e-14
1e-14
1e-14
1e-14
1e-14
1e-14
1e-14
1e-14
1e-14
1e-14
1e-14
1e-14
1e-14
1e-14
1e-14
1e-14
1e-14
1e-14
1e-14
1e-14
1e-14
1e-14
1e-14
1e-14
1e-14
1e-14
1e-14
1e-14
1e-14
1.00001e-14
1e-14
1e-14
1e-14
1e-14
1e-14
1e-14
1e-14
1e-14
1e-14
1e-14
1e-14
1e-14
1e-14
1e-14
1e-14
1e-14
1e-14
1e-14
1e-14
1e-14
1e-14
1e-14
1e-14
1e-14
1e-14
1e-14
1e-14
1e-14
1e-14
1e-14
1e-14
1e-14
1e-14
1e-14
1e-14
1e-14
1e-14
1e-14
1e-14
1e-14
1e-14
1e-14
1e-14
1e-14
1e-14
1e-14
1e-14
1e-14
1e-14
1.00001e-14
1e-14
1e-14
1e-14
1e-14
1e-14
1e-14
1e-14
1e-14
1e-14
1e-14
1e-14
1e-14
1e-14
1e-14
1e-14
1e-14
1e-14
1e-14
1e-14
1e-14
1e-14
1e-14
1e-14
1e-14
1e-14
1e-14
1e-14
1e-14
1e-14
1e-14
1e-14
1e-14
1e-14
1e-14
1e-14
1e-14
1e-14
1e-14
1e-14
1.00001e-14
1e-14
1e-14
1e-14
1e-14
1e-14
1e-14
1e-14
1.00001e-14
1e-14
1e-14
1e-14
1e-14
1e-14
1.00002e-14
1e-14
1e-14
1e-14
1e-14
1e-14
1e-14
1e-14
1e-14
1e-14
1e-14
1e-14
1e-14
1e-14
1e-14
1.00001e-14
1e-14
1e-14
1e-14
1e-14
1e-14
1e-14
1e-14
1e-14
1e-14
1e-14
1e-14
1e-14
1e-14
1e-14
1.00001e-14
1e-14
1e-14
1e-14
1e-14
1e-14
1e-14
1e-14
1e-14
1e-14
1e-14
1e-14
1e-14
1e-14
1e-14
1e-14
1e-14
1e-14
1e-14
1e-14
1e-14
1e-14
1e-14
1e-14
1e-14
1e-14
1e-14
1e-14
1e-14
1e-14
1e-14
1e-14
1e-14
1e-14
1e-14
1e-14
1e-14
1e-14
1e-14
1e-14
1e-14
1e-14
1e-14
1e-14
1e-14
1e-14
1e-14
1e-14
1e-14
1e-14
1e-14
1e-14
1e-14
1e-14
1e-14
1e-14
1e-14
1e-14
1e-14
1e-14
1e-14
1e-14
1e-14
1e-14
1e-14
1e-14
1e-14
1e-14
1e-14
1e-14
1e-14
1e-14
1e-14
1e-14
1e-14
1e-14
1e-14
1e-14
1e-14
1e-14
1e-14
1e-14
1e-14
1e-14
1e-14
1e-14
1e-14
1e-14
1e-14
1e-14
1e-14
1e-14
1e-14
1.00001e-14
1e-14
1e-14
1e-14
1e-14
1e-14
1e-14
1e-14
1e-14
1e-14
1e-14
1e-14
1e-14
1e-14
1e-14
1e-14
1e-14
1e-14
1e-14
1e-14
1e-14
1e-14
1e-14
1e-14
1e-14
1e-14
1e-14
1e-14
1e-14
1e-14
1e-14
1e-14
1e-14
1e-14
1e-14
1e-14
1e-14
1e-14
1e-14
1e-14
2.29543e-13
1.13016e-14
2.44118e-13
1.1476e-14
2.59529e-13
1.18347e-14
1.33733e-14
1.95042e-14
1.03773e-14
1.00702e-14
2.88716e-14
3.52097e-14
5.55092e-13
1.36323e-14
1.01017e-14
1.98345e-14
1.00213e-14
1.5778e-13
1.10303e-14
1.68777e-14
1.07141e-14
2.1273e-13
1.0558e-14
1.00083e-14
1.4108e-14
1.00849e-14
4.68246e-13
3.9633e-14
1.04432e-14
1.89283e-14
1e-14
1.26953e-14
1.003e-14
2.02816e-13
1.03616e-14
4.78973e-13
1.41184e-14
5.27457e-13
5.24922e-13
1.28982e-14
5.23001e-13
5.26466e-13
1.41055e-14
4.78977e-13
1.0361e-14
1.00309e-14
2.02812e-13
1.2696e-14
1e-14
1.89225e-14
1.0444e-14
3.97585e-14
1.00853e-14
1.00092e-14
1.41269e-14
1.06004e-14
4.67711e-13
2.1265e-13
1.0762e-14
1.67524e-14
1.10601e-14
1.58007e-13
1.00234e-14
1.00993e-14
1.97974e-14
1.35638e-14
5.54944e-13
3.28896e-14
2.84897e-14
1.00422e-14
1.03982e-14
1.95767e-14
1.33279e-14
1.18565e-14
2.6016e-13
1.14953e-14
1.13011e-14
2.44572e-13
2.29509e-13
1.06191e-14
2.10259e-13
1.07276e-14
2.27858e-13
1.1097e-14
2.42717e-13
1.12687e-14
1.11117e-14
1e-14
2.58277e-13
1.15682e-14
1.27299e-14
1.01076e-14
1e-14
1.78096e-14
1.03075e-14
1.00176e-14
1e-14
1.0046e-14
2.68766e-14
1e-14
5.25761e-13
3.11966e-14
5.53198e-13
1e-14
1e-14
1.00183e-14
1.28027e-14
1.0061e-14
1.9127e-14
1.00209e-14
1.06574e-14
1.00042e-14
1.57277e-13
1.08905e-14
1.56294e-14
1e-14
1.35178e-13
1.07385e-14
2.11205e-13
1.00002e-14
1.10075e-14
1e-14
1.04934e-14
1.00059e-14
1.34123e-14
1.00629e-14
4.12133e-13
4.66192e-13
1.03773e-14
1e-14
3.80828e-14
1.03702e-14
1.69304e-14
1.35318e-14
1e-14
1e-14
1.76226e-13
1.03483e-14
1.24405e-14
1.00223e-14
2.01205e-13
1.03026e-14
1e-14
3.6207e-13
4.76626e-13
1.28055e-14
5.25963e-13
1e-14
3.6958e-13
5.23178e-13
1.18196e-14
5.21204e-13
1e-14
4.28359e-13
5.24992e-13
1.27963e-14
4.76604e-13
1e-14
1.76213e-13
1.08366e-14
1.03021e-14
1.00223e-14
2.01203e-13
1.24399e-14
1.3534e-14
1e-14
1.03764e-14
1e-14
1.69306e-14
1.03702e-14
3.80385e-14
1.00002e-14
1.10461e-14
1.01857e-14
1.00639e-14
1.00061e-14
1.34344e-14
1.04983e-14
4.12096e-13
4.66181e-13
1e-14
2.11247e-13
1.07433e-14
1.06693e-14
1.38929e-13
1.56824e-14
1.09022e-14
1.57333e-13
1e-14
1e-14
1.13548e-14
1.00209e-14
1.0063e-14
1.9137e-14
1.28646e-14
1e-14
5.53262e-13
3.14128e-14
1.00179e-14
2.70314e-14
1.00452e-14
1.02498e-14
1.03125e-14
1.78727e-14
1.11216e-14
2.25389e-13
1.27499e-14
1.15826e-14
2.58378e-13
1.06288e-14
2.10918e-13
2.00041e-13
1.1283e-14
1.1109e-14
2.42818e-13
2.27856e-13
1.06334e-14
2.11134e-13
1.07423e-14
2.27885e-13
1.10907e-14
2.42712e-13
1.12623e-14
1.11105e-14
1e-14
2.58391e-13
1.15661e-14
1.26043e-14
1.05864e-14
1e-14
1.74746e-14
1.03044e-14
1.0016e-14
1e-14
1.0041e-14
2.69443e-14
1e-14
5.2614e-13
3.14043e-14
5.53135e-13
1e-14
1e-14
1.00187e-14
1.2764e-14
1.00569e-14
1.89592e-14
1.00205e-14
1.06611e-14
1.00606e-14
1.57368e-13
1.08907e-14
1.55177e-14
1e-14
1.3684e-13
1.07854e-14
2.10996e-13
1.00002e-14
1.12051e-14
1e-14
1.04978e-14
1.00056e-14
1.33474e-14
1.00574e-14
4.13066e-13
4.66464e-13
1.03682e-14
1e-14
3.84892e-14
1.03699e-14
1.65196e-14
1.42864e-14
1e-14
1e-14
1.76463e-13
1.03402e-14
1.2456e-14
1.00221e-14
2.01387e-13
1.02999e-14
1e-14
3.65183e-13
4.76951e-13
1.24162e-14
5.25595e-13
1e-14
3.72755e-13
5.2285e-13
1.15308e-14
5.20868e-13
1e-14
4.28706e-13
5.2462e-13
1.2407e-14
4.76926e-13
1e-14
1.76455e-13
1.08378e-14
1.02997e-14
1.00221e-14
2.01383e-13
1.24554e-14
1.42891e-14
1e-14
1.03683e-14
1e-14
1.65225e-14
1.03701e-14
3.84799e-14
1.00003e-14
1.12106e-14
1.01761e-14
1.00577e-14
1.00059e-14
1.33491e-14
1.04987e-14
4.13054e-13
4.66483e-13
1e-14
2.10998e-13
1.0786e-14
1.06644e-14
1.39211e-13
1.5522e-14
1.0892e-14
1.57369e-13
1e-14
1e-14
1.14113e-14
1.00204e-14
1.0057e-14
1.89554e-14
1.27706e-14
1e-14
5.53222e-13
3.14267e-14
1.00168e-14
2.69612e-14
1.00412e-14
1.06006e-14
1.03068e-14
1.74793e-14
1.11145e-14
2.25782e-13
1.26054e-14
1.15687e-14
2.5839e-13
1.06367e-14
2.11128e-13
2.00196e-13
1.12657e-14
1.10918e-14
2.4274e-13
2.2779e-13
1.0643e-14
2.11238e-13
1.07525e-14
2.27911e-13
1.10919e-14
2.42725e-13
1.12644e-14
1.11201e-14
1e-14
2.58408e-13
1.15702e-14
1.25864e-14
1.06849e-14
1e-14
1.74495e-14
1.03041e-14
1.00168e-14
1e-14
1.00413e-14
2.69358e-14
1e-14
5.25726e-13
3.14564e-14
5.53138e-13
1e-14
1e-14
1.00191e-14
1.27587e-14
1.0056e-14
1.89246e-14
1.00204e-14
1.06685e-14
1.00672e-14
1.57421e-13
1.08925e-14
1.54929e-14
1e-14
1.36786e-13
1.07977e-14
2.10898e-13
1.00002e-14
1.12405e-14
1e-14
1.04992e-14
1.00054e-14
1.33315e-14
1.0056e-14
4.13224e-13
4.66588e-13
1.03686e-14
1e-14
3.87393e-14
1.03684e-14
1.64597e-14
1.44718e-14
1e-14
1e-14
1.76518e-13
1.03407e-14
1.246e-14
1.00213e-14
2.01445e-13
1.02991e-14
1e-14
3.65211e-13
4.77008e-13
1.23482e-14
5.25574e-13
1e-14
3.72802e-13
5.22811e-13
1.14796e-14
5.20829e-13
1e-14
4.28632e-13
5.24605e-13
1.23383e-14
4.77003e-13
1e-14
1.76507e-13
1.08421e-14
1.02989e-14
1.00214e-14
2.01435e-13
1.24599e-14
1.44744e-14
1e-14
1.03686e-14
1e-14
1.64603e-14
1.03686e-14
3.87355e-14
1.00002e-14
1.12419e-14
1.01768e-14
1.00561e-14
1.00057e-14
1.33322e-14
1.04996e-14
4.13237e-13
4.6657e-13
1e-14
2.10889e-13
1.07972e-14
1.06689e-14
1.39265e-13
1.5496e-14
1.08929e-14
1.5742e-13
1e-14
1e-14
1.14343e-14
1.00203e-14
1.00561e-14
1.89221e-14
1.27601e-14
1e-14
5.53166e-13
3.146e-14
1.00183e-14
2.6941e-14
1.00405e-14
1.06882e-14
1.03045e-14
1.74486e-14
1.11214e-14
2.25898e-13
1.25865e-14
1.15708e-14
2.58422e-13
1.06436e-14
2.11206e-13
2.00284e-13
1.12654e-14
1.10918e-14
2.42738e-13
2.27784e-13
1.0644e-14
2.112e-13
1.07543e-14
2.27906e-13
1.10966e-14
2.42765e-13
1.1271e-14
1.11233e-14
1e-14
2.58464e-13
1.1582e-14
1.26106e-14
1.07085e-14
1e-14
1.74936e-14
1.03038e-14
1.00173e-14
1e-14
1.00418e-14
2.69129e-14
1e-14
5.2559e-13
3.14792e-14
5.53107e-13
1e-14
1e-14
1.00191e-14
1.27608e-14
1.00557e-14
1.8873e-14
1.00204e-14
1.06689e-14
1.00606e-14
1.57496e-13
1.08938e-14
1.54886e-14
1e-14
1.36679e-13
1.08068e-14
2.108e-13
1.00002e-14
1.12321e-14
1e-14
1.04995e-14
1.00052e-14
1.33166e-14
1.00549e-14
4.13316e-13
4.66637e-13
1.03664e-14
1e-14
3.8968e-14
1.03649e-14
1.64255e-14
1.44894e-14
1e-14
1e-14
1.76544e-13
1.03401e-14
1.24593e-14
1.0021e-14
2.01445e-13
1.02979e-14
1e-14
3.65162e-13
4.7701e-13
1.23429e-14
5.25592e-13
1e-14
3.72764e-13
5.228e-13
1.14758e-14
5.20821e-13
1e-14
4.2863e-13
5.24624e-13
1.23343e-14
4.76996e-13
1e-14
1.76531e-13
1.08432e-14
1.02977e-14
1.00209e-14
2.0144e-13
1.24588e-14
1.44942e-14
1e-14
1.03663e-14
1e-14
1.64246e-14
1.03648e-14
3.89684e-14
1.00002e-14
1.12327e-14
1.01769e-14
1.00547e-14
1.00053e-14
1.33174e-14
1.04995e-14
4.1326e-13
4.66611e-13
1e-14
2.10788e-13
1.08069e-14
1.0669e-14
1.39293e-13
1.54895e-14
1.08938e-14
1.57501e-13
1e-14
1e-14
1.14367e-14
1.00203e-14
1.00556e-14
1.88732e-14
1.27604e-14
1e-14
5.53094e-13
3.14735e-14
1.0017e-14
2.69123e-14
1.00419e-14
1.07082e-14
1.03046e-14
1.74939e-14
1.11232e-14
2.25879e-13
1.261e-14
1.15818e-14
2.58454e-13
1.06446e-14
2.11182e-13
2.00277e-13
1.12709e-14
1.10975e-14
2.42764e-13
2.27889e-13
1.06443e-14
2.11101e-13
1.07567e-14
2.2794e-13
1.11072e-14
2.42863e-13
1.12875e-14
1.11298e-14
1e-14
2.58495e-13
1.16194e-14
1.27158e-14
1.0734e-14
1e-14
1.75849e-14
1.03104e-14
1.00162e-14
1e-14
1.005e-14
2.69322e-14
1e-14
5.2539e-13
3.16397e-14
5.53042e-13
1e-14
1e-14
1.00189e-14
1.27845e-14
1.0055e-14
1.87535e-14
1.00207e-14
1.06682e-14
1.00496e-14
1.57718e-13
1.08962e-14
1.55039e-14
1e-14
1.36455e-13
1.08235e-14
2.10728e-13
1.00001e-14
1.12154e-14
1e-14
1.0501e-14
1.00051e-14
1.33146e-14
1.00538e-14
4.13351e-13
4.66699e-13
1.03627e-14
1e-14
3.93034e-14
1.03607e-14
1.64362e-14
1.45028e-14
1e-14
1e-14
1.76583e-13
1.03396e-14
1.24622e-14
1.00209e-14
2.01441e-13
1.02979e-14
1e-14
3.65134e-13
4.76982e-13
1.23908e-14
5.2563e-13
1e-14
3.72727e-13
5.22812e-13
1.14982e-14
5.20829e-13
1e-14
4.28615e-13
5.2466e-13
1.23821e-14
4.76968e-13
1e-14
1.7657e-13
1.08423e-14
1.02978e-14
1.00208e-14
2.01438e-13
1.24614e-14
1.45047e-14
1e-14
1.03626e-14
1e-14
1.64336e-14
1.03607e-14
3.93021e-14
1.00001e-14
1.1216e-14
1.01774e-14
1.00536e-14
1.0005e-14
1.33153e-14
1.05009e-14
4.13317e-13
4.66675e-13
1e-14
2.10725e-13
1.08236e-14
1.06684e-14
1.3932e-13
1.55035e-14
1.08962e-14
1.57721e-13
1e-14
1e-14
1.14441e-14
1.00207e-14
1.0055e-14
1.8752e-14
1.27855e-14
1e-14
5.53057e-13
3.16455e-14
1.00169e-14
2.69352e-14
1.00498e-14
1.07347e-14
1.03109e-14
1.75849e-14
1.11298e-14
2.25713e-13
1.27157e-14
1.16197e-14
2.58498e-13
1.0645e-14
2.11076e-13
2.00222e-13
1.12877e-14
1.11079e-14
2.42858e-13
2.2795e-13
1.06381e-14
2.10697e-13
1.07552e-14
2.28189e-13
1.11483e-14
2.43318e-13
1.13528e-14
1.11464e-14
1e-14
2.58846e-13
1.17315e-14
1.30609e-14
1.08802e-14
1e-14
1.7626e-14
1.03623e-14
1.0017e-14
1e-14
1.0082e-14
2.75482e-14
1e-14
5.24782e-13
3.22772e-14
5.53457e-13
1e-14
1e-14
1.00187e-14
1.29192e-14
1.0054e-14
1.90086e-14
1.00232e-14
1.06623e-14
1.00317e-14
1.58441e-13
1.09136e-14
1.55871e-14
1e-14
1.35807e-13
1.0849e-14
2.10699e-13
1e-14
1.12014e-14
1e-14
1.0509e-14
1.00047e-14
1.34031e-14
1.00538e-14
4.13349e-13
4.67347e-13
1.03525e-14
1e-14
4.06935e-14
1.03739e-14
1.70638e-14
1.4503e-14
1e-14
1e-14
1.76621e-13
1.03382e-14
1.2532e-14
1.00199e-14
2.02115e-13
1.03079e-14
1e-14
3.64935e-13
4.77216e-13
1.26248e-14
5.25737e-13
1e-14
3.72557e-13
5.22925e-13
1.15838e-14
5.2103e-13
1e-14
4.28453e-13
5.24793e-13
1.26177e-14
4.77218e-13
1e-14
1.76606e-13
1.08342e-14
1.03078e-14
1.00198e-14
2.0211e-13
1.25315e-14
1.45044e-14
1e-14
1.03523e-14
1e-14
1.70636e-14
1.03739e-14
4.06904e-14
1e-14
1.12017e-14
1.0179e-14
1.00539e-14
1.00048e-14
1.34024e-14
1.0509e-14
4.13326e-13
4.67345e-13
1e-14
2.1069e-13
1.08489e-14
1.06624e-14
1.39339e-13
1.55871e-14
1.09137e-14
1.58438e-13
1e-14
1e-14
1.14844e-14
1.00232e-14
1.0054e-14
1.90066e-14
1.29197e-14
1e-14
5.53458e-13
3.22805e-14
1.00164e-14
2.75498e-14
1.00816e-14
1.08801e-14
1.03622e-14
1.76272e-14
1.11468e-14
2.25114e-13
1.30613e-14
1.17319e-14
2.58848e-13
1.06387e-14
2.10686e-13
1.99798e-13
1.13532e-14
1.1149e-14
2.4332e-13
2.28177e-13
1.04164e-14
2.07897e-13
1.05248e-14
2.7866e-13
1.16319e-14
2.91782e-13
1.19407e-14
1.11098e-14
1e-14
3.07831e-13
1.20061e-14
1.37241e-14
1.09839e-14
1e-14
2.09998e-14
1.18374e-14
1.00069e-14
1e-14
1.05534e-14
2.41926e-14
1e-14
5.2495e-13
5.71061e-14
5.35434e-13
1e-14
1e-14
1.00149e-14
1.53301e-14
1.01174e-14
4.25592e-14
1.00215e-14
1.0588e-14
1.00138e-14
1.83907e-13
1.07068e-14
1.5734e-14
1e-14
1.32095e-13
1.08833e-14
2.03812e-13
1e-14
1.13572e-14
1e-14
1.05255e-14
1.00044e-14
1.3896e-14
1.0063e-14
4.11451e-13
4.59022e-13
1.03597e-14
1e-14
4.76109e-14
1.01825e-14
1.32607e-14
1.31566e-14
1e-14
1e-14
1.7628e-13
1.03495e-14
1.30216e-14
1e-14
2.28959e-13
1.00907e-14
1e-14
3.64262e-13
4.73487e-13
1.16751e-14
4.81183e-13
1e-14
3.72323e-13
4.85388e-13
1.03892e-14
4.84988e-13
1e-14
4.27519e-13
4.8079e-13
1.16761e-14
4.73493e-13
1e-14
1.76274e-13
1.10262e-14
1.00908e-14
1e-14
2.28967e-13
1.30218e-14
1.31577e-14
1e-14
1.03598e-14
1e-14
1.3262e-14
1.01824e-14
4.76142e-14
1e-14
1.13571e-14
1.01949e-14
1.0063e-14
1.00044e-14
1.38963e-14
1.05254e-14
4.11398e-13
4.59015e-13
1e-14