/*--------------------------------*- C++ -*----------------------------------*\
| =========                 |                                                 |
| \\      /  F ield         | OpenFOAM: The Open Source CFD Toolbox           |
|  \\    /   O peration     | Version:  2.1.1                                 |
|   \\  /    A nd           | Web:      www.OpenFOAM.org                      |
|    \\/     M anipulation  |                                                 |
\*---------------------------------------------------------------------------*/
FoamFile
{
    version     2.0;
    format      ascii;
    class       volScalarField;
    location    "0.0025";
    object      p;
}
// * * * * * * * * * * * * * * * * * * * * * * * * * * * * * * * * * * * * * //

dimensions      [0 2 -2 0 0 0 0];

internalField   nonuniform List<scalar> 
10314
(
0.0825563
0.0825531
0.0825492
0.0825437
0.0825363
0.0825306
0.0825228
0.0825202
0.082515
0.0825273
0.0825167
0.0825661
0.0825041
0.0827283
0.0983372
0.0825529
0.0825506
0.0825465
0.0825418
0.0825346
0.0825301
0.0825202
0.0825196
0.0825088
0.0825263
0.0825
0.0825697
0.0824515
0.082886
0.096396
0.0825488
0.0825463
0.0825442
0.0825394
0.082537
0.0825305
0.0825332
0.0825254
0.0825459
0.0825271
0.0826076
0.0825212
0.0828195
0.102422
0.0886239
0.0825432
0.0825416
0.0825393
0.0825371
0.0825335
0.0825324
0.0825298
0.0825326
0.0825355
0.0825321
0.082575
0.0825052
0.0827447
0.0950961
0.0961499
0.0825357
0.0825343
0.0825369
0.0825336
0.0825386
0.0825331
0.0825467
0.0825361
0.0825716
0.082543
0.0826249
0.0825754
0.0827847
0.094924
0.0938647
0.0825299
0.0825298
0.0825305
0.0825328
0.0825333
0.0825426
0.0825419
0.0825617
0.0825636
0.0825908
0.0826368
0.0825861
0.082947
0.0962656
0.0825218
0.0825196
0.0825336
0.082531
0.0825477
0.0825427
0.082573
0.0825561
0.0826163
0.082588
0.0826331
0.0828237
0.102642
0.107423
0.0825187
0.0825175
0.0825263
0.0825357
0.082538
0.0825635
0.0825576
0.0826235
0.0825664
0.082715
0.0825921
0.0829538
0.0966509
0.0897991
0.0825141
0.0825087
0.082548
0.0825374
0.0825736
0.0825666
0.0826214
0.0825721
0.0827598
0.0824847
0.0830575
0.101727
0.109067
0.082526
0.0825271
0.082528
0.082534
0.0825464
0.0825942
0.0825961
0.0827286
0.0824907
0.0830419
0.100209
0.0885271
0.0825159
0.0825004
0.0826089
0.0825758
0.0826273
0.0826415
0.0826418
0.082605
0.0830678
0.100209
0.08865
0.0825641
0.0825711
0.0825221
0.0825065
0.0825777
0.0825901
0.0828305
0.0829639
0.10173
0.0885246
0.082503
0.0824518
0.0828208
0.0827456
0.0827868
0.0829507
0.102646
0.0966555
0.109077
0.0827255
0.0828886
0.102425
0.0950974
0.0949257
0.096268
0.107426
0.0898042
0.0983384
0.0963999
0.0886262
0.0961517
0.0938665
0.0813286
0.0813241
0.0813164
0.0813054
0.0812897
0.0812718
0.0812487
0.0812238
0.0811932
0.0811622
0.0811236
0.0810982
0.0810383
0.0810755
0.0957559
0.0813239
0.0813203
0.0813125
0.0813023
0.0812863
0.08127
0.0812454
0.0812234
0.0811889
0.0811637
0.0811128
0.0811152
0.0809795
0.0812425
0.0938849
0.081316
0.0813123
0.0813056
0.081295
0.0812817
0.0812634
0.0812457
0.0812171
0.0812
0.0811503
0.0811624
0.0810374
0.0812075
0.0997868
0.0864817
0.0813049
0.081302
0.0812949
0.0812869
0.0812721
0.0812592
0.0812368
0.0812175
0.0811906
0.0811586
0.0811552
0.0810545
0.0812104
0.0928774
0.0948011
0.0812891
0.081286
0.0812817
0.0812722
0.0812631
0.0812453
0.0812343
0.0812044
0.0811985
0.0811535
0.0811626
0.0810993
0.0811736
0.0926057
0.0924546
0.0812712
0.0812699
0.0812636
0.0812597
0.0812455
0.0812412
0.0812168
0.0812156
0.0811822
0.0811778
0.0811724
0.081089
0.0813334
0.0937571
0.0812482
0.0812455
0.0812468
0.0812379
0.0812353
0.0812176
0.0812193
0.0811825
0.0812006
0.0811419
0.0811447
0.0812456
0.100108
0.10624
0.0812234
0.0812242
0.08122
0.0812196
0.0812062
0.0812172
0.0811844
0.0812242
0.0811261
0.081242
0.0810531
0.0813497
0.0942605
0.0886305
0.0811934
0.0811899
0.0812034
0.0811961
0.0812021
0.0811836
0.0812085
0.0811359
0.0812897
0.0809473
0.081496
0.0990852
0.107721
0.0811618
0.0811651
0.0811524
0.081162
0.0811564
0.0811834
0.0811577
0.0812848
0.0809546
0.0815243
0.0977658
0.0865568
0.0811234
0.0811137
0.0811652
0.0811564
0.0811655
0.0811781
0.081156
0.0810718
0.081506
0.0977645
0.086682
0.0810967
0.0811166
0.0810391
0.0810564
0.081102
0.0810935
0.0812525
0.0813589
0.0990879
0.0865533
0.0810375
0.08098
0.081209
0.0812119
0.081176
0.0813369
0.100111
0.0942635
0.107725
0.081074
0.0812453
0.0997901
0.0928787
0.0926076
0.0937591
0.106242
0.0886352
0.0957596
0.0938897
0.0864846
0.0948029
0.0924563
0.0801092
0.0801033
0.0800918
0.0800753
0.0800513
0.080022
0.0799837
0.0799366
0.0798799
0.0798066
0.07974
0.0796338
0.0795799
0.0794528
0.0941183
0.0801031
0.080098
0.0800862
0.0800706
0.080046
0.0800185
0.0799791
0.0799356
0.0798782
0.0798122
0.0797319
0.0796577
0.0795143
0.0795872
0.0922772
0.0800914
0.0800861
0.0800745
0.0800582
0.0800342
0.0800047
0.0799665
0.0799191
0.079864
0.0797909
0.0797227
0.0795886
0.0795881
0.0981549
0.0848906
0.0800748
0.0800704
0.0800581
0.0800443
0.0800185
0.0799942
0.0799526
0.0799153
0.0798578
0.0797983
0.0797354
0.0796241
0.0796575
0.0912737
0.0933509
0.0800507
0.0800458
0.0800342
0.0800186
0.0799949
0.0799653
0.0799294
0.0798823
0.0798329
0.0797675
0.0796975
0.0796402
0.07956
0.0909808
0.0910026
0.0800214
0.0800184
0.0800048
0.0799945
0.0799655
0.0799474
0.0798986
0.0798759
0.0798029
0.0797755
0.0797079
0.0796113
0.079734
0.092109
0.0799834
0.0799793
0.0799671
0.0799533
0.0799301
0.0798992
0.0798711
0.0798131
0.0797914
0.0797054
0.0796742
0.0796913
0.0985337
0.104827
0.0799369
0.0799362
0.0799196
0.0799164
0.0798836
0.0798775
0.0798146
0.0798271
0.079693
0.0797916
0.0795684
0.0797734
0.0927028
0.0872236
0.0798826
0.0798789
0.0798624
0.079859
0.079835
0.0798058
0.0797958
0.0796979
0.0798048
0.0794734
0.0799247
0.097518
0.106308
0.0798086
0.0798136
0.0797891
0.0797994
0.07977
0.0797798
0.0797125
0.0798013
0.0794773
0.0799778
0.0962098
0.0850327
0.0797401
0.0797326
0.0797234
0.0797367
0.0797002
0.0797122
0.0796808
0.0795764
0.0799298
0.0962068
0.0851627
0.079633
0.0796586
0.0795902
0.0796259
0.0796426
0.0796151
0.0796959
0.0797789
0.0975179
0.0850272
0.0795792
0.0795151
0.0795898
0.079659
0.0795622
0.0797367
0.0985359
0.0927045
0.106309
0.0794526
0.0795908
0.0981585
0.0912749
0.0909825
0.0921106
0.104829
0.0872269
0.0941263
0.0922842
0.0848946
0.0933528
0.0910041
0.0788978
0.0788902
0.0788748
0.0788531
0.078821
0.078781
0.0787283
0.0786593
0.0785805
0.0784661
0.0783657
0.07817
0.0781117
0.0778065
0.0926604
0.0788901
0.0788833
0.0788676
0.0788468
0.0788141
0.0787759
0.0787227
0.0786586
0.0785766
0.0784709
0.0783607
0.0781901
0.0780473
0.0778915
0.0908032
0.0788744
0.0788674
0.0788511
0.0788293
0.078795
0.0787551
0.0786971
0.0786326
0.0785298
0.0784384
0.0782791
0.0781419
0.077934
0.0966535
0.0833145
0.0788526
0.0788465
0.0788292
0.0788099
0.0787734
0.0787382
0.0786781
0.0786237
0.0785376
0.0784483
0.0783189
0.0781839
0.0780926
0.0897802
0.0918343
0.0788204
0.0788137
0.0787949
0.0787735
0.0787355
0.0786948
0.0786341
0.0785713
0.0784775
0.0783928
0.0782293
0.0781749
0.0779179
0.0894604
0.0894982
0.0787804
0.0787757
0.0787551
0.0787385
0.078695
0.0786631
0.07859
0.0785461
0.0784328
0.0783807
0.0782357
0.0781332
0.0781398
0.090572
0.0787277
0.0787226
0.0786973
0.0786785
0.0786346
0.0785905
0.0785319
0.0784524
0.0783853
0.0782709
0.0781922
0.0781533
0.0970411
0.103309
0.0786589
0.0786587
0.0786329
0.0786245
0.0785722
0.0785473
0.0784533
0.0784329
0.0782656
0.0783174
0.0780646
0.0782102
0.0911977
0.0856824
0.0785804
0.0785767
0.0785297
0.0785387
0.0784789
0.0784346
0.0783873
0.0782672
0.0783127
0.0779922
0.0783589
0.0960129
0.104789
0.0784658
0.0784715
0.0784385
0.0784495
0.0783945
0.0783834
0.0782738
0.0783202
0.0779924
0.0784312
0.0947121
0.0835257
0.0783653
0.0783609
0.0782797
0.07832
0.0782311
0.0782385
0.0781947
0.0780671
0.0783603
0.0947072
0.0836641
0.0781691
0.0781912
0.0781428
0.0781855
0.0781766
0.0781355
0.0781556
0.0782125
0.0960097
0.0835177
0.0781107
0.0780482
0.0779359
0.0780938
0.0779196
0.0781415
0.0970419
0.0911978
0.104789
0.0778063
0.0778957
0.0966564
0.0897812
0.0894617
0.0905729
0.10331
0.0856844
0.09267
0.0908115
0.0833192
0.091836
0.0894995
0.0776926
0.0776838
0.0776651
0.0776386
0.0775993
0.0775496
0.0774853
0.0773999
0.0772996
0.0771414
0.0770118
0.0767101
0.0766499
0.07608
0.0913287
0.0776837
0.0776755
0.0776563
0.0776306
0.0775906
0.0775428
0.0774775
0.0773956
0.077301
0.0771482
0.0770162
0.0767217
0.0766042
0.0760248
0.0894302
0.0776646
0.0776561
0.0776353
0.0776085
0.0775647
0.0775153
0.0774387
0.0773598
0.077232
0.0771083
0.0768262
0.0766908
0.0761334
0.0951423
0.0816555
0.0776381
0.0776303
0.0776084
0.0775838
0.0775378
0.0774927
0.0774156
0.0773455
0.0772138
0.0771148
0.0769157
0.0767562
0.076487
0.0883189
0.0903044
0.0775986
0.0775902
0.0775645
0.0775378
0.0774868
0.0774361
0.0773519
0.0772736
0.077126
0.0770396
0.0767624
0.0767134
0.0761934
0.0879656
0.0879742
0.0775488
0.0775425
0.0775152
0.0774929
0.0774362
0.0773912
0.0772952
0.0772299
0.0770738
0.076996
0.0767641
0.0766626
0.076477
0.0890511
0.0774844
0.0774772
0.0774387
0.0774159
0.0773522
0.0772955
0.0772067
0.0771069
0.0769869
0.0768442
0.0766887
0.0765927
0.0955846
0.101788
0.077399
0.0773956
0.0773599
0.077346
0.0772742
0.0772306
0.0771075
0.0770458
0.0768445
0.0768309
0.0765498
0.0765781
0.0896989
0.0840493
0.077299
0.0773009
0.0772325
0.0772142
0.0771267
0.0770748
0.0769878
0.0768449
0.0768058
0.0764818
0.0767332
0.0944959
0.103229
0.0771407
0.0771485
0.0771085
0.0771155
0.07704
0.0769975
0.0768453
0.0768315
0.076482
0.0768471
0.0931897
0.0819683
0.0770112
0.0770162
0.0768267
0.0769164
0.0767633
0.076765
0.0766891
0.0765496
0.0767323
0.0931834
0.0821276
0.076709
0.0767226
0.0766912
0.0767575
0.0767143
0.0766633
0.0765931
0.0765778
0.09449
0.0819578
0.076649
0.0766042
0.0761351
0.0764877
0.0761943
0.0764775
0.0955838
0.0896971
0.103227
0.0760785
0.0760284
0.0951436
0.0883194
0.0879664
0.0890513
0.101788
0.0840495
0.0913357
0.0894355
0.081659
0.0903057
0.0879751
0.0764933
0.0764837
0.0764621
0.0764313
0.0763858
0.0763274
0.0762518
0.0761459
0.0760322
0.0758372
0.0756947
0.0752724
0.0752483
0.0742619
0.090307
0.0764835
0.0764741
0.0764519
0.0764219
0.0763757
0.0763194
0.0762439
0.0761439
0.0760264
0.0758432
0.0757151
0.075279
0.0752838
0.0739101
0.088406
0.0764616
0.0764517
0.0764271
0.0763959
0.076344
0.0762864
0.0761944
0.0760998
0.0758991
0.0757891
0.0753776
0.0752661
0.0741018
0.0932244
0.0798375
0.0764307
0.0764216
0.0763958
0.0763665
0.0763124
0.0762586
0.076167
0.0760852
0.0759463
0.0758141
0.0755376
0.0753792
0.0748626
0.0869329
0.0888765
0.076385
0.0763752
0.0763438
0.0763124
0.0762503
0.076191
0.0760873
0.0760017
0.0758236
0.0757009
0.0753092
0.0752801
0.0743669
0.0865761
0.0865122
0.0763265
0.076319
0.0762863
0.0762587
0.0761911
0.0761341
0.0760193
0.0759363
0.0757495
0.0756628
0.0753091
0.0752151
0.0746965
0.0875916
0.0762508
0.0762434
0.0761943
0.0761671
0.0760875
0.0760196
0.0759029
0.0757856
0.0756122
0.0754504
0.0751908
0.0750162
0.0942516
0.100362
0.076145
0.0761436
0.0760997
0.0760855
0.076002
0.0759368
0.075786
0.0756746
0.0754422
0.07533
0.0750254
0.0747992
0.0882594
0.0822566
0.0760318
0.0760263
0.075899
0.0759467
0.0758241
0.0757498
0.0756123
0.0754422
0.0752727
0.0749625
0.0749677
0.0930823
0.101719
0.0758373
0.0758436
0.075789
0.0758149
0.0757018
0.0756622
0.0754501
0.0753296
0.0749621
0.0751727
0.09164
0.0803386
0.0756943
0.0757151
0.0753777
0.0755381
0.0753096
0.0753084
0.0751883
0.075024
0.0749639
0.0916313
0.0805573
0.0752712
0.0752795
0.0752661
0.0753801
0.0752803
0.0752145
0.0750147
0.0747968
0.0930734
0.0803237
0.0752472
0.0752832
0.0741025
0.074863
0.0743671
0.074696
0.0942496
0.0882558
0.101713
0.0742598
0.073912
0.0932242
0.086933
0.0865764
0.0875911
0.100361
0.0822549
0.0903092
0.0884081
0.0798393
0.0888773
0.0865126
0.0753008
0.0752899
0.0752658
0.0752314
0.0751811
0.0751157
0.0750332
0.0749145
0.0747926
0.0745674
0.0744184
0.073864
0.0739183
0.0723144
0.0901315
0.0752898
0.0752792
0.0752545
0.0752207
0.0751697
0.0751063
0.0750236
0.0749122
0.0747918
0.0745644
0.0744523
0.0738908
0.0740774
0.071528
0.0882862
0.0752654
0.0752542
0.0752267
0.0751917
0.0751337
0.0750689
0.0749654
0.0748598
0.0746589
0.0744966
0.0739599
0.0738327
0.0716919
0.0875191
0.0780666
0.0752308
0.0752204
0.0751916
0.0751583
0.075098
0.0750367
0.074934
0.0748413
0.0746639
0.0745482
0.074184
0.0740936
0.0731576
0.0857445
0.0876521
0.0751803
0.0751692
0.0751335
0.075098
0.0750279
0.0749615
0.0748423
0.0747451
0.0745265
0.0744492
0.0739105
0.0739133
0.0724614
0.0855287
0.0855799
0.0751148
0.0751058
0.0750686
0.0750367
0.0749615
0.0748941
0.0747649
0.074662
0.0744374
0.0743074
0.0738708
0.0738227
0.0728264
0.0866492
0.0750322
0.0750231
0.0749651
0.074934
0.0748424
0.074765
0.0746265
0.0744939
0.0742654
0.074076
0.0737167
0.0734277
0.0933091
0.0995195
0.0749138
0.0749119
0.0748596
0.0748413
0.0747452
0.0746623
0.0744942
0.0743312
0.0740742
0.0738203
0.0735035
0.0728321
0.0878471
0.0798098
0.0747933
0.0747919
0.0746591
0.0746635
0.0745261
0.0744376
0.0742653
0.0740741
0.0737261
0.0734433
0.0729281
0.0922834
0.101324
0.0745708
0.0745645
0.0744967
0.0745477
0.0744475
0.0743086
0.074076
0.0738189
0.0734422
0.0733292
0.0900588
0.0784723
0.074419
0.0744523
0.07396
0.0741838
0.07391
0.0738702
0.0737145
0.0734988
0.0729199
0.0900443
0.0789779
0.0738628
0.0738908
0.0738323
0.0740943
0.0739132
0.0738217
0.0734254
0.0728272
0.0922703
0.0784473
0.0739167
0.0740766
0.0716914
0.0731583
0.0724612
0.0728251
0.0933062
0.0878421
0.101315
0.0723123
0.0715282
0.0875186
0.0857442
0.0855287
0.0866482
0.0995175
0.0798065
0.090131
0.0882868
0.078067
0.0876522
0.0855801
0.0741149
0.0741026
0.0740767
0.0740395
0.0739861
0.0739155
0.0738288
0.0737001
0.0735741
0.0733148
0.0731828
0.0725292
0.0727519
0.0704165
0.0858086
0.0741025
0.0740909
0.0740645
0.0740278
0.0739734
0.0739047
0.0738174
0.0736963
0.0735721
0.0733346
0.0732229
0.0726439
0.0729308
0.0705886
0.0859615
0.0740763
0.0740642
0.0740348
0.0739968
0.0739351
0.0738645
0.073755
0.0736354
0.0734196
0.0732074
0.0726455
0.0721714
0.0703358
0.0667078
0.0837837
0.0740389
0.0740274
0.0739967
0.0739601
0.073896
0.0738286
0.0737187
0.073615
0.0734187
0.0732824
0.0728246
0.0728498
0.0707888
0.0869907
0.0942991
0.0739854
0.073973
0.0739348
0.073896
0.0738215
0.0737498
0.0736224
0.0735172
0.0732773
0.073161
0.0725717
0.0726157
0.0703948
0.0845861
0.0971632
0.0739145
0.0739042
0.0738641
0.0738285
0.0737497
0.0736743
0.0735384
0.0734206
0.0731827
0.0730503
0.0725043
0.0725236
0.0707012
0.0844192
0.0738278
0.0738168
0.0737546
0.0737186
0.0736224
0.0735384
0.0733892
0.0732497
0.0729908
0.0727892
0.0723026
0.0720281
0.0928058
0.0945483
0.0736991
0.0736958
0.073635
0.0736148
0.0735172
0.0734208
0.0732498
0.0730479
0.0727875
0.0723936
0.0721512
0.0708589
0.0857321
0.0898089
0.0735735
0.0735717
0.0734193
0.0734185
0.073277
0.0731828
0.0729905
0.0727875
0.0723004
0.0721303
0.070849
0.0910646
0.0643695
0.0733145
0.0733344
0.0732073
0.0732821
0.0731601
0.073051
0.0727893
0.0723925
0.0721306
0.0713052
0.0883184
0.0725102
0.0731819
0.0732224
0.0726453
0.0728244
0.0725715
0.0725038
0.0723013
0.0721456
0.0708366
0.0882989
0.0775336
0.0725276
0.0726431
0.072171
0.07285
0.0726164
0.0725222
0.0720241
0.0708526
0.0910435
0.0724519
0.0727499
0.0729295
0.0703333
0.0707902
0.0703952
0.0706998
0.0928021
0.0857261
0.0643576
0.0704144
0.0705876
0.0667066
0.0869886
0.0845859
0.0844182
0.0945458
0.0898045
0.0858065
0.0859616
0.0837838
0.0942978
0.0971627
0.0729348
0.072922
0.0728952
0.0728564
0.0728017
0.0727286
0.0726421
0.0725114
0.0723928
0.0721381
0.0720388
0.0714689
0.0716838
0.0703639
0.0830475
0.0729218
0.0729096
0.0728824
0.072844
0.0727884
0.0727169
0.072629
0.0725053
0.0723852
0.0721562
0.0720637
0.0715973
0.0718871
0.0706585
0.0837389
0.0728949
0.0728822
0.0728521
0.0728123
0.0727498
0.0726763
0.0725686
0.0724429
0.0722507
0.0720129
0.0716512
0.0710631
0.0708301
0.0677072
0.0782595
0.0728558
0.0728437
0.0728122
0.0727736
0.0727086
0.0726376
0.0725267
0.0724153
0.0722187
0.0720551
0.071625
0.0714052
0.070123
0.0692548
0.0741148
0.072801
0.0727879
0.0727495
0.0727085
0.072634
0.0725597
0.0724338
0.0723252
0.0720992
0.0719792
0.0715202
0.0714583
0.0707475
0.085965
0.0723714
0.0727276
0.0727163
0.0726759
0.0726374
0.0725597
0.0724804
0.0723476
0.0722232
0.0719946
0.0718432
0.0713843
0.0713576
0.070171
0.0822965
0.072641
0.0726283
0.0725682
0.0725265
0.0724336
0.0723475
0.0722014
0.072067
0.0718139
0.0716522
0.0711644
0.0711259
0.0895243
0.0670386
0.0725102
0.0725046
0.0724425
0.0724151
0.0723251
0.0722232
0.072067
0.0718589
0.0716265
0.0712172
0.0709941
0.0708604
0.0834276
0.0723915
0.0723846
0.0722502
0.0722185
0.072099
0.0719945
0.0718134
0.071627
0.0711934
0.0710276
0.0699474
0.0883113
0.0744724
0.0721368
0.0721555
0.0720125
0.0720549
0.0719791
0.071843
0.0716513
0.0712164
0.0710264
0.0690151
0.0842706
0.0748256
0.0720372
0.072063
0.0716506
0.0716251
0.0715207
0.0713844
0.0711591
0.0709887
0.069932
0.0842788
0.0719461
0.0714671
0.0715963
0.0710624
0.0714053
0.071461
0.0713673
0.0711139
0.0708526
0.0883024
0.0747959
0.0716817
0.0718859
0.0708289
0.0701229
0.0707481
0.0701722
0.0895197
0.0834212
0.0744656
0.0703617
0.0706572
0.0677059
0.069254
0.085965
0.0822957
0.0670361
0.0830457
0.0837385
0.0782587
0.0741157
0.0723704
0.0717618
0.0717491
0.0717225
0.0716833
0.0716295
0.0715572
0.0714746
0.0713504
0.0712458
0.0710233
0.0709549
0.0705289
0.0707007
0.0698747
0.0814304
0.071749
0.0717365
0.0717094
0.0716706
0.0716159
0.0715449
0.0714604
0.071342
0.0712328
0.0710321
0.070955
0.0706131
0.070802
0.0701193
0.0820118
0.0717221
0.0717093
0.0716796
0.0716397
0.0715792
0.0715064
0.0714071
0.0712858
0.0711333
0.0709149
0.0707409
0.0702755
0.0705404
0.0689661
0.0791657
0.0716828
0.0716703
0.0716395
0.0716004
0.0715376
0.0714666
0.0713621
0.0712516
0.0710796
0.0709155
0.0706103
0.0703578
0.0699906
0.0686224
0.0802064
0.0716288
0.0716154
0.0715789
0.0715375
0.0714669
0.071394
0.0712785
0.0711739
0.0709868
0.0708648
0.0705937
0.0704851
0.0703705
0.0857827
0.075008
0.0715562
0.0715443
0.071506
0.0714664
0.0713939
0.0713165
0.0711964
0.0710778
0.0708829
0.070739
0.0704234
0.0703662
0.0699991
0.0799399
0.0714735
0.0714597
0.0714065
0.0713618
0.0712783
0.0711963
0.0710662
0.0709502
0.0707358
0.0706247
0.070208
0.0704301
0.087981
0.0735886
0.0713491
0.0713412
0.0712852
0.0712513
0.0711737
0.0710777
0.0709501
0.0707729
0.0705906
0.070305
0.0700089
0.0703465
0.0809027
0.0712444
0.071232
0.0711326
0.0710793
0.0709864
0.0708827
0.0707353
0.0705908
0.0703649
0.0701739
0.0696689
0.088597
0.076619
0.0710217
0.0710312
0.0709142
0.0709151
0.0708647
0.0707386
0.0706238
0.0703033
0.0701719
0.0690312
0.0685834
0.0830355
0.0709531
0.070954
0.0707401
0.07061
0.0705935
0.0704228
0.070205
0.0700052
0.0696641
0.0685797
0.0872382
0.070527
0.0706119
0.0702747
0.0703574
0.0704855
0.0703667
0.0704269
0.0703418
0.0885918
0.0830243
0.0706987
0.0708006
0.0705392
0.0699899
0.0703702
0.0699984
0.0879773
0.0808984
0.0766139
0.0698725
0.0701178
0.0689648
0.0686213
0.0857819
0.079939
0.0735863
0.0814285
0.0820111
0.0791647
0.0802056
0.0750067
0.0705975
0.0705849
0.0705591
0.070521
0.0704699
0.0704013
0.0703251
0.0702133
0.070123
0.069942
0.0698897
0.0695877
0.0697061
0.0692074
0.0803474
0.0705848
0.0705726
0.0705464
0.0705087
0.0704567
0.0703892
0.0703109
0.0702037
0.0701078
0.0699436
0.0698755
0.0696297
0.0697177
0.0692806
0.0807277
0.0705588
0.0705463
0.0705183
0.0704796
0.0704232
0.0703544
0.0702663
0.0701569
0.0700379
0.069859
0.0697567
0.0694344
0.0695883
0.0688328
0.0783956
0.0705205
0.0705084
0.0704795
0.0704416
0.0703833
0.0703161
0.0702231
0.0701222
0.0699837
0.0698444
0.0696543
0.0694751
0.0693915
0.068833
0.0806207
0.0704692
0.0704562
0.0704229
0.0703832
0.0703194
0.0702519
0.0701523
0.0700587
0.0699138
0.0698069
0.0696368
0.0695584
0.0695198
0.0852564
0.0751454
0.0704004
0.0703886
0.070354
0.0703159
0.0702518
0.0701819
0.070081
0.0699804
0.0698301
0.0697189
0.069516
0.0694856
0.0693922
0.0788701
0.070324
0.0703101
0.0702658
0.0702228
0.0701521
0.070081
0.0699765
0.0698892
0.0697353
0.0696784
0.0693974
0.0696235
0.0871198
0.0742878
0.0702121
0.0702029
0.0701563
0.0701218
0.0700585
0.0699802
0.0698891
0.0697708
0.0696535
0.0695271
0.0692959
0.0696243
0.0799491
0.0701216
0.0701068
0.0700371
0.0699833
0.0699134
0.0698298
0.0697347
0.0696531
0.0695962
0.0695405
0.0694545
0.0877336
0.0762626
0.0699404
0.0699425
0.0698582
0.0698439
0.0698065
0.0697182
0.0696773
0.0695251
0.0695398
0.0691724
0.0687035
0.0829347
0.069888
0.0698743
0.0697557
0.0696536
0.0696362
0.069515
0.069395
0.0692882
0.0694516
0.0686979
0.0891207
0.0695858
0.0696284
0.0694334
0.0694743
0.0695579
0.0694847
0.0696227
0.0696263
0.0877342
0.0829328
0.0697042
0.0697163
0.0695871
0.0693906
0.0695189
0.069391
0.0871181
0.0799483
0.0762608
0.0692053
0.0692791
0.0688315
0.0688318
0.0852554
0.078869
0.0742862
0.0803457
0.0807269
0.0783948
0.0806197
0.0751442
0.0694423
0.0694301
0.069406
0.0693702
0.0693226
0.0692599
0.069191
0.0690947
0.0690161
0.0688749
0.0688258
0.0686228
0.0686726
0.0684168
0.0793652
0.06943
0.0694185
0.069394
0.0693586
0.0693104
0.0692485
0.0691779
0.0690852
0.0690018
0.0688729
0.0688103
0.068642
0.0686655
0.0684414
0.0797079
0.0694056
0.0693939
0.0693682
0.0693321
0.0692809
0.0692184
0.069142
0.0690481
0.0689525
0.0688148
0.068735
0.0685209
0.0685628
0.0681408
0.0775536
0.0693697
0.0693583
0.069332
0.0692966
0.0692443
0.0691836
0.0691038
0.069017
0.0689076
0.0687982
0.0686669
0.0685526
0.0684437
0.0683427
0.0800421
0.069322
0.0693099
0.0692806
0.0692442
0.0691887
0.0691291
0.0690465
0.0689674
0.0688572
0.0687724
0.0686557
0.0685908
0.0685758
0.0842957
0.0744626
0.0692591
0.0692479
0.069218
0.0691834
0.069129
0.0690694
0.0689886
0.0689091
0.0687983
0.0687189
0.068592
0.0685546
0.0685809
0.0779273
0.06919
0.0691772
0.0691414
0.0691034
0.0690462
0.0689885
0.0689094
0.0688471
0.0687429
0.0687158
0.0685379
0.0687105
0.0862097
0.0737501
0.0690935
0.0690844
0.0690475
0.0690166
0.0689671
0.0689089
0.0688471
0.0687759
0.0687006
0.06866
0.0684994
0.0687545
0.079077
0.0690148
0.0690008
0.0689517
0.0689071
0.0688568
0.0687979
0.0687425
0.0687002
0.0687037
0.0686746
0.068738
0.0866289
0.0754768
0.0688734
0.0688718
0.0688139
0.0687975
0.0687719
0.0687182
0.0687151
0.0686591
0.0686741
0.0686247
0.0685813
0.0819396
0.0688241
0.0688091
0.068734
0.068666
0.0686549
0.0685909
0.0685366
0.0684971
0.0687372
0.0685787
0.0890809
0.068621
0.0686407
0.0685198
0.0685515
0.0685899
0.0685535
0.0687098
0.0687535
0.0866336
0.0819438
0.0686707
0.0686641
0.0685616
0.0684426
0.0685748
0.0685796
0.0862087
0.0790765
0.0754768
0.0684149
0.0684398
0.0681394
0.0683414
0.0842945
0.0779262
0.0737489
0.0793635
0.079707
0.0775528
0.0800411
0.0744613
0.0682966
0.0682853
0.0682632
0.0682305
0.0681872
0.0681316
0.0680702
0.0679897
0.0679205
0.0678133
0.0677618
0.0676342
0.067629
0.0675312
0.0783921
0.0682852
0.0682746
0.0682523
0.0682199
0.0681762
0.0681213
0.0680588
0.067981
0.0679083
0.0678096
0.0677487
0.0676414
0.0676178
0.0675552
0.0787229
0.0682629
0.0682522
0.068229
0.0681963
0.0681509
0.068096
0.0680305
0.0679525
0.0678739
0.0677706
0.0677034
0.0675621
0.0675715
0.0673439
0.0767193
0.0682301
0.0682197
0.0681962
0.0681643
0.0681186
0.0680657
0.0679984
0.0679264
0.0678393
0.0677562
0.0676567
0.0675925
0.0674657
0.0675458
0.0793074
0.0681866
0.0681757
0.0681506
0.0681185
0.0680715
0.0680205
0.067953
0.0678882
0.067804
0.0677375
0.0676567
0.0675995
0.0676095
0.0834821
0.073661
0.0681308
0.0681208
0.0680956
0.0680655
0.0680204
0.0679713
0.0679072
0.0678455
0.0677638
0.0677054
0.0676276
0.0675814
0.0676783
0.0769901
0.0680693
0.0680581
0.0680299
0.0679981
0.0679528
0.0679071
0.0678475
0.0678014
0.067728
0.0677109
0.0675874
0.0677288
0.0852625
0.0729139
0.0679887
0.0679802
0.0679519
0.0679259
0.0678879
0.0678453
0.0678013
0.0677553
0.0676976
0.0676826
0.0675626
0.0677999
0.0781331
0.0679193
0.0679073
0.0678731
0.0678387
0.0678035
0.0677634
0.0677276
0.0676973
0.067707
0.0676629
0.0677067
0.0855503
0.0745586
0.067812
0.0678085
0.0677697
0.0677554
0.0677369
0.0677048
0.0677104
0.0676821
0.0676627
0.0675609
0.0677516
0.0809722
0.0677603
0.0677475
0.0677025
0.0676556
0.0676558
0.0676267
0.0675866
0.0675615
0.0677082
0.06777
0.0885291
0.0676327
0.0676403
0.0675616
0.0675907
0.0675984
0.0675804
0.0677283
0.0677992
0.0855555
0.0809783
0.0676274
0.0676165
0.0675704
0.0674644
0.0676084
0.0676771
0.0852618
0.0781326
0.0745588
0.0675294
0.0675537
0.0673425
0.0675445
0.0834809
0.076989
0.0729129
0.0783908
0.0787222
0.0767185
0.0793064
0.0736597
0.0671609
0.0671506
0.0671306
0.0671013
0.0670626
0.0670147
0.0669606
0.0668949
0.0668334
0.0667544
0.0667008
0.0666267
0.0665875
0.0665865
0.0774211
0.0671505
0.067141
0.0671209
0.067092
0.0670531
0.0670057
0.0669511
0.0668873
0.0668236
0.0667501
0.0666902
0.0666294
0.0665734
0.0666053
0.0777436
0.0671303
0.0671208
0.0671003
0.0670714
0.0670317
0.0669849
0.0669289
0.0668655
0.0668
0.0667233
0.0666655
0.0665785
0.0665662
0.0664611
0.0758153
0.067101
0.0670917
0.0670713
0.0670434
0.0670041
0.0669592
0.0669028
0.0668444
0.0667742
0.0667122
0.0666329
0.0665986
0.0664825
0.0666447
0.0784749
0.0670621
0.0670527
0.0670315
0.067004
0.0669647
0.066922
0.0668671
0.0668146
0.0667491
0.0666965
0.0666385
0.0665906
0.0666144
0.0826303
0.0727882
0.0670141
0.0670052
0.0669845
0.066959
0.0669219
0.066882
0.066831
0.0667827
0.0667211
0.0666767
0.0666295
0.0665811
0.0667207
0.0760345
0.0669599
0.0669504
0.0669284
0.0669025
0.0668668
0.0668309
0.0667848
0.066749
0.0666941
0.0666832
0.0665881
0.0667115
0.0843061
0.0719937
0.066894
0.0668866
0.0668649
0.0668439
0.0668142
0.0667825
0.0667489
0.0667158
0.0666693
0.0666606
0.0665715
0.0668037
0.0771641
0.0668324
0.0668227
0.0667992
0.0667735
0.0667486
0.0667207
0.0666938
0.0666692
0.0666732
0.0666492
0.0666732
0.0845472
0.0736141
0.0667532
0.0667491
0.0667224
0.0667114
0.0666959
0.0666761
0.0666829
0.0666602
0.0666479
0.0665074
0.0668476
0.0800551
0.0666995
0.0666891
0.0666646
0.0666319
0.0666377
0.0666287
0.0665876
0.0665702
0.066665
0.0667583
0.0878232
0.0666254
0.0666282
0.0665775
0.0665975
0.0665897
0.0665801
0.0667111
0.0668035
0.0845514
0.0800471
0.0665861
0.066572
0.0665651
0.0664813
0.0666133
0.0667197
0.0843055
0.0771638
0.0736152
0.0665849
0.0666038
0.0664598
0.0666435
0.0826292
0.0760334
0.0719928
0.07742
0.0777429
0.0758145
0.0784739
0.0727869
0.0660345
0.0660257
0.0660079
0.0659824
0.0659482
0.0659077
0.0658604
0.0658078
0.0657533
0.0656965
0.0656425
0.0656024
0.0655436
0.0655881
0.0765245
0.0660256
0.0660172
0.0659994
0.0659741
0.06594
0.0659
0.0658525
0.0658015
0.0657456
0.0656925
0.0656341
0.0656033
0.0655301
0.0656002
0.0768399
0.0660077
0.0659993
0.0659814
0.0659564
0.0659222
0.0658829
0.0658353
0.0657848
0.0657293
0.0656731
0.0656207
0.0655676
0.06554
0.065493
0.0749282
0.0659821
0.0659739
0.0659563
0.0659325
0.065899
0.0658616
0.0658145
0.065768
0.0657104
0.0656647
0.0655984
0.0655847
0.0654721
0.0656532
0.0776459
0.0659478
0.0659396
0.065922
0.0658989
0.0658662
0.065831
0.0657862
0.0657439
0.0656916
0.0656495
0.0656039
0.065561
0.0655833
0.0818255
0.0719449
0.0659071
0.0658996
0.0658826
0.0658613
0.0658309
0.0657987
0.0657576
0.0657194
0.0656712
0.0656361
0.0656043
0.0655545
0.0657033
0.0751213
0.0658597
0.0658519
0.0658349
0.0658142
0.0657859
0.0657575
0.0657206
0.0656917
0.0656477
0.0656391
0.0655596
0.0656593
0.0834464
0.0711177
0.065807
0.0658008
0.0657842
0.0657675
0.0657435
0.0657191
0.0656916
0.0656656
0.0656267
0.0656166
0.0655473
0.0657592
0.0762551
0.0657524
0.0657448
0.0657286
0.0657097
0.0656911
0.0656708
0.0656474
0.0656269
0.0656204
0.0656169
0.0656053
0.0836862
0.0727498
0.0656955
0.0656916
0.0656723
0.065664
0.0656489
0.0656354
0.0656391
0.0656176
0.0656232
0.0654738
0.0656835
0.0791942
0.0656414
0.065633
0.0656198
0.0655974
0.065603
0.0656036
0.0655595
0.0655502
0.065633
0.0658784
0.087077
0.0656013
0.065602
0.0655665
0.0655836
0.06556
0.0655534
0.0656589
0.06576
0.0837006
0.0792394
0.0655424
0.0655288
0.065539
0.065471
0.0655822
0.0657022
0.0834458
0.0762548
0.0727527
0.0655868
0.0655988
0.0654918
0.065652
0.0818244
0.0751202
0.0711167
0.0765237
0.0768394
0.0749276
0.077645
0.0719437
0.0649128
0.0785927
0.065529
0.0780707
0.0672316
0.0777047
0.0676451
0.0756803
0.0661793
0.0685432
0.0685394
0.0690357
0.0808221
0.0666546
0.0788217
0.0712573
0.0795085
0.0679243
0.0792936
0.0656325
0.0596964
0.0674032
0.0688551
0.0788408
0.0573208
0.0664647
0.066923
0.0682411
0.0669773
0.0753958
0.0604776
0.0648406
0.0666518
0.0747588
0.0555205
0.0757319
0.0760183
0.0583512
0.0753696
0.0601021
0.0601763
0.0604955
0.0666723
0.0648568
0.0747708
0.0757512
0.0583986
0.0760329
0.0597017
0.0688657
0.0674082
0.0788475
0.0669268
0.0670052
0.0682473
0.0555365
0.0690378
0.0666572
0.0808246
0.0788243
0.0679279
0.0656362
0.0792963
0.0573258
0.0664709
0.0754011
0.0649136
0.0655197
0.0785931
0.0780699
0.0672312
0.0676462
0.0777081
0.0756816
0.0661812
0.0685457
0.0685413
0.0712599
0.079511
0.0867906
0.0978142
0.0871488
0.0673293
0.0779908
0.0678913
0.0776619
0.0874074
0.0957368
0.0695208
0.0774295
0.0698446
0.0982192
0.077083
0.0666865
0.0961013
0.0688128
0.0688627
0.0846963
0.0971896
0.0869037
0.0706056
0.0806497
0.0686835
0.0782041
0.0861017
0.0712124
0.078747
0.0868691
0.0975541
0.0697614
0.0783509
0.0684701
0.0965416
0.0952893
0.0865124
0.0631147
0.0694005
0.0702365
0.0791378
0.0983693
0.0587504
0.0667354
0.0967709
0.0964637
0.069336
0.0684727
0.0698134
0.0751212
0.0991619
0.0972038
0.0906937
0.0639006
0.0672428
0.0686911
0.0745582
0.0571635
0.0889333
0.105856
0.077086
0.0760272
0.0590609
0.10432
0.104268
0.0769089
0.0607542
0.0608186
0.097207
0.0991705
0.0907007
0.0639149
0.0687045
0.0672542
0.0745689
0.105827
0.0889397
0.0771022
0.0591027
0.0760385
0.0952949
0.0965457
0.086518
0.0631209
0.0702441
0.0694058
0.0791436
0.0964712
0.0967763
0.0693432
0.0698251
0.0684789
0.0571746
0.0971909
0.0846983
0.0869056
0.0706078
0.0686861
0.080652
0.0782066
0.0975566
0.0868713
0.0697647
0.0684738
0.0783533
0.0983736
0.0587552
0.0667412
0.0751268