/*--------------------------------*- C++ -*----------------------------------*\
| =========                 |                                                 |
| \\      /  F ield         | OpenFOAM: The Open Source CFD Toolbox           |
|  \\    /   O peration     | Version:  2.1.1                                 |
|   \\  /    A nd           | Web:      www.OpenFOAM.org                      |
|    \\/     M anipulation  |                                                 |
\*---------------------------------------------------------------------------*/
FoamFile
{
    version     2.0;
    format      ascii;
    class       surfaceScalarField;
    location    "0.0025";
    object      phi;
}
// * * * * * * * * * * * * * * * * * * * * * * * * * * * * * * * * * * * * * //

dimensions      [0 3 -1 0 0 0 0];

internalField   nonuniform List<scalar> 
29937
(
-2.31229e-13
-2.3101e-13
1.17572e-09
-4.89055e-13
-2.24677e-13
1.17531e-09
-7.65127e-13
-2.33203e-13
1.175e-09
-1.09572e-12
-2.17679e-13
1.17491e-09
-1.4746e-12
-2.3256e-13
1.17512e-09
-1.94932e-12
-1.86102e-13
1.17571e-09
-2.45613e-12
-2.34769e-13
1.17661e-09
-3.11083e-12
-9.00955e-14
1.17824e-09
-3.73828e-12
-2.93008e-13
1.18e-09
-4.89363e-12
1.54904e-13
1.18282e-09
-6.08082e-12
-7.80213e-13
1.18338e-09
-6.80862e-12
7.51833e-13
1.19726e-09
-5.09476e-12
-1.88363e-13
1.22153e-09
6.85738e-11
2.33609e-12
9.82513e-10
6.89401e-11
-6.70025e-11
-6.70678e-11
-4.32495e-11
1.8553e-12
9.88525e-11
-9.60191e-12
1.50964e-11
1.51202e-11
-9.49868e-12
-2.2552e-13
-4.88854e-13
1.17534e-09
-4.77136e-13
-4.7674e-13
1.17515e-09
-7.52377e-13
-4.91147e-13
1.17495e-09
-1.07645e-12
-4.62226e-13
1.17493e-09
-1.44151e-12
-4.90377e-13
1.1752e-09
-1.88874e-12
-4.10242e-13
1.17579e-09
-2.36111e-12
-5.02295e-13
1.17673e-09
-2.98313e-12
-2.45963e-13
1.1783e-09
-3.6299e-12
-6.16006e-13
1.18005e-09
-4.8938e-12
3.19557e-13
1.18288e-09
-5.83609e-12
-1.49421e-12
1.18751e-09
-6.17282e-12
2.02938e-12
1.21371e-09
-4.59313e-12
-1.52251e-12
1.20329e-09
6.96609e-11
4.96223e-11
7.98993e-10
7.22813e-11
-6.58663e-11
-7.0686e-11
7.46801e-11
-4.69862e-11
-7.03178e-11
-4.50657e-11
-6.58599e-12
1.53184e-11
9.56721e-11
-1.07972e-11
1.56406e-11
1.60494e-11
-1.05711e-11
-2.34746e-13
-7.65152e-13
1.17501e-09
-4.92382e-13
-7.51627e-13
1.17502e-09
-7.78568e-13
-7.77127e-13
1.17504e-09
-1.10947e-12
-7.3293e-13
1.17507e-09
-1.51613e-12
-7.48159e-13
1.17548e-09
-1.97909e-12
-6.42671e-13
1.17614e-09
-2.58458e-12
-6.59968e-13
1.17735e-09
-3.19567e-12
-3.79223e-13
1.17896e-09
-4.17211e-12
-4.44466e-13
1.18156e-09
-5.13404e-12
4.89959e-13
1.18476e-09
-5.95726e-12
-3.0544e-13
1.19534e-09
-2.45773e-12
1.51886e-12
1.20388e-09
4.78631e-11
2.24347e-12
9.64143e-10
6.15331e-11
-4.67381e-11
-6.06447e-11
-5.79783e-11
1.61755e-11
8.25701e-12
1.31031e-10
-3.9622e-11
-2.19527e-11
6.7115e-11
-1.91324e-11
-8.8702e-12
1.03552e-11
1.25653e-11
-8.11156e-12
-1.11297e-11
1.10518e-11
1.60288e-11
-8.29751e-12
-2.18452e-13
-1.09537e-12
1.17492e-09
-4.62985e-13
-1.07531e-12
1.17495e-09
-7.34233e-13
-1.10687e-12
1.17513e-09
-1.04786e-12
-1.04558e-12
1.17526e-09
-1.4266e-12
-1.05475e-12
1.17574e-09
-1.83336e-12
-9.60725e-13
1.17634e-09
-2.34355e-12
-9.15099e-13
1.17756e-09
-2.79585e-12
-7.19522e-13
1.17897e-09
-3.56078e-12
-5.14361e-13
1.18114e-09
-4.31487e-12
-3.02398e-14
1.18319e-09
-5.23652e-12
2.1582e-13
1.19404e-09
-2.05797e-12
-4.87816e-14
1.21197e-09
6.44159e-11
2.61978e-12
9.69388e-10
6.67242e-11
-6.28587e-11
-6.5118e-11
-4.97795e-11
-5.34467e-12
1.8102e-11
1.1421e-12
1.00296e-10
2.16413e-12
-3.38168e-13
-1.36047e-11
2.43657e-12
-1.61706e-14
9.3584e-12
-2.32702e-13
-1.47381e-12
1.17512e-09
-4.90996e-13
-1.43982e-12
1.1752e-09
-7.50669e-13
-1.51246e-12
1.1755e-09
-1.05867e-12
-1.42269e-12
1.17574e-09
-1.4454e-12
-1.44014e-12
1.17644e-09
-1.86382e-12
-1.34542e-12
1.17712e-09
-2.39668e-12
-1.26695e-12
1.1785e-09
-2.88722e-12
-1.07014e-12
1.17982e-09
-3.51601e-12
-7.74169e-13
1.18198e-09
-4.50755e-12
-4.75957e-13
1.18288e-09
-5.42934e-12
2.81915e-13
1.19661e-09
-3.08093e-12
-5.91538e-13
1.22204e-09
6.66083e-11
4.41076e-12
9.79955e-10
6.75376e-11
-6.56259e-11
-6.52408e-11
-5.67043e-11
1.77955e-11
-5.55317e-12
1.09018e-10
2.05204e-12
1.44282e-13
-9.12328e-13
-1.32882e-11
1.23127e-12
1.39004e-12
1.14349e-11
-1.84272e-13
-1.94744e-12
1.17572e-09
-4.08562e-13
-1.88743e-12
1.17579e-09
-6.44156e-13
-1.97456e-12
1.17615e-09
-9.64833e-13
-1.82823e-12
1.17635e-09
-1.35091e-12
-1.85634e-12
1.1771e-09
-1.77144e-12
-1.76562e-12
1.17786e-09
-2.27462e-12
-1.64268e-12
1.17937e-09
-2.63526e-12
-1.54376e-12
1.18054e-09
-3.34155e-12
-1.03387e-12
1.1817e-09
-3.97514e-12
-1.45856e-12
1.18433e-09
-5.03795e-12
1.92882e-13
1.20699e-09
-3.62941e-12
-6.81693e-13
1.19678e-09
6.71218e-11
4.69087e-11
8.08697e-10
6.79963e-11
-6.40695e-11
-6.59908e-11
6.70248e-11
-4.46896e-11
-6.25827e-11
-4.97336e-11
-1.84097e-13
6.1229e-12
1.02027e-10
-9.8536e-12
1.3978e-11
1.44442e-11
-9.67945e-12
-2.29914e-13
-2.45352e-12
1.17662e-09
-4.99533e-13
-2.35824e-12
1.17673e-09
-6.61439e-13
-2.58014e-12
1.17735e-09
-9.21594e-13
-2.33914e-12
1.17758e-09
-1.27762e-12
-2.38726e-12
1.1785e-09
-1.65512e-12
-2.26583e-12
1.17934e-09
-2.13031e-12
-2.11917e-12
1.18111e-09
-2.68958e-12
-2.04423e-12
1.18193e-09
-2.9321e-12
-2.15409e-12
1.18392e-09
-4.65443e-12
-1.5055e-12
1.19514e-09
-1.25588e-12
-2.28102e-12
1.20522e-09
4.76754e-11
2.96971e-12
9.45622e-10
6.20999e-11
-4.69364e-11
-6.11931e-11
-6.03228e-11
1.39831e-11
6.09597e-12
1.34828e-10
1.11157e-11
-1.16105e-11
-1.29098e-11
2.61925e-12
1.0451e-12
9.74028e-12
-8.40672e-14
-3.10609e-12
1.17825e-09
-2.34255e-13
-2.98667e-12
1.1783e-09
-3.69676e-13
-3.19369e-12
1.17895e-09
-7.21094e-13
-2.7912e-12
1.17899e-09
-1.07987e-12
-2.8764e-12
1.17983e-09
-1.55681e-12
-2.62353e-12
1.18053e-09
-2.0569e-12
-2.67406e-12
1.18192e-09
-2.70359e-12
-2.69428e-12
1.18354e-09
-3.98108e-12
-2.71683e-12
1.19507e-09
-3.63996e-12
-1.87088e-12
1.22412e-09
-2.08738e-12
-8.88177e-13
1.19114e-09
6.42524e-11
4.64607e-11
8.23195e-10
6.4358e-11
-6.13549e-11
-6.18927e-11
6.82823e-11
-4.52463e-11
-6.38395e-11
-4.49088e-11
-2.99402e-12
7.18827e-12
9.63795e-11
-9.60523e-12
1.20644e-11
1.37212e-11
-7.59328e-12
-1.91707e-13
-6.56719e-13
-1.53219e-12
2.38062e-12
-2.81109e-13
-3.73087e-12
1.18e-09
-6.08475e-13
-3.63345e-12
1.18005e-09
-4.45738e-13
-4.17117e-12
1.18156e-09
-5.20409e-13
-3.56013e-12
1.18115e-09
-7.85381e-13
-3.5109e-12
1.18202e-09
-1.05282e-12
-3.32994e-12
1.18173e-09
-2.17347e-12
-2.91716e-12
1.18398e-09
-2.74877e-12
-3.96108e-12
1.19516e-09
-2.75747e-12
-2.74968e-12
1.22758e-09
-1.60026e-12
-1.83157e-12
1.18105e-09
4.46118e-11
4.93038e-11
7.63421e-10
6.79575e-11
-4.40816e-11
-6.52582e-11
6.72938e-11
-4.63935e-11
-6.44437e-11
-7.1083e-11
5.41047e-12
8.92198e-12
1.47823e-10
9.07741e-12
-1.10544e-11
-1.05277e-11
-1.18689e-12
1.24588e-12
1.24457e-11
1.78323e-13
-4.88481e-12
1.18282e-09
3.43057e-13
-4.90145e-12
1.18286e-09
5.00519e-13
-5.13983e-12
1.18476e-09
-2.78219e-14
-4.31689e-12
1.18318e-09
-4.83568e-13
-4.50645e-12
1.1829e-09
-1.47439e-12
-3.96795e-12
1.18436e-09
-1.53068e-12
-4.63892e-12
1.19521e-09
-1.87712e-12
-3.63114e-12
1.22432e-09
-1.83511e-12
-1.59941e-12
1.18114e-09
5.04892e-11
5.05416e-11
7.70024e-10
6.83416e-11
-4.82558e-11
-6.67211e-11
6.84564e-11
-4.83062e-11
-6.68241e-11
-6.22003e-11
1.5232e-11
1.55061e-11
1.31256e-10
-3.45993e-11
-1.9178e-11
6.07782e-11
-1.83514e-11
-9.52761e-12
1.40795e-11
1.21754e-11
-1.04928e-11
-7.65077e-12
9.03892e-12
1.06137e-11
-6.88601e-12
-7.60104e-13
-6.06746e-12
1.18336e-09
-1.47438e-12
-5.84807e-12
1.18747e-09
-3.01802e-13
-5.96213e-12
1.19532e-09
2.13949e-13
-5.23988e-12
1.19402e-09
2.71564e-13
-5.4321e-12
1.19662e-09
1.73183e-13
-5.03325e-12
1.20704e-09
-2.30151e-12
-1.25142e-12
1.20535e-09
-9.0126e-13
-2.08157e-12
1.19155e-09
4.92949e-11
4.45862e-11
7.6395e-10
6.79493e-11
-4.40618e-11
-6.52531e-11
6.73225e-11
-4.63715e-11
-6.44781e-11
-6.22616e-11
1.54979e-11
1.52347e-11
1.31366e-10
-3.63138e-11
6.46107e-11
-1.89325e-11
-1.89402e-11
-8.49742e-12
9.65979e-12
1.13065e-11
-7.68867e-12
-8.5149e-12
9.69164e-12
1.13354e-11
-7.71655e-12
7.71914e-13
-6.79648e-12
1.1972e-09
2.05014e-12
-6.18501e-12
1.21362e-09
1.51561e-12
-2.45762e-12
1.20381e-09
-3.63841e-14
-2.05873e-12
1.21192e-09
-5.92392e-13
-3.08834e-12
1.22206e-09
-6.898e-13
-3.62763e-12
1.19683e-09
2.95953e-12
4.767e-11
9.45715e-10
6.20948e-11
-4.69301e-11
-6.11854e-11
4.6471e-11
6.4246e-11
8.23337e-10
6.82894e-11
-4.52587e-11
-6.38461e-11
6.43507e-11
-6.13489e-11
-6.18899e-11
-7.1098e-11
8.9198e-12
5.40107e-12
1.47835e-10
-3.46378e-11
-1.91667e-11
6.07893e-11
-1.83307e-11
-7.65636e-12
9.05187e-12
1.06168e-11
-6.89212e-12
-9.52693e-12
1.40722e-11
1.21717e-11
-1.04913e-11
-1.78758e-13
-5.08002e-12
1.22139e-09
-1.50602e-12
-4.61011e-12
1.20311e-09
2.22882e-12
4.78528e-11
9.64108e-10
6.15233e-11
-4.67256e-11
-6.06418e-11
2.63017e-12
6.44125e-11
9.69345e-10
6.67193e-11
-6.28511e-11
-6.5117e-11
4.41716e-12
6.66048e-11
9.79957e-10
6.75327e-11
-6.56232e-11
-6.52389e-11
4.69082e-11
6.71193e-11
8.08711e-10
6.70239e-11
-4.46903e-11
-6.25798e-11
6.79929e-11
-6.40657e-11
-6.5988e-11
-6.03187e-11
6.09702e-12
1.39801e-11
1.3482e-10
-4.48991e-11
-2.99449e-12
7.18406e-12
9.63686e-11
-9.60476e-12
1.20632e-11
1.37212e-11
-7.5931e-12
9.07681e-12
-1.05259e-11
-1.10552e-11
1.24655e-12
-1.1871e-12
1.24449e-11
2.34273e-12
6.85719e-11
9.82212e-10
6.88936e-11
-6.69891e-11
-6.70368e-11
4.96411e-11
6.96356e-11
7.98728e-10
7.22646e-11
-6.58298e-11
-7.06753e-11
7.46926e-11
-4.6999e-11
-7.03261e-11
-5.79687e-11
8.26707e-12
1.61722e-11
1.31024e-10
-4.97765e-11
-5.34774e-12
1.14446e-12
1.81009e-11
1.00292e-10
-5.67016e-11
-5.55107e-12
1.77919e-11
1.09015e-10
2.05063e-12
-4.97326e-11
-1.84733e-13
6.12285e-12
1.02024e-10
-9.85333e-12
1.39775e-11
1.44435e-11
-9.679e-12
1.11153e-11
-1.2909e-11
-1.16102e-11
1.04509e-12
2.61909e-12
9.73973e-12
-1.91565e-13
-1.53234e-12
-6.565e-13
2.3804e-12
-4.32361e-11
1.85844e-12
9.88243e-11
-9.59683e-12
1.51043e-11
1.51099e-11
-9.49987e-12
-4.50308e-11
-6.58951e-12
1.53265e-11
9.56153e-11
-1.0793e-11
1.56285e-11
1.60412e-11
-1.05629e-11
-3.96191e-11
-2.19569e-11
6.7113e-11
-1.91311e-11
-1.11296e-11
1.10527e-11
1.60295e-11
-8.29824e-12
-8.87008e-12
1.03554e-11
1.25652e-11
-8.11083e-12
2.16411e-12
-3.38156e-13
-1.36043e-11
-1.59962e-14
2.43635e-12
9.358e-12
1.44313e-13
-1.32878e-11
-9.12206e-13
1.39004e-12
1.23116e-12
1.14345e-11
-4.65702e-14
-4.72527e-14
1.17583e-09
-1.06119e-13
-4.57098e-14
1.17542e-09
-1.67652e-13
-5.01022e-14
1.17512e-09
-2.39827e-13
-4.49692e-14
1.17504e-09
-3.23033e-13
-5.33235e-14
1.17526e-09
-4.24954e-13
-3.59496e-14
1.17585e-09
-5.26171e-13
-6.5048e-14
1.17679e-09
-6.47225e-13
-2.88889e-15
1.17837e-09
-6.85893e-13
-1.18655e-13
1.18016e-09
-8.52542e-13
1.78925e-13
1.18281e-09
-1.05379e-12
-4.39629e-13
1.18402e-09
-2.0985e-12
5.21679e-13
1.19778e-09
-8.60452e-13
-1.12834e-12
1.22142e-09
6.6815e-11
1.48726e-12
9.78777e-10
6.71528e-11
-6.62384e-11
-6.63472e-11
-4.40201e-11
1.70739e-12
9.97114e-11
-9.94624e-12
1.45915e-11
1.46216e-11
-9.84871e-12
-4.53086e-14
-1.06948e-13
1.17545e-09
-1.02268e-13
-1.02798e-13
1.17526e-09
-1.64419e-13
-1.09276e-13
1.17507e-09
-2.35801e-13
-1.00032e-13
1.17506e-09
-3.15134e-13
-1.15514e-13
1.17534e-09
-4.08423e-13
-8.72466e-14
1.17593e-09
-4.97732e-13
-1.43415e-13
1.17689e-09
-5.93438e-13
-4.32517e-14
1.17844e-09
-6.45687e-13
-2.72294e-13
1.18026e-09
-9.4914e-13
3.08288e-13
1.18305e-09
-1.38494e-12
-8.48689e-13
1.18836e-09
-2.86338e-12
1.98742e-12
1.21372e-09
-1.65665e-12
-2.48935e-12
1.20344e-09
6.73498e-11
4.83878e-11
7.95267e-10
7.05573e-11
-6.54374e-11
-7.00441e-11
7.2503e-11
-4.84525e-11
-7.13081e-11
-4.60852e-11
-6.25975e-12
1.45808e-11
9.65472e-11
-1.11317e-11
1.50727e-11
1.55643e-11
-1.09389e-11
-5.03435e-14
-1.68552e-13
1.17513e-09
-1.09765e-13
-1.64527e-13
1.17514e-09
-1.76164e-13
-1.7522e-13
1.17518e-09
-2.48134e-13
-1.64576e-13
1.17521e-09
-3.47477e-13
-1.74389e-13
1.17564e-09
-4.41683e-13
-1.43419e-13
1.17629e-09
-5.96123e-13
-1.67251e-13
1.17753e-09
-6.65336e-13
-8.48642e-14
1.17907e-09
-9.29156e-13
-1.72657e-13
1.18173e-09
-9.4607e-13
2.24566e-13
1.18486e-09
-2.05254e-12
-1.08222e-13
1.19571e-09
4.09829e-13
1.10154e-12
1.2023e-09
4.71289e-11
8.46338e-13
9.61596e-10
6.08727e-11
-4.76811e-11
-6.06988e-11
-5.95531e-11
1.48801e-11
6.57016e-12
1.33619e-10
-4.03407e-11
-2.05178e-11
6.75289e-11
-1.77058e-11
-9.09174e-12
1.00895e-11
1.20845e-11
-8.34408e-12
-1.13461e-11
1.05943e-11
1.54889e-11
-8.43983e-12
-4.45715e-14
-2.40441e-13
1.17504e-09
-1.00052e-13
-2.35549e-13
1.17508e-09
-1.65417e-13
-2.46346e-13
1.17527e-09
-2.36098e-13
-2.34391e-13
1.1754e-09
-3.31688e-13
-2.37227e-13
1.1759e-09
-4.1235e-13
-2.213e-13
1.1765e-09
-5.47279e-13
-2.04126e-13
1.17774e-09
-5.68202e-13
-1.9504e-13
1.1791e-09
-7.58705e-13
-1.1953e-13
1.18128e-09
-6.44615e-13
-1.03031e-13
1.18341e-09
-1.79531e-12
3.19764e-13
1.19476e-09
1.00306e-12
-4.4279e-13
1.21072e-09
6.36346e-11
1.61086e-12
9.68008e-10
6.5485e-11
-6.27161e-11
-6.47837e-11
-5.05234e-11
-4.79504e-12
1.66757e-11
9.02293e-13
1.01375e-10
1.82107e-12
-3.24968e-13
-1.32829e-11
2.41384e-12
8.66393e-15
9.36432e-12
-5.24438e-14
-3.23477e-13
1.17526e-09
-1.1553e-13
-3.14441e-13
1.17535e-09
-1.75953e-13
-3.45097e-13
1.17566e-09
-2.40203e-13
-3.28757e-13
1.1759e-09
-3.36279e-13
-3.31913e-13
1.17664e-09
-4.23876e-13
-3.21897e-13
1.17731e-09
-5.66738e-13
-2.94901e-13
1.17873e-09
-6.37641e-13
-2.86975e-13
1.17998e-09
-7.18124e-13
-1.67292e-13
1.18211e-09
-7.89516e-13
-2.02443e-13
1.18305e-09
-1.76182e-12
5.25641e-13
1.19737e-09
-2.98346e-14
-1.4404e-12
1.22131e-09
6.49346e-11
2.74525e-12
9.77601e-10
6.62496e-11
-6.55095e-11
-6.44848e-11
-5.73971e-11
1.58524e-11
-5.62505e-12
1.10106e-10
1.99827e-12
-1.57812e-13
-9.08647e-13
-1.29721e-11
1.21258e-12
1.40116e-12
1.14248e-11
-3.39756e-14
-4.24688e-13
1.17586e-09
-8.57403e-14
-4.08306e-13
1.17594e-09
-1.43937e-13
-4.39462e-13
1.1763e-09
-2.23667e-13
-4.09397e-13
1.17651e-09
-3.26206e-13
-4.18505e-13
1.17729e-09
-4.30086e-13
-4.25605e-13
1.17807e-09
-5.86305e-13
-3.75932e-13
1.1796e-09
-6.13774e-13
-4.30923e-13
1.18071e-09
-8.61685e-13
-5.60488e-14
1.18184e-09
-9.0743e-13
-5.28312e-13
1.1847e-09
-2.39734e-12
1.23978e-12
1.20776e-09
-1.58074e-12
-2.03053e-12
1.19656e-09
6.49429e-11
4.61267e-11
8.06143e-10
6.71475e-11
-6.40564e-11
-6.59833e-11
6.59679e-11
-4.63886e-11
-6.40385e-11
-5.05135e-11
2.63589e-13
4.88023e-12
1.03009e-10
-1.01699e-11
1.34722e-11
1.40325e-11
-1.00317e-11
-6.10387e-14
-5.25598e-13
1.17679e-09
-1.40863e-13
-4.98272e-13
1.1769e-09
-1.66999e-13
-5.96021e-13
1.17754e-09
-2.07597e-13
-5.44431e-13
1.17776e-09
-3.01128e-13
-5.61397e-13
1.17873e-09
-3.83687e-13
-5.80002e-13
1.17957e-09
-5.01882e-13
-4.95607e-13
1.18135e-09
-6.47594e-13
-4.64091e-13
1.18211e-09
-4.3148e-13
-5.12694e-13
1.18416e-09
-1.86251e-12
2.27279e-13
1.19581e-09
1.67617e-12
-1.89186e-12
1.20482e-09
4.65819e-11
2.72802e-12
9.43718e-10
6.10927e-11
-4.77801e-11
-6.10728e-11
-6.19288e-11
1.19011e-11
4.7762e-12
1.3796e-10
9.80837e-12
-1.10909e-11
-1.22414e-11
2.42291e-12
8.29111e-13
1.02719e-11
5.27206e-15
-6.45286e-13
1.17838e-09
-3.7381e-14
-5.95885e-13
1.17844e-09
-8.88463e-14
-6.65192e-13
1.17908e-09
-1.96816e-13
-5.73607e-13
1.17913e-09
-2.92578e-13
-6.34594e-13
1.18e-09
-4.39129e-13
-6.06921e-13
1.1807e-09
-4.74762e-13
-6.41161e-13
1.1821e-09
-5.88393e-13
-5.89712e-13
1.18378e-09
-1.55889e-12
-2.73304e-13
1.19581e-09
-1.47988e-12
-4.91236e-13
1.22476e-09
-1.36813e-12
-4.18712e-13
1.18956e-09
6.26379e-11
4.53014e-11
8.20672e-10
6.36532e-11
-6.18134e-11
-6.23211e-11
6.75729e-11
-4.68035e-11
-6.4343e-11
-4.59144e-11
-2.29894e-12
5.82339e-12
9.80616e-11
-9.95872e-12
1.15411e-11
1.33578e-11
-7.97414e-12
-2.35743e-13
-5.92049e-13
-1.52519e-12
2.35298e-12
-1.08435e-13
-6.81525e-13
1.18016e-09
-2.64625e-13
-6.4969e-13
1.18026e-09
-1.75971e-13
-9.30474e-13
1.18174e-09
-1.40489e-13
-7.5742e-13
1.1813e-09
-1.96957e-13
-7.15516e-13
1.18216e-09
-7.99282e-14
-8.61542e-13
1.18187e-09
-5.21966e-13
-4.47059e-13
1.18423e-09
-2.71788e-13
-1.55868e-12
1.19588e-09
-7.57221e-13
-6.5184e-13
1.22844e-09
7.35432e-13
-1.13652e-13
1.17918e-09
4.31568e-11
4.83323e-11
7.61919e-10
6.71021e-11
-4.5161e-11
-6.47937e-11
6.59071e-11
-4.77577e-11
-6.49671e-11
-7.27895e-11
3.29779e-12
7.10057e-12
1.50849e-10
7.92174e-12
-1.05749e-11
-9.91826e-12
-1.39384e-12
1.04302e-12
1.29223e-11
1.99716e-13
-8.4709e-13
1.1828e-09
3.24159e-13
-9.56899e-13
1.18304e-09
2.34733e-13
-9.56778e-13
1.18487e-09
-1.02466e-13
-6.46881e-13
1.18341e-09
-2.03816e-13
-7.93718e-13
1.18308e-09
-5.40558e-13
-9.06547e-13
1.18474e-09
1.82477e-13
-1.85554e-12
1.1959e-09
-5.98375e-13
-1.46122e-12
1.22501e-09
-1.10274e-13
7.2317e-13
1.17927e-09
4.96771e-11
4.9728e-11
7.68874e-10
6.73584e-11
-4.95638e-11
-6.70113e-11
6.74715e-11
-4.96157e-11
-6.71165e-11
-6.38645e-11
1.3895e-11
1.39529e-11
1.34026e-10
-3.55823e-11
-1.78352e-11
6.1269e-11
-1.72104e-11
-9.76474e-12
1.36794e-11
1.20115e-11
-1.08113e-11
-7.92119e-12
8.78346e-12
1.04489e-11
-7.06724e-12
-4.18469e-13
-1.04792e-12
1.184e-09
-8.28117e-13
-1.39728e-12
1.18832e-09
-1.08944e-13
-2.06345e-12
1.19571e-09
3.21168e-13
-1.80368e-12
1.19474e-09
5.18651e-13
-1.76743e-12
1.1974e-09
1.22528e-12
-2.39777e-12
1.20783e-09
-1.90951e-12
1.682e-12
1.20495e-09
-4.21298e-13
-1.36243e-12
1.18996e-09
4.83177e-11
4.31345e-11
7.62435e-10
6.70961e-11
-4.51399e-11
-6.47888e-11
6.59392e-11
-4.77399e-11
-6.50025e-11
-6.39317e-11
1.3946e-11
1.3889e-11
1.34143e-10
-3.72975e-11
6.53461e-11
-1.79131e-11
-1.79212e-11
-8.76983e-12
9.38869e-12
1.1158e-11
-7.89024e-12
-8.7881e-12
9.42036e-12
1.11853e-11
-7.91854e-12
5.69061e-13
-2.09921e-12
1.19771e-09
2.01213e-12
-2.88321e-12
1.21366e-09
1.12013e-12
3.95643e-13
1.20225e-09
-4.34449e-13
9.98637e-13
1.21067e-09
-1.43881e-12
-3.46904e-14
1.22133e-09
-2.03643e-12
-1.57871e-12
1.19661e-09
2.72066e-12
4.65763e-11
9.43815e-10
6.10872e-11
-4.77742e-11
-6.10647e-11
4.53158e-11
6.26307e-11
8.20808e-10
6.75794e-11
-4.68144e-11
-6.43495e-11
6.36492e-11
-6.18064e-11
-6.23172e-11
-7.28057e-11
7.10237e-12
3.29075e-12
1.50863e-10
-3.56135e-11
-1.78272e-11
6.12807e-11
-1.71925e-11
-7.92683e-12
8.79563e-12
1.04513e-11
-7.07386e-12
-9.76392e-12
1.3672e-11
1.20079e-11
-1.08097e-11
-1.10282e-12
-8.62351e-13
1.22129e-09
-2.46355e-12
-1.68714e-12
1.20327e-09
8.52176e-13
4.71196e-11
9.61571e-10
6.08641e-11
-4.76702e-11
-6.06964e-11
1.6136e-12
6.36285e-11
9.67966e-10
6.54814e-11
-6.27099e-11
-6.47826e-11
2.74543e-12
6.49321e-11
9.77602e-10
6.62456e-11
-6.55075e-11
-6.44828e-11
4.61277e-11
6.49399e-11
8.06161e-10
6.59664e-11
-4.63902e-11
-6.4038e-11
6.7145e-11
-6.40537e-11
-6.59808e-11
-6.19274e-11
4.77733e-12
1.18992e-11
1.37955e-10
-4.59131e-11
-2.29923e-12
5.82147e-12
9.80566e-11
-9.95842e-12
1.15399e-11
1.33574e-11
-7.97414e-12
7.92079e-12
-9.91626e-12
-1.05753e-11
1.04264e-12
-1.39357e-12
1.29217e-11
1.51373e-12
6.68126e-11
9.78494e-10
6.71041e-11
-6.62269e-11
-6.63281e-11
4.84075e-11
6.73257e-11
7.94992e-10
7.05429e-11
-6.5409e-11
-7.00386e-11
7.25155e-11
-4.84642e-11
-7.13175e-11
-5.95448e-11
6.57918e-12
1.48786e-11
1.33614e-10
-5.05217e-11
-4.79882e-12
9.03831e-13
1.66738e-11
1.01371e-10
-5.7395e-11
-5.62334e-12
1.58496e-11
1.10103e-10
1.99746e-12
-5.05128e-11
2.63182e-13
4.87975e-12
1.03006e-10
-1.01696e-11
1.34717e-11
1.4032e-11
-1.00314e-11
9.80798e-12
-1.22406e-11
-1.10905e-11
8.28973e-13
2.42282e-12
1.02714e-11
-2.35746e-13
-1.52524e-12
-5.919e-13
2.35289e-12
-4.40029e-11
1.71628e-12
9.968e-11
-9.94139e-12
1.45991e-11
1.46107e-11
-9.8497e-12
-4.60514e-11
-6.26412e-12
1.45882e-11
9.64921e-11
-1.11276e-11
1.50616e-11
1.55574e-11
-1.0931e-11
-4.03378e-11
-2.05216e-11
6.75278e-11
-1.77064e-11
-1.13462e-11
1.05954e-11
1.54897e-11
-8.4406e-12
-9.09163e-12
1.009e-11
1.20848e-11
-8.34346e-12
1.82099e-12
-3.25048e-13
-1.32824e-11
8.77787e-15
2.41364e-12
9.36401e-12
-1.57793e-13
-1.29719e-11
-9.08524e-13
1.40111e-12
1.21258e-12
1.14246e-11
1.36089e-13
1.34741e-13
1.17556e-09
2.76635e-13
1.33528e-13
1.17515e-09
4.30457e-13
1.34532e-13
1.17483e-09
6.12678e-13
1.28054e-13
1.17473e-09
8.2184e-13
1.25745e-13
1.17493e-09
1.08327e-12
1.12754e-13
1.17549e-09
1.38472e-12
1.0068e-13
1.17639e-09
1.75833e-12
8.1382e-14
1.17792e-09
2.17667e-12
5.47626e-14
1.17969e-09
2.68368e-12
6.82911e-14
1.18224e-09
3.20121e-12
-1.60097e-13
1.18367e-09
2.64798e-12
2.46476e-13
1.19809e-09
2.1333e-12
-1.93362e-14
1.22196e-09
6.64097e-11
3.3533e-13
9.80439e-10
6.68167e-11
-6.64955e-11
-6.65955e-11
-4.45941e-11
1.6698e-12
1.00257e-10
-1.00468e-11
1.45224e-11
1.45563e-11
-9.95202e-12
1.34899e-13
2.75083e-13
1.17518e-09
2.73243e-13
2.72097e-13
1.17499e-09
4.2364e-13
2.74819e-13
1.17478e-09
6.00443e-13
2.60379e-13
1.17475e-09
8.03069e-13
2.57227e-13
1.17501e-09
1.05528e-12
2.30847e-13
1.17556e-09
1.34722e-12
2.07088e-13
1.1765e-09
1.71747e-12
1.69129e-13
1.17798e-09
2.1558e-12
7.62577e-14
1.1798e-09
2.61035e-12
9.89184e-14
1.18257e-09
3.11089e-12
-5.97452e-13
1.18829e-09
1.99434e-12
9.51609e-13
1.21413e-09
1.48531e-12
-2.66237e-13
1.2042e-09
6.70572e-11
4.80783e-11
7.97029e-10
7.03512e-11
-6.56803e-11
-7.02161e-11
7.17957e-11
-4.90625e-11
-7.2265e-11
-4.65154e-11
-6.16795e-12
1.44408e-11
9.70009e-11
-1.12157e-11
1.50191e-11
1.55416e-11
-1.10469e-11
1.35019e-13
4.28784e-13
1.17485e-09
2.74926e-13
4.22599e-13
1.17485e-09
4.24992e-13
4.25332e-13
1.17488e-09
6.06938e-13
3.99286e-13
1.17489e-09
8.10465e-13
3.9442e-13
1.1753e-09
1.07313e-12
3.48674e-13
1.17591e-09
1.35545e-12
3.1379e-13
1.17714e-09
1.75354e-12
2.26666e-13
1.17861e-09
2.0746e-12
1.04782e-13
1.18138e-09
2.76445e-12
-1.25634e-13
1.18439e-09
2.42494e-12
-6.14114e-13
1.19606e-09
3.56375e-12
-3.20288e-13
1.20243e-09
4.72906e-11
5.89897e-13
9.63633e-10
6.14866e-11
-4.76921e-11
-6.04139e-11
-5.99989e-11
1.49771e-11
6.16736e-12
1.34223e-10
-4.0745e-11
-2.04045e-11
6.78984e-11
-1.73357e-11
-9.15321e-12
1.00546e-11
1.20606e-11
-8.43715e-12
-1.14305e-11
1.05393e-11
1.54623e-11
-8.50917e-12
1.2894e-13
6.11091e-13
1.17474e-09
2.61033e-13
5.99578e-13
1.17477e-09
3.99008e-13
6.07702e-13
1.17495e-09
5.67385e-13
5.68308e-13
1.17506e-09
7.50805e-13
5.7239e-13
1.17554e-09
9.86245e-13
5.06595e-13
1.17611e-09
1.21139e-12
4.96124e-13
1.17733e-09
1.55262e-12
3.42034e-13
1.17864e-09
1.77035e-12
2.96587e-13
1.18087e-09
2.33889e-12
-1.9829e-13
1.18291e-09
1.66829e-12
-1.76104e-13
1.195e-09
2.65818e-12
-1.49746e-12
1.21091e-09
6.35427e-11
6.94926e-13
9.69125e-10
6.55146e-11
-6.28885e-11
-6.47317e-11
-5.08553e-11
-4.62825e-12
1.64849e-11
6.85884e-13
1.01855e-10
1.74456e-12
-3.30889e-13
-1.32424e-11
2.42544e-12
3.65469e-15
9.3996e-12
1.26697e-13
8.20256e-13
1.17494e-09
2.57555e-13
8.02597e-13
1.17501e-09
3.93595e-13
8.11685e-13
1.17532e-09
5.70345e-13
7.52658e-13
1.17554e-09
7.58602e-13
7.61993e-13
1.17626e-09
9.93077e-13
6.83606e-13
1.1769e-09
1.23122e-12
6.63487e-13
1.17833e-09
1.50411e-12
5.15271e-13
1.17954e-09
1.78898e-12
3.97659e-13
1.18172e-09
2.1139e-12
2.77076e-14
1.1825e-09
1.55175e-12
6.20918e-14
1.1977e-09
1.63803e-12
-1.80691e-12
1.22153e-09
6.45073e-11
8.88792e-13
9.78939e-10
6.60787e-11
-6.58591e-11
-6.46216e-11
-5.78445e-11
1.5552e-11
-5.81269e-12
1.10547e-10
2.0659e-12
-2.28552e-13
-9.15488e-13
-1.29525e-11
1.21546e-12
1.40724e-12
1.14739e-11
1.14793e-13
1.08189e-12
1.17549e-09
2.32531e-13
1.05441e-12
1.17557e-09
3.48822e-13
1.07423e-12
1.17592e-09
5.0522e-13
9.88077e-13
1.17612e-09
6.80664e-13
9.97141e-13
1.17688e-09
8.90143e-13
8.93907e-13
1.17765e-09
1.07472e-12
8.85198e-13
1.1792e-09
1.33158e-12
6.75206e-13
1.18029e-09
1.3572e-12
7.58947e-13
1.18145e-09
1.75841e-12
6.90441e-14
1.18426e-09
4.43348e-13
9.1495e-13
1.20823e-09
-3.77402e-13
-1.23831e-12
1.19681e-09
6.4577e-11
4.58307e-11
8.06437e-10
6.70101e-11
-6.4439e-11
-6.625e-11
6.54121e-11
-4.69654e-11
-6.4958e-11
-5.0937e-11
4.11895e-13
4.59841e-12
1.03448e-10
-1.02411e-11
1.34214e-11
1.40163e-11
-1.01415e-11
1.04115e-13
1.3833e-12
1.1764e-09
2.09484e-13
1.34584e-12
1.1765e-09
3.14325e-13
1.35607e-12
1.17715e-09
4.94308e-13
1.21254e-12
1.17736e-09
6.59298e-13
1.23477e-12
1.17833e-09
8.80478e-13
1.07819e-12
1.17917e-09
1.08057e-12
1.08513e-12
1.18094e-09
1.21281e-12
9.71828e-13
1.18168e-09
1.61739e-12
7.26579e-13
1.1838e-09
6.72831e-13
1.15934e-12
1.19567e-09
2.72323e-12
-1.47075e-12
1.20515e-09
4.67057e-11
2.10016e-12
9.43556e-10
6.15041e-11
-4.77725e-11
-6.08917e-11
-6.25017e-11
1.1959e-11
4.4226e-12
1.38657e-10
9.6906e-12
-1.10794e-11
-1.21474e-11
2.37935e-12
7.81451e-13
1.03755e-11
8.69377e-14
1.75621e-12
1.17793e-09
1.74035e-13
1.71466e-12
1.17799e-09
2.28002e-13
1.75487e-12
1.17862e-09
3.41389e-13
1.55138e-12
1.17867e-09
5.11968e-13
1.50522e-12
1.17956e-09
6.70135e-13
1.33323e-12
1.18028e-09
9.6754e-13
1.21435e-12
1.18168e-09
1.14492e-12
1.14725e-12
1.18343e-09
8.04194e-13
1.34532e-12
1.19553e-09
8.75669e-13
6.61323e-13
1.22518e-09
-5.64824e-13
-6.47477e-13
1.19018e-09
6.24729e-11
4.50755e-11
8.20622e-10
6.35066e-11
-6.2152e-11
-6.26673e-11
6.73981e-11
-4.72095e-11
-6.48387e-11
-4.64033e-11
-2.16959e-12
5.5834e-12
9.86337e-11
-1.00052e-11
1.15043e-11
1.34014e-11
-8.07201e-12
-2.47554e-13
-5.85865e-13
-1.52048e-12
2.3539e-12
5.5026e-14
2.17915e-12
1.1797e-09
7.40965e-14
2.15108e-12
1.1798e-09
1.06382e-13
2.07084e-12
1.18139e-09
2.95799e-13
1.76672e-12
1.1809e-09
3.93694e-13
1.78715e-12
1.18177e-09
7.52814e-13
1.35514e-12
1.18149e-09
7.20402e-13
1.61702e-12
1.18386e-09
1.35006e-12
7.93386e-13
1.19561e-09
1.27272e-12
1.25753e-12
1.22861e-09
1.44274e-12
8.45721e-14
1.17958e-09
4.31695e-11
4.81798e-11
7.62023e-10
6.72477e-11
-4.52707e-11
-6.4871e-11
6.57388e-11
-4.81248e-11
-6.53771e-11
-7.33538e-11
3.25569e-12
6.83939e-12
1.51504e-10
7.82351e-12
-1.0535e-11
-9.85355e-12
-1.44709e-12
9.80702e-13
1.30314e-11
7.12946e-14
2.68769e-12
1.18225e-09
9.83023e-14
2.60611e-12
1.18256e-09
-1.20837e-13
2.75006e-12
1.18441e-09
-1.94922e-13
2.33288e-12
1.18291e-09
2.60983e-14
2.10792e-12
1.18254e-09
6.31513e-14
1.75536e-12
1.18431e-09
1.15218e-12
6.69599e-13
1.19576e-09
6.70431e-13
8.71239e-13
1.22541e-09
9.06309e-14
1.43207e-12
1.17967e-09
4.96122e-11
4.9662e-11
7.6913e-10
6.74335e-11
-4.98576e-11
-6.72301e-11
6.75448e-11
-4.99093e-11
-6.73367e-11
-6.42606e-11
1.37381e-11
1.36724e-11
1.34642e-10
-3.60065e-11
-1.77094e-11
6.16264e-11
-1.69822e-11
-9.83247e-12
1.36494e-11
1.2063e-11
-1.09313e-11
-7.99497e-12
8.7788e-12
1.04759e-11
-7.13672e-12
-1.29587e-13
3.20283e-12
1.18366e-09
-5.75761e-13
3.10104e-12
1.18827e-09
-6.02272e-13
2.40896e-12
1.19607e-09
-1.72036e-13
1.66124e-12
1.19499e-09
6.011e-14
1.54471e-12
1.19773e-09
9.10477e-13
4.3942e-13
1.20829e-09
-1.47899e-12
2.72249e-12
1.20529e-09
-6.46569e-13
-5.67847e-13
1.19057e-09
4.81645e-11
4.3147e-11
7.62533e-10
6.72423e-11
-4.52499e-11
-6.48666e-11
6.57726e-11
-4.81086e-11
-6.54125e-11
-6.43304e-11
1.36661e-11
1.37309e-11
1.3476e-10
-3.78215e-11
6.57557e-11
-1.77419e-11
-1.77507e-11
-8.84346e-12
9.38774e-12
1.12018e-11
-7.97307e-12
-8.86198e-12
9.41956e-12
1.12291e-11
-8.00148e-12
2.72453e-13
2.63827e-12
1.19806e-09
1.02229e-12
1.95963e-12
1.21405e-09
-2.99814e-13
3.55075e-12
1.20243e-09
-1.48211e-12
2.6546e-12
1.21086e-09
-1.80261e-12
1.63299e-12
1.22156e-09
-1.23995e-12
-3.80761e-13
1.19686e-09
2.09896e-12
4.66998e-11
9.43651e-10
6.14989e-11
-4.77672e-11
-6.08842e-11
4.50905e-11
6.24665e-11
8.20749e-10
6.74054e-11
-4.72211e-11
-6.4845e-11
6.35027e-11
-6.21452e-11
-6.26631e-11
-7.33713e-11
6.84236e-12
3.24846e-12
1.51518e-10
-3.60389e-11
-1.77022e-11
6.16387e-11
-1.69634e-11
-8.00064e-12
8.79102e-12
1.04783e-11
-7.14348e-12
-9.83167e-12
1.36423e-11
1.20594e-11
-1.09296e-11
2.73012e-14
2.10523e-12
1.22188e-09
-2.43864e-13
1.43892e-12
1.20406e-09
5.99423e-13
4.72814e-11
9.63615e-10
6.14798e-11
-4.76841e-11
-6.04119e-11
6.99966e-13
6.35357e-11
9.69089e-10
6.55111e-11
-6.2884e-11
-6.47306e-11
8.89037e-13
6.45052e-11
9.78942e-10
6.60759e-11
-6.58576e-11
-6.46191e-11
4.58324e-11
6.45741e-11
8.06453e-10
6.54111e-11
-4.69672e-11
-6.49581e-11
6.70079e-11
-6.44365e-11
-6.62476e-11
-6.25016e-11
4.42378e-12
1.19572e-11
1.38653e-10
-4.64041e-11
-2.17002e-12
5.58248e-12
9.86303e-11
-1.00048e-11
1.15033e-11
1.34011e-11
-8.07194e-12
7.82252e-12
-9.85178e-12
-1.05355e-11
9.8053e-13
-1.44677e-12
1.3031e-11
4.0233e-13
6.64079e-11
9.80246e-10
6.67546e-11
-6.6488e-11
-6.66123e-11
4.8098e-11
6.70268e-11
7.96803e-10
7.03334e-11
-6.56737e-11
-7.02199e-11
7.18056e-11
-4.9069e-11
-7.22723e-11
-5.99919e-11
6.17582e-12
1.49765e-11
1.34219e-10
-5.0854e-11
-4.63184e-12
6.86741e-13
1.64825e-11
1.01852e-10
-5.78426e-11
-5.81143e-12
1.55494e-11
1.10544e-10
2.06561e-12
-5.09365e-11
4.11495e-13
4.59781e-12
1.03446e-10
-1.02408e-11
1.3421e-11
1.40159e-11
-1.01413e-11
9.69022e-12
-1.21467e-11
-1.10791e-11
7.8131e-13
2.37922e-12
1.03751e-11
-2.47574e-13
-1.52054e-12
-5.85729e-13
2.35384e-12
-4.45747e-11
1.70091e-12
1.00231e-10
-1.00438e-11
1.45315e-11
1.45453e-11
-9.9525e-12
-4.6482e-11
-6.18439e-12
1.44509e-11
9.6951e-11
-1.1212e-11
1.50081e-11
1.55351e-11
-1.10406e-11
-4.07424e-11
-2.0408e-11
6.78978e-11
-1.73358e-11
-1.14307e-11
1.05403e-11
1.54628e-11
-8.50991e-12
-9.15296e-12
1.00548e-11
1.20609e-11
-8.43687e-12
1.74448e-12
-3.31082e-13
-1.32416e-11
3.67451e-15
2.42527e-12
9.39931e-12
-2.2857e-13
-1.29523e-11
-9.15374e-13
1.40719e-12
1.21542e-12
1.14736e-11
3.15285e-13
3.12792e-13
1.17495e-09
6.50268e-13
3.10035e-13
1.17451e-09
1.01581e-12
3.16488e-13
1.17416e-09
1.44876e-12
2.98891e-13
1.17401e-09
1.94478e-12
3.03037e-13
1.17414e-09
2.56152e-12
2.5973e-13
1.17462e-09
3.26909e-12
2.68296e-13
1.17542e-09
4.16609e-12
1.73988e-13
1.17685e-09
5.09425e-12
2.43094e-13
1.17852e-09
6.26345e-12
-1.78321e-14
1.18111e-09
7.18899e-12
2.67506e-13
1.18249e-09
7.44887e-12
-2.59247e-13
1.1981e-09
5.14095e-12
1.71625e-12
1.22256e-09
6.65237e-11
1.61698e-13
9.85461e-10
6.69455e-11
-6.66909e-11
-6.6818e-11
-4.46966e-11
1.70411e-12
1.00448e-10
-1.00682e-11
1.45382e-11
1.4572e-11
-9.97203e-12
3.12625e-13
6.47612e-13
1.17454e-09
6.40771e-13
6.3886e-13
1.17433e-09
9.98354e-13
6.5121e-13
1.17409e-09
1.41888e-12
6.14602e-13
1.17402e-09
1.89934e-12
6.24895e-13
1.17421e-09
2.49016e-12
5.45818e-13
1.17468e-09
3.16917e-12
5.59617e-13
1.17553e-09