/*--------------------------------*- C++ -*----------------------------------*\
| =========                 |                                                 |
| \\      /  F ield         | OpenFOAM: The Open Source CFD Toolbox           |
|  \\    /   O peration     | Version:  2.1.1                                 |
|   \\  /    A nd           | Web:      www.OpenFOAM.org                      |
|    \\/     M anipulation  |                                                 |
\*---------------------------------------------------------------------------*/
FoamFile
{
    version     2.0;
    format      ascii;
    class       volScalarField;
    location    "0.0025";
    object      Th;
}
// * * * * * * * * * * * * * * * * * * * * * * * * * * * * * * * * * * * * * //

dimensions      [0 0 0 0 0 0 0];

internalField   nonuniform List<scalar> 
10314
(
1.00003e-14
1e-14
1e-14
1e-14
1e-14
1e-14
1e-14
1e-14
1e-14
1.00001e-14
1e-14
1.00001e-14
1.00005e-14
1.01568e-14
1.26418e-14
1e-14
1e-14
1e-14
1e-14
1e-14
1e-14
1e-14
1e-14
1e-14
1e-14
1.00001e-14
1.00001e-14
1.00011e-14
1.04773e-14
1.49146e-14
1e-14
1e-14
1.00001e-14
1.00001e-14
1e-14
1e-14
1e-14
1e-14
1e-14
1e-14
1.00001e-14
1.00001e-14
1e-14
1.0033e-14
1.58193e-14
1e-14
1e-14
1.00001e-14
1e-14
1e-14
1.00001e-14
1.00001e-14
1e-14
1e-14
1e-14
1.00001e-14
1e-14
1.00069e-14
1e-14
1.00893e-14
1e-14
1e-14
1e-14
1e-14
1.00001e-14
1.00001e-14
1e-14
1e-14
1e-14
1e-14
1e-14
1e-14
1.00123e-14
1e-14
1e-14
1e-14
1e-14
1e-14
1.00001e-14
1.00001e-14
1e-14
1e-14
1e-14
1e-14
1e-14
1e-14
1.00011e-14
1.07442e-14
1.28341e-14
1e-14
1e-14
1e-14
1.00001e-14
1e-14
1e-14
1e-14
1e-14
1e-14
1.00001e-14
1e-14
1.00112e-14
1.0022e-14
1e-14
1e-14
1e-14
1e-14
1e-14
1e-14
1e-14
1e-14
1e-14
1e-14
1.00001e-14
1.0001e-14
1.11986e-14
1.16783e-14
6.41833e-13
1e-14
1e-14
1e-14
1e-14
1e-14
1e-14
1e-14
1e-14
1e-14
1e-14
1.00298e-14
1e-14
1.24859e-14
1e-14
1e-14
1e-14
1e-14
1e-14
1e-14
1.00001e-14
1.00001e-14
1e-14
1.00319e-14
1.00001e-14
1.0021e-14
1e-14
1.00001e-14
1.00001e-14
1.00001e-14
1e-14
1e-14
1e-14
1.0001e-14
1.00297e-14
1.00001e-14
1e-14
1.00001e-14
1.00001e-14
1.00001e-14
1e-14
1e-14
1.00011e-14
1.00112e-14
1.11979e-14
1.00001e-14
1.00205e-14
1.00005e-14
1.00011e-14
1e-14
1.00069e-14
1.00123e-14
1.07442e-14
1.0022e-14
1.1678e-14
1.24873e-14
1.01566e-14
1.04773e-14
1.0033e-14
1e-14
1e-14
1.28339e-14
1e-14
6.41839e-13
1.26404e-14
1.4912e-14
1.58172e-14
1.00893e-14
1e-14
1e-14
1e-14
1e-14
1e-14
1e-14
1.00001e-14
1e-14
1e-14
1e-14
1e-14
1e-14
1.00001e-14
1.00002e-14
1.01358e-14
1.26433e-14
1e-14
1e-14
1e-14
1e-14
1e-14
1e-14
1e-14
1e-14
1e-14
1e-14
1.00001e-14
1.00001e-14
1.00005e-14
1.04323e-14
1.48158e-14
1e-14
1e-14
1e-14
1e-14
1e-14
1e-14
1e-14
1e-14
1e-14
1e-14
1.00001e-14
1.00001e-14
1e-14
1.00268e-14
1.7019e-14
1e-14
1e-14
1e-14
1e-14
1e-14
1.00001e-14
1e-14
1e-14
1e-14
1e-14
1.00001e-14
1e-14
1.00059e-14
1e-14
1.00772e-14
1e-14
1e-14
1e-14
1e-14
1e-14
1e-14
1e-14
1e-14
1e-14
1e-14
1e-14
1e-14
1.00104e-14
1e-14
1e-14
1.00001e-14
1e-14
1e-14
1.00001e-14
1e-14
1e-14
1e-14
1e-14
1e-14
1e-14
1e-14
1.00005e-14
1.06912e-14
1.27724e-14
1e-14
1e-14
1e-14
1e-14
1e-14
1e-14
1e-14
1e-14
1e-14
1e-14
1e-14
1.00099e-14
1.00207e-14
1e-14
1e-14
1e-14
1e-14
1e-14
1e-14
1e-14
1e-14
1e-14
1e-14
1e-14
1.00005e-14
1.11232e-14
1.16183e-14
6.44866e-13
1e-14
1e-14
1e-14
1e-14
1e-14
1e-14
1e-14
1e-14
1e-14
1e-14
1.00258e-14
1.00018e-14
1.39975e-14
1e-14
1e-14
1e-14
1e-14
1e-14
1e-14
1e-14
1e-14
1e-14
1.00282e-14
1e-14
1.02355e-14
1e-14
1.00001e-14
1e-14
1.00001e-14
1e-14
1e-14
1e-14
1.00005e-14
1.00257e-14
1e-14
1e-14
1.00001e-14
1.00001e-14
1.00001e-14
1e-14
1e-14
1.00005e-14
1.00099e-14
1.11228e-14
1.00018e-14
1.02339e-14
1.00002e-14
1.00005e-14
1e-14
1.00059e-14
1.00104e-14
1.06911e-14
1.00207e-14
1.16182e-14
1.39976e-14
1.01357e-14
1.04324e-14
1.00268e-14
1e-14
1e-14
1.27723e-14
1e-14
6.44872e-13
1.26422e-14
1.48136e-14
1.70165e-14
1.00772e-14
1e-14
1e-14
1e-14
1e-14
1e-14
1e-14
1e-14
1e-14
1e-14
1e-14
1e-14
1e-14
1e-14
1e-14
1.01315e-14
1.2673e-14
1e-14
1e-14
1e-14
1e-14
1e-14
1e-14
1e-14
1e-14
1e-14
1e-14
1e-14
1.00001e-14
1e-14
1.04227e-14
1.48423e-14
1e-14
1e-14
1e-14
1e-14
1e-14
1e-14
1e-14
1e-14
1e-14
1e-14
1.00001e-14
1e-14
1e-14
1.00258e-14
1.73292e-14
1e-14
1e-14
1e-14
1e-14
1e-14
1e-14
1e-14
1e-14
1e-14
1e-14
1e-14
1e-14
1.00056e-14
1e-14
1.00765e-14
1e-14
1e-14
1e-14
1e-14
1e-14
1e-14
1e-14
1e-14
1e-14
1e-14
1e-14
1e-14
1.00102e-14
1e-14
1e-14
1e-14
1e-14
1e-14
1e-14
1e-14
1e-14
1e-14
1e-14
1e-14
1e-14
1e-14
1.00002e-14
1.06811e-14
1.27897e-14
1e-14
1e-14
1e-14
1e-14
1e-14
1e-14
1e-14
1e-14
1e-14
1e-14
1e-14
1.00097e-14
1.00199e-14
1e-14
1e-14
1e-14
1e-14
1e-14
1e-14
1e-14
1e-14
1e-14
1e-14
1e-14
1.00003e-14
1.11098e-14
1.16162e-14
6.45315e-13
1e-14
1e-14
1e-14
1e-14
1e-14
1e-14
1e-14
1e-14
1e-14
1e-14
1.00251e-14
1.0002e-14
1.4325e-14
1e-14
1e-14
1e-14
1e-14
1e-14
1e-14
1e-14
1e-14
1e-14
1.00276e-14
1e-14
1.02981e-14
1e-14
1e-14
1e-14
1e-14
1e-14
1e-14
1e-14
1.00003e-14
1.0025e-14
1e-14
1.00015e-14
1.00001e-14
1.00001e-14
1e-14
1e-14
1e-14
1.00002e-14
1.00097e-14
1.11095e-14
1.00021e-14
1.02963e-14
1e-14
1e-14
1e-14
1.00056e-14
1.00102e-14
1.0681e-14
1.00199e-14
1.1616e-14
1.43244e-14
1.01317e-14
1.0423e-14
1.00258e-14
1e-14
1e-14
1.27895e-14
1e-14
6.45321e-13
1.26721e-14
1.48412e-14
1.73274e-14
1.00764e-14
1e-14
1e-14
1e-14
1e-14
1e-14
1e-14
1e-14
1e-14
1.00001e-14
1.00001e-14
1e-14
1e-14
1e-14
1e-14
1.01302e-14
1.26762e-14
1e-14
1e-14
1e-14
1e-14
1e-14
1e-14
1e-14
1e-14
1e-14
1e-14
1e-14
1e-14
1e-14
1.04228e-14
1.48501e-14
1e-14
1e-14
1e-14
1e-14
1e-14
1e-14
1e-14
1e-14
1e-14
1e-14
1e-14
1e-14
1e-14
1.00257e-14
1.7417e-14
1e-14
1e-14
1e-14
1e-14
1e-14
1e-14
1e-14
1e-14
1e-14
1e-14
1e-14
1e-14
1.00056e-14
1e-14
1.00756e-14
1e-14
1e-14
1e-14
1e-14
1e-14
1e-14
1e-14
1e-14
1e-14
1e-14
1e-14
1e-14
1.00103e-14
1e-14
1e-14
1e-14
1e-14
1e-14
1e-14
1e-14
1e-14
1e-14
1e-14
1e-14
1e-14
1e-14
1e-14
1.06797e-14
1.27913e-14
1e-14
1e-14
1e-14
1e-14
1e-14
1e-14
1e-14
1e-14
1e-14
1e-14
1e-14
1.00093e-14
1.0019e-14
1e-14
1.00001e-14
1e-14
1e-14
1e-14
1e-14
1e-14
1e-14
1e-14
1e-14
1e-14
1e-14
1.11085e-14
1.16078e-14
6.45471e-13
1.00001e-14
1e-14
1e-14
1e-14
1e-14
1e-14
1e-14
1e-14
1e-14
1e-14
1.0025e-14
1.00018e-14
1.43591e-14
1e-14
1e-14
1e-14
1e-14
1e-14
1e-14
1e-14
1e-14
1e-14
1.00276e-14
1e-14
1.03013e-14
1e-14
1e-14
1e-14
1e-14
1e-14
1e-14
1e-14
1e-14
1.00249e-14
1e-14
1.00017e-14
1e-14
1e-14
1e-14
1e-14
1e-14
1e-14
1.00093e-14
1.11081e-14
1.00018e-14
1.02994e-14
1e-14
1e-14
1e-14
1.00056e-14
1.00103e-14
1.06797e-14
1.0019e-14
1.16077e-14
1.43578e-14
1.01304e-14
1.04233e-14
1.00258e-14
1e-14
1e-14
1.27912e-14
1e-14
6.45476e-13
1.26761e-14
1.4852e-14
1.74159e-14
1.00756e-14
1e-14
1e-14
1e-14
1e-14
1e-14
1e-14
1.00001e-14
1.00001e-14
1e-14
1e-14
1e-14
1e-14
1.00001e-14
1e-14
1.01406e-14
1.26721e-14
1e-14
1e-14
1e-14
1e-14
1e-14
1e-14
1e-14
1e-14
1e-14
1e-14
1e-14
1e-14
1e-14
1.044e-14
1.48672e-14
1e-14
1e-14
1e-14
1e-14
1e-14
1e-14
1e-14
1e-14
1e-14
1e-14
1e-14
1e-14
1e-14
1.00268e-14
1.75751e-14
1e-14
1e-14
1e-14
1e-14
1e-14
1e-14
1e-14
1e-14
1e-14
1e-14
1e-14
1e-14
1.00055e-14
1e-14
1.00734e-14
1e-14
1e-14
1e-14
1e-14
1e-14
1e-14
1e-14
1e-14
1e-14
1e-14
1e-14
1e-14
1.00112e-14
1e-14
1e-14
1.00001e-14
1e-14
1e-14
1e-14
1e-14
1e-14
1e-14
1e-14
1e-14
1e-14
1e-14
1e-14
1.06854e-14
1.27875e-14
1.00001e-14
1e-14
1e-14
1e-14
1e-14
1e-14
1e-14
1e-14
1e-14
1e-14
1e-14
1.0009e-14
1.0018e-14
1e-14
1e-14
1e-14
1e-14
1e-14
1e-14
1e-14
1e-14
1e-14
1e-14
1e-14
1e-14
1.10835e-14
1.15888e-14
6.45544e-13
1e-14
1e-14
1e-14
1e-14
1e-14
1e-14
1e-14
1e-14
1e-14
1e-14
1.00247e-14
1.00009e-14
1.43807e-14
1e-14
1e-14
1e-14
1e-14
1e-14
1e-14
1e-14
1e-14
1e-14
1.00276e-14
1e-14
1.02961e-14
1e-14
1e-14
1e-14
1e-14
1e-14
1e-14
1e-14
1e-14
1.00246e-14
1e-14
1.00015e-14
1.00001e-14
1e-14
1e-14
1e-14
1e-14
1e-14
1.0009e-14
1.10832e-14
1.0001e-14
1.02943e-14
1e-14
1e-14
1e-14
1.00055e-14
1.00112e-14
1.06853e-14
1.0018e-14
1.15887e-14
1.43792e-14
1.01407e-14
1.04402e-14
1.00268e-14
1e-14
1e-14
1.27873e-14
1e-14
6.45549e-13
1.2671e-14
1.48694e-14
1.75742e-14
1.00734e-14
1e-14
1e-14
1e-14
1e-14
1e-14
1e-14
1.00001e-14
1e-14
1e-14
1e-14
1e-14
1.00001e-14
1.00001e-14
1e-14
1.01053e-14
1.26124e-14
1e-14
1e-14
1e-14
1e-14
1e-14
1e-14
1e-14
1e-14
1e-14
1e-14
1e-14
1e-14
1e-14
1.04268e-14
1.48952e-14
1e-14
1e-14
1e-14
1e-14
1e-14
1e-14
1e-14
1e-14
1e-14
1e-14
1e-14
1e-14
1e-14
1.00286e-14
1.83101e-14
1e-14
1e-14
1e-14
1e-14
1e-14
1e-14
1e-14
1e-14
1e-14
1e-14
1e-14
1e-14
1.00053e-14
1e-14
1.00645e-14
1e-14
1e-14
1e-14
1e-14
1e-14
1e-14
1e-14
1e-14
1e-14
1e-14
1e-14
1e-14
1.00087e-14
1e-14
1e-14
1.00001e-14
1e-14
1e-14
1e-14
1e-14
1e-14
1e-14
1e-14
1e-14
1.00001e-14
1e-14
1e-14
1.06714e-14
1.27501e-14
1e-14
1e-14
1e-14
1e-14
1e-14
1e-14
1e-14
1e-14
1.00001e-14
1e-14
1e-14
1.00077e-14
1.00157e-14
1e-14
1e-14
1e-14
1e-14
1e-14
1e-14
1e-14
1e-14
1.00001e-14
1.00001e-14
1e-14
1e-14
1.11879e-14
1.154e-14
6.45346e-13
1e-14
1e-14
1e-14
1e-14
1e-14
1e-14
1.00001e-14
1.00001e-14
1e-14
1e-14
1.00293e-14
1.00035e-14
1.44228e-14
1e-14
1e-14
1e-14
1e-14
1e-14
1.00001e-14
1e-14
1e-14
1e-14
1.00298e-14
1e-14
1.0297e-14
1.00001e-14
1e-14
1e-14
1e-14
1e-14
1e-14
1e-14
1e-14
1.00292e-14
1e-14
1.00017e-14
1.00001e-14
1e-14
1e-14
1e-14
1e-14
1e-14
1.00077e-14
1.11877e-14
1.00036e-14
1.0295e-14
1e-14
1e-14
1e-14
1.00053e-14
1.00087e-14
1.06714e-14
1.00157e-14
1.15399e-14
1.44208e-14
1.01054e-14
1.04268e-14
1.00286e-14
1e-14
1e-14
1.27499e-14
1e-14
6.4535e-13
1.26121e-14
1.4896e-14
1.8309e-14
1.00645e-14
1e-14
1e-14
1e-14
1e-14
1.00001e-14
1.00002e-14
1.00002e-14
1e-14
1e-14
1.00001e-14
1e-14
1.00001e-14
1e-14
1e-14
1.03245e-14
1.13367e-14
1e-14
1e-14
1e-14
1e-14
1e-14
1e-14
1e-14
1e-14
1e-14
1e-14
1e-14
1e-14
1e-14
1.07546e-14
1.45376e-14
1e-14
1e-14
1e-14
1e-14
1e-14
1e-14
1e-14
1e-14
1e-14
1.00001e-14
1.00001e-14
1e-14
1e-14
1.00638e-14
1.88363e-14
1.00001e-14
1e-14
1e-14
1e-14
1e-14
1e-14
1e-14
1e-14
1e-14
1e-14
1e-14
1e-14
1.00065e-14
1e-14
1e-14
1.00002e-14
1e-14
1e-14
1e-14
1.00001e-14
1e-14
1e-14
1e-14
1e-14
1e-14
1e-14
1e-14
1.00258e-14
1e-14
1e-14
1.00002e-14
1e-14
1e-14
1e-14
1e-14
1e-14
1e-14
1e-14
1e-14
1e-14
1e-14
1e-14
1.0866e-14
1.24566e-14
1e-14
1e-14
1e-14
1e-14
1e-14
1e-14
1e-14
1.00001e-14
1e-14
1e-14
1e-14
1.0008e-14
1.00201e-14
1e-14
1e-14
1e-14
1e-14
1e-14
1e-14
1e-14
1.00001e-14
1e-14
1e-14
1e-14
1e-14
1.10152e-14
1.16914e-14
6.39162e-13
1.00001e-14
1e-14
1e-14
1e-14
1e-14
1e-14
1e-14
1e-14
1e-14
1e-14
1.00019e-14
1.00005e-14
1.15165e-14
1e-14
1e-14
1.00001e-14
1e-14
1e-14
1e-14
1e-14
1e-14
1e-14
1.00145e-14
1e-14
1.04411e-14
1.00001e-14
1e-14
1.00001e-14
1e-14
1e-14
1e-14
1e-14
1e-14
1.00018e-14
1e-14
1.0283e-14
1e-14
1e-14
1e-14
1e-14
1e-14
1e-14
1.0008e-14
1.10152e-14
1.00005e-14
1.04376e-14
1e-14
1e-14
1e-14
1.00065e-14
1.00258e-14
1.08659e-14
1.00201e-14
1.16913e-14
1.15167e-14
1.03245e-14
1.07547e-14
1.00639e-14
1e-14
1e-14
1.24565e-14
1e-14
6.39166e-13
1.13366e-14
1.45379e-14
1.88357e-14
1e-14
1e-14
1e-14
1e-14
1e-14
1.00001e-14
1.00001e-14
1.00001e-14
1e-14
1e-14
1.00001e-14
1.00001e-14
1.00001e-14
1.00001e-14
1e-14
1.00774e-14
1e-14
1e-14
1e-14
1e-14
1e-14
1e-14
1e-14
1e-14
1e-14
1e-14
1e-14
1e-14
1e-14
1e-14
1.01255e-14
1e-14
1e-14
1e-14
1e-14
1e-14
1e-14
1e-14
1e-14
1e-14
1e-14
1e-14
1e-14
1e-14
1e-14
1e-14
1.43358e-14
1.00001e-14
1e-14
1e-14
1e-14
1.00001e-14
1e-14
1e-14
1e-14
1e-14
1e-14
1e-14
1e-14
1.0001e-14
1.00083e-14
1.00609e-14
1.00001e-14
1e-14
1e-14
1.00001e-14
1e-14
1e-14
1e-14
1e-14
1e-14
1e-14
1e-14
1e-14
1.00052e-14
1.00471e-14
1e-14
1.00001e-14
1e-14
1e-14
1e-14
1e-14
1e-14
1e-14
1e-14
1e-14
1e-14
1e-14
1e-14
1.00997e-14
1e-14
1e-14
1e-14
1e-14
1e-14
1e-14
1e-14
1e-14
1e-14
1e-14
1e-14
1e-14
1.00011e-14
1e-14
1.00274e-14
1e-14
1e-14
1e-14
1e-14
1e-14
1e-14
1e-14
1e-14
1e-14
1e-14
1e-14
1.01032e-14
1e-14
1e-14
1.00001e-14
1e-14
1e-14
1e-14
1e-14
1e-14
1e-14
1e-14
1e-14
1e-14
1.00002e-14
1e-14
1e-14
1.00001e-14
1e-14
1e-14
1e-14
1e-14
1e-14
1e-14
1e-14
1e-14
1.00012e-14
1.00018e-14
1.19506e-14
1.00001e-14
1e-14
1e-14
1e-14
1e-14
1e-14
1e-14
1e-14
1.00002e-14
1.00018e-14
1.10141e-14
1.00001e-14
1e-14
1e-14
1e-14
1e-14
1e-14
1.00011e-14
1.01032e-14
1e-14
1.19498e-14
1e-14
1e-14
1e-14
1.0001e-14
1.00052e-14
1.00997e-14
1e-14
1e-14
1e-14
1.00774e-14
1.01255e-14
1e-14
1.00083e-14
1.0047e-14
1e-14
1.00274e-14
1e-14
1e-14
1e-14
1.43358e-14
1.0061e-14
1e-14
1e-14
1e-14
1e-14
1e-14
1.00001e-14
1.00001e-14
1e-14
1e-14
1e-14
1e-14
1.00001e-14
1e-14
1e-14
1.00142e-14
1e-14
1e-14
1e-14
1e-14
1e-14
1e-14
1e-14
1e-14
1e-14
1e-14
1e-14
1e-14
1e-14
1e-14
1.00219e-14
1e-14
1e-14
1e-14
1e-14
1e-14
1e-14
1e-14
1e-14
1e-14
1e-14
1e-14
1e-14
1e-14
1e-14
1e-14
1.00951e-14
1e-14
1e-14
1e-14
1.00001e-14
1e-14
1e-14
1e-14
1e-14
1e-14
1e-14
1e-14
1e-14
1.00002e-14
1.00002e-14
1.00114e-14
1.00001e-14
1e-14
1e-14
1e-14
1e-14
1e-14
1e-14
1e-14
1e-14
1e-14
1e-14
1e-14
1.00009e-14
1e-14
1.00032e-14
1.00001e-14
1e-14
1e-14
1e-14
1e-14
1e-14
1e-14
1e-14
1e-14
1e-14
1e-14
1e-14
1.00144e-14
1e-14
1e-14
1e-14
1e-14
1e-14
1e-14
1e-14
1e-14
1e-14
1e-14
1e-14
1e-14
1.00001e-14
1.00005e-14
1.00031e-14
1e-14
1e-14
1e-14
1e-14
1e-14
1e-14
1e-14
1e-14
1e-14
1e-14
1e-14
1.00128e-14
1e-14
1e-14
1e-14
1e-14
1e-14
1e-14
1e-14
1e-14
1e-14
1e-14
1e-14
1e-14
1.00003e-14
1.00009e-14
1e-14
1e-14
1e-14
1e-14
1e-14
1e-14
1e-14
1e-14
1e-14
1.00001e-14
1e-14
1.00137e-14
1.00001e-14
1e-14
1e-14
1e-14
1e-14
1e-14
1e-14
1e-14
1e-14
1.00001e-14
1.00069e-14
1e-14
1e-14
1e-14
1e-14
1e-14
1e-14
1.00001e-14
1.00128e-14
1.00003e-14
1.00137e-14
1e-14
1e-14
1e-14
1.00002e-14
1.00009e-14
1.00144e-14
1.00005e-14
1e-14
1.00009e-14
1.00142e-14
1.00219e-14
1e-14
1.00002e-14
1e-14
1e-14
1.00031e-14
1e-14
1e-14
1.00951e-14
1.00114e-14
1.00032e-14
1e-14
1e-14
1e-14
1e-14
1.00001e-14
1e-14
1e-14
1e-14
1e-14
1e-14
1e-14
1e-14
1e-14
1.00022e-14
1e-14
1e-14
1e-14
1e-14
1e-14
1e-14
1e-14
1e-14
1e-14
1e-14
1e-14
1e-14
1e-14
1e-14
1.00034e-14
1.00001e-14
1e-14
1e-14
1e-14
1.00001e-14
1e-14
1e-14
1e-14
1e-14
1e-14
1e-14
1e-14
1e-14
1e-14
1e-14
1.00009e-14
1e-14
1e-14
1.00001e-14
1e-14
1e-14
1e-14
1e-14
1e-14
1e-14
1e-14
1e-14
1e-14
1e-14
1e-14
1e-14
1.00001e-14
1e-14
1e-14
1e-14
1e-14
1e-14
1e-14
1e-14
1e-14
1e-14
1e-14
1e-14
1.00001e-14
1e-14
1e-14
1e-14
1e-14
1e-14
1e-14
1e-14
1e-14
1e-14
1e-14
1e-14
1e-14
1e-14
1e-14
1.00017e-14
1.00002e-14
1e-14
1e-14
1e-14
1e-14
1e-14
1e-14
1e-14
1e-14
1e-14
1e-14
1e-14
1e-14
1e-14
1e-14
1e-14
1e-14
1e-14
1e-14
1e-14
1e-14
1e-14
1e-14
1e-14
1e-14
1e-14
1.00015e-14
1.00002e-14
1e-14
1e-14
1e-14
1e-14
1e-14
1e-14
1e-14
1e-14
1e-14
1e-14
1e-14
1.00003e-14
1e-14
1e-14
1e-14
1e-14
1e-14
1e-14
1e-14
1e-14
1e-14
1e-14
1e-14
1e-14
1e-14
1e-14
1e-14
1e-14
1e-14
1e-14
1e-14
1e-14
1e-14
1e-14
1e-14
1e-14
1e-14
1e-14
1e-14
1e-14
1e-14
1e-14
1e-14
1.00015e-14
1.00003e-14
1.00001e-14
1e-14
1e-14
1e-14
1e-14
1.00001e-14
1.00017e-14
1e-14
1.00002e-14
1e-14
1.00022e-14
1.00034e-14
1e-14
1e-14
1e-14
1.00002e-14
1e-14
1e-14
1.00001e-14
1.00009e-14
1e-14
1e-14
1e-14
1e-14
1e-14
1e-14
1e-14
1e-14
1e-14
1e-14
1e-14
1e-14
1e-14
1e-14
1e-14
1.00003e-14
1e-14
1e-14
1.00001e-14
1.00001e-14
1.00001e-14
1e-14
1e-14
1e-14
1e-14
1e-14
1e-14
1e-14
1e-14
1e-14
1.00005e-14
1e-14
1e-14
1.00001e-14
1.00001e-14
1e-14
1e-14
1e-14
1e-14
1e-14
1e-14
1e-14
1e-14
1e-14
1e-14
1e-14
1e-14
1e-14
1.00001e-14
1e-14
1e-14
1e-14
1e-14
1e-14
1e-14
1e-14
1e-14
1e-14
1e-14
1e-14
1e-14
1e-14
1e-14
1e-14
1e-14
1e-14
1e-14
1e-14
1e-14
1e-14
1e-14
1e-14
1e-14
1e-14
1e-14
1e-14
1e-14
1e-14
1e-14
1e-14
1e-14
1e-14
1e-14
1e-14
1e-14
1e-14
1e-14
1e-14
1e-14
1.00002e-14
1.00002e-14
1e-14
1e-14
1e-14
1e-14
1e-14
1e-14
1e-14
1e-14
1e-14
1e-14
1e-14
1e-14
1e-14
1.00001e-14
1e-14
1e-14
1e-14
1e-14
1e-14
1e-14
1e-14
1e-14
1e-14
1e-14
1e-14
1.00001e-14
1e-14
1e-14
1e-14
1e-14
1e-14
1e-14
1e-14
1e-14
1e-14
1e-14
1e-14
1e-14
1e-14
1e-14
1e-14
1e-14
1e-14
1e-14
1e-14
1e-14
1e-14
1e-14
1e-14
1e-14
1e-14
1e-14
1e-14
1e-14
1e-14
1e-14
1e-14
1e-14
1e-14
1e-14
1e-14
1e-14
1e-14
1e-14
1e-14
1e-14
1e-14
1e-14
1e-14
1e-14
1.00001e-14
1e-14
1e-14
1e-14
1e-14
1e-14
1e-14
1e-14
1.00002e-14
1e-14
1e-14
1e-14
1.00003e-14
1.00005e-14
1e-14
1e-14
1e-14
1.00002e-14
1.00001e-14
1e-14
1e-14
1e-14
1e-14
1e-14
1e-14
1.00001e-14
1.00001e-14
1e-14
1e-14
1e-14
1e-14
1e-14
1e-14
1e-14
1e-14
1e-14
1e-14
1e-14
1e-14
1.00001e-14
1.00001e-14
1.00001e-14
1e-14
1e-14
1e-14
1e-14
1e-14
1e-14
1e-14
1e-14
1e-14
1e-14
1.00001e-14
1e-14
1.00001e-14
1.00001e-14
1e-14
1e-14
1e-14
1e-14
1e-14
1e-14
1e-14
1e-14
1e-14
1e-14
1e-14
1e-14
1e-14
1e-14
1e-14
1e-14
1e-14
1e-14
1e-14
1e-14
1e-14
1e-14
1e-14
1e-14
1e-14
1e-14
1e-14
1e-14
1e-14
1e-14
1e-14
1e-14
1e-14
1e-14
1e-14
1e-14
1e-14
1e-14
1e-14
1e-14
1e-14
1e-14
1e-14
1e-14
1e-14
1e-14
1e-14
1e-14
1e-14
1e-14
1e-14
1e-14
1e-14
1e-14
1e-14
1e-14
1.00001e-14
1e-14
1e-14
1e-14
1e-14
1e-14
1e-14
1e-14
1e-14
1e-14
1e-14
1e-14
1e-14
1e-14
1e-14
1e-14
1e-14
1e-14
1e-14
1e-14
1e-14
1e-14
1e-14
1e-14
1e-14
1e-14
1e-14
1.00002e-14
1e-14
1e-14
1e-14
1e-14
1e-14
1e-14
1e-14
1e-14
1e-14
1e-14
1e-14
1e-14
1e-14
1e-14
1e-14
1e-14
1e-14
1e-14
1e-14
1e-14
1e-14
1e-14
1e-14
1e-14
1.00002e-14
1e-14
1e-14
1e-14
1e-14
1e-14
1e-14
1e-14
1e-14
1e-14
1e-14
1e-14
1e-14
1e-14
1e-14
1e-14
1e-14
1e-14
1e-14
1e-14
1e-14
1.00002e-14
1e-14
1e-14
1e-14
1e-14
1e-14
1e-14
1e-14
1.00002e-14
1e-14
1e-14
1.00001e-14
1e-14
1e-14
1e-14
1.00001e-14
1e-14
1e-14
1e-14
1e-14
1e-14
1e-14
1.00001e-14
1.00002e-14
1.00001e-14
1e-14
1e-14
1e-14
1e-14
1e-14
1e-14
1.00001e-14
1.00001e-14
1.00001e-14
1e-14
1e-14
1e-14
1.00002e-14
1.00001e-14
1e-14
1e-14
1e-14
1e-14
1e-14
1e-14
1e-14
1.00001e-14
1e-14
1e-14
1e-14
1e-14
1e-14
1.00001e-14
1e-14
1e-14
1e-14
1e-14
1e-14
1e-14
1e-14
1.00001e-14
1e-14
1e-14
1e-14
1e-14
1e-14
1e-14
1e-14
1e-14
1e-14
1e-14
1e-14
1e-14
1e-14
1e-14
1e-14
1e-14
1e-14
1e-14
1e-14
1e-14
1e-14
1e-14
1e-14
1e-14
1e-14
1e-14
1e-14
1e-14
1e-14
1e-14
1e-14
1e-14
1e-14
1e-14
1e-14
1.00001e-14
1e-14
1e-14
1e-14
1e-14
1e-14
1e-14
1e-14
1e-14
1e-14
1e-14
1e-14
1e-14
1e-14
1.00002e-14
1e-14
1e-14
1e-14
1e-14
1e-14
1e-14
1e-14
1e-14
1e-14
1.00001e-14
1e-14
1e-14
1e-14
1e-14
1e-14
1e-14
1e-14
1e-14
1e-14
1e-14
1e-14
1e-14
1e-14
1e-14
1e-14
1e-14
1.00001e-14
1e-14
1e-14
1.00001e-14
1e-14
1e-14
1e-14
1e-14
1e-14
1e-14
1e-14
1e-14
1.00001e-14
1e-14
1.00001e-14
1.00001e-14
1e-14
1e-14
1e-14
1e-14
1.00001e-14
1e-14
1e-14
1e-14
1e-14
1.00001e-14
1.00001e-14
1e-14
1e-14
1e-14
1e-14
1e-14
1e-14
1e-14
1e-14
1e-14
1e-14
1.00001e-14
1e-14
1e-14
1e-14
1e-14
1e-14
1e-14
1e-14
1.00001e-14
1.00001e-14
1e-14
1e-14
1e-14
1e-14
1e-14
1e-14
1e-14
1.00001e-14
1e-14
1e-14
1e-14
1e-14
1e-14
1e-14
1.00002e-14
1e-14
1e-14
1e-14
1e-14
1e-14
1.00001e-14
1e-14
1.00001e-14
1.00001e-14
1.00001e-14
1e-14
1e-14
1e-14
1e-14
1e-14
1.00001e-14
1.00002e-14
1e-14
1e-14
1e-14
1.00001e-14
1.00001e-14
1.00001e-14
1e-14
1e-14
1e-14
1e-14
1e-14
1e-14
1.00001e-14
1e-14
1e-14
1e-14
1e-14
1e-14
1e-14
1.00001e-14
1e-14
1e-14
1e-14
1e-14
1e-14
1e-14
1.00001e-14
1.00001e-14
1e-14
1e-14
1e-14
1e-14
1e-14
1.00001e-14
1.00001e-14
1e-14
1e-14
1e-14
1e-14
1e-14
1.00001e-14
1e-14
1e-14
1e-14
1e-14
1e-14
1e-14
1e-14
1e-14
1e-14
1e-14
1e-14
1e-14
1e-14
1e-14
1e-14
1e-14
1e-14
1e-14
1e-14
1e-14
1e-14
1e-14
1.00001e-14
1e-14
1e-14
1e-14
1e-14
1e-14
1e-14
1e-14
1e-14
1e-14
1e-14
1e-14
1e-14
1e-14
1.00002e-14
1e-14
1e-14
1e-14
1.00001e-14
1e-14
1e-14
1e-14
1e-14
1e-14
1e-14
1e-14
1e-14
1.00002e-14
1e-14
1e-14
1e-14
1.00001e-14
1e-14
1e-14
1e-14
1e-14
1e-14
1e-14
1e-14
1e-14
1e-14
1.00002e-14
1e-14
1.00001e-14
1.00001e-14
1e-14
1e-14
1e-14
1e-14
1e-14
1e-14
1e-14
1e-14
1e-14
1e-14
1.00001e-14
1e-14
1e-14
1e-14
1e-14
1e-14
1e-14
1e-14
1e-14
1e-14
1e-14
1.00003e-14
1.00002e-14
1e-14
1e-14
1e-14
1e-14
1e-14
1e-14
1e-14
1e-14
1e-14
1.00001e-14
1e-14
1e-14
1e-14
1e-14
1e-14
1e-14
1e-14
1e-14
1e-14
1.00003e-14
1e-14
1e-14
1e-14
1e-14
1e-14
1e-14
1.00002e-14
1.00003e-14
1e-14
1e-14
1e-14
1e-14
1e-14
1e-14
1.00002e-14
1e-14
1.00002e-14
1e-14
1e-14
1e-14
1.00001e-14
1e-14
1.00001e-14
1.00001e-14
1e-14
1e-14
1e-14
1e-14
1e-14
1e-14
1e-14
1e-14
1e-14
1e-14
1e-14
1e-14
1.00001e-14
1e-14
1e-14
1e-14
1e-14
1e-14
1e-14
1e-14
1e-14
1e-14
1e-14
1e-14
1e-14
1e-14
1e-14
1.00001e-14
1e-14
1e-14
1e-14
1e-14
1e-14
1e-14
1.00001e-14
1e-14
1e-14
1e-14
1e-14
1e-14
1e-14
1e-14
1e-14
1e-14
1e-14
1e-14
1e-14
1.00001e-14
1e-14
1e-14
1e-14
1e-14
1e-14
1e-14
1e-14
1e-14
1e-14
1e-14
1e-14
1e-14
1e-14
1.00001e-14
1e-14
1e-14
1e-14
1e-14
1e-14
1e-14
1e-14
1e-14
1e-14
1e-14
1e-14
1e-14
1e-14
1.00001e-14
1e-14
1e-14
1e-14
1e-14
1e-14
1e-14
1e-14
1e-14
1e-14
1.00003e-14
1e-14
1e-14
1e-14
1e-14
1e-14
1e-14
1e-14
1e-14
1e-14
1e-14
1e-14
1e-14
1e-14
1e-14
1e-14
1e-14
1.00001e-14
1e-14
1e-14
1e-14
1e-14
1e-14
1e-14
1e-14
1e-14
1e-14
1.00002e-14
1e-14
1e-14
1e-14
1e-14
1e-14
1e-14
1e-14
1e-14
1e-14
1e-14
1.00001e-14
1.00001e-14
1e-14
1e-14
1e-14
1e-14
1e-14
1e-14
1e-14
1e-14
1e-14
1e-14
1.00001e-14
1.00001e-14
1.00001e-14
1e-14
1e-14
1e-14
1e-14
1e-14
1e-14
1e-14
1e-14
1.00001e-14
1.00001e-14
1e-14
1e-14
1e-14
1e-14
1e-14
1e-14
1e-14
1e-14
1e-14
1.00001e-14
1.00001e-14
1e-14
1e-14
1e-14
1e-14
1e-14
1e-14
1e-14
1.00002e-14
1e-14
1e-14
1e-14
1e-14
1e-14
1e-14
1.00003e-14
1e-14
1e-14
1e-14
1e-14
1e-14
1e-14
1.57478e-14
3.90429e-13
1.66336e-14
4.17035e-13
1.83681e-14
4.42637e-13
2.39489e-14
4.1837e-14
1.16568e-14
1.02701e-14
5.8059e-14
1.07849e-14
2.61446e-14
1.01032e-14
3.41058e-14
7.16189e-14
9.33549e-13
1.46142e-14
2.65778e-13
3.59489e-14
1.00615e-14
1.28986e-14
1.06679e-14
2.84125e-14
1.17959e-14
3.6069e-13
1.2277e-14
8.49424e-14
5.71753e-14
7.9544e-13
1.01661e-14
2.06771e-14
1.25785e-14
3.40819e-13
1e-14
4.32726e-14
8.18349e-13
8.71915e-13
3.85572e-14
8.75372e-13
8.72241e-13
1.01658e-14
1.25759e-14
2.0675e-14
3.40838e-13
4.32291e-14
8.70345e-13
8.18298e-13
1.00615e-14
1.06675e-14
1.28984e-14
2.841e-14
1.22757e-14
5.7157e-14
8.49385e-14
1e-14
1.07848e-14
1.01032e-14
2.61435e-14
3.41038e-14
1.46138e-14
3.59476e-14
2.65775e-13
1.1796e-14
3.60682e-13
7.9544e-13
1.57465e-14
1.66228e-14
3.90594e-13
4.16997e-13
1.83631e-14
2.39521e-14
4.42605e-13
4.18411e-14
1.16566e-14
1.027e-14
5.80604e-14
7.16161e-14
9.33551e-13
3.0993e-13
1.31019e-14
3.25397e-13
1.49754e-14
3.86006e-13
1.57767e-14
4.12396e-13
3.47979e-13
1.07042e-14
1.72443e-14
4.37989e-13
2.18867e-14
1e-14
3.69895e-14
1.12909e-14
1e-14
1.0286e-14
5.43246e-14
1.93749e-14
1.01025e-14
1e-14
1.05381e-14
2.37545e-14
1.00956e-14
3.22883e-14
8.56307e-13
6.80656e-14
9.29091e-13
2.13605e-13
1.33955e-14
1.3984e-14
2.63986e-13
3.28196e-14
1.06441e-14
1e-14
1.87369e-14
1.00373e-14
1.24218e-14
1.05302e-14
2.59906e-14
1.56485e-13
1.19245e-14
3.58834e-13
1e-14
1.09405e-14
1.19557e-14
8.05633e-14
5.09161e-14
7.91831e-13
1.35763e-14
1.14212e-14
2.68773e-13
1.01155e-14
1.97432e-14
1.20799e-14
3.36573e-13
1e-14
6.76708e-13
4.34942e-13
3.79198e-14
8.11776e-13
8.72487e-13
4.64566e-13
4.63324e-13
3.36041e-14
8.74675e-13
8.71451e-13
1.14208e-14
1.35758e-14
2.68772e-13
1.01153e-14
1.20771e-14
1.97413e-14
3.36586e-13
4.34805e-13
6.76749e-13
3.78787e-14
8.71013e-13
8.11737e-13
1e-14
1.06441e-14
1.87363e-14
1.00373e-14
1.05301e-14
1.24216e-14
2.5989e-14
1.09417e-14
1e-14
1.19558e-14
5.09026e-14
8.05643e-14
1e-14
1.01025e-14
1.93749e-14
1e-14
1.0538e-14
1.00956e-14
2.37537e-14
3.22858e-14
1.33952e-14
2.13605e-13
1.39837e-14
3.28184e-14
2.63985e-13
1.56495e-13
1.19244e-14
3.58832e-13
7.91833e-13
1.30983e-14
3.10096e-13
3.25446e-13
1.49749e-14
1.57682e-14
3.8617e-13
4.12369e-13
1.07046e-14
3.48018e-13
1.72402e-14
2.18897e-14
4.37966e-13
1e-14
3.69922e-14
1.12908e-14
1e-14
1.02859e-14
5.43256e-14
8.56302e-13
6.80647e-14
9.29099e-13
3.10197e-13
1.30975e-14
3.25838e-13
1.48999e-14
3.85779e-13
1.57014e-14
4.12118e-13
3.48938e-13
1.07988e-14
1.71762e-14
4.37944e-13
2.15134e-14
1e-14
3.61524e-14
1.12559e-14
1e-14
1.02661e-14
5.41766e-14
1.93031e-14
1.01051e-14
1e-14
1.04963e-14
2.34875e-14
1.00921e-14
3.17808e-14
8.53453e-13
6.81639e-14
9.28918e-13
2.1434e-13
1.36901e-14
1.39328e-14
2.64069e-13
3.25546e-14
1.05873e-14
1e-14
1.91058e-14
1.00354e-14
1.24276e-14
1.04894e-14
2.59e-14
1.60421e-13
1.21069e-14
3.57982e-13
1e-14
1.12524e-14
1.19281e-14
8.17743e-14
4.98587e-14
7.92415e-13
1.35377e-14
1.13678e-14
2.69492e-13
1.01143e-14
1.98256e-14
1.20069e-14
3.36916e-13
1e-14
6.77697e-13
4.44694e-13
3.6553e-14
8.12624e-13
8.70779e-13
4.74597e-13
4.73327e-13
3.24874e-14
8.73077e-13
8.69874e-13
1.13676e-14
1.35373e-14
2.69489e-13
1.0114e-14
1.20044e-14
1.98241e-14
3.36926e-13
4.44554e-13
6.77719e-13
3.65148e-14
8.69322e-13
8.12589e-13
1e-14
1.05873e-14
1.91052e-14
1.00354e-14
1.04892e-14
1.24273e-14
2.58984e-14
1.12516e-14
1e-14
1.1928e-14
4.98525e-14
8.17755e-14
1e-14
1.01051e-14
1.9303e-14
1e-14
1.04962e-14
1.00921e-14
2.34866e-14
3.17796e-14
1.36898e-14
2.14342e-13
1.39325e-14
3.25534e-14
2.64066e-13
1.60429e-13
1.21067e-14
3.5798e-13
7.92426e-13
1.30947e-14
3.1036e-13
3.25888e-13
1.48997e-14
1.56948e-14
3.85941e-13
4.12102e-13
1.07992e-14
3.48974e-13
1.71733e-14
2.15172e-14
4.3793e-13
1e-14
3.61547e-14
1.12559e-14
1e-14
1.0266e-14
5.41779e-14
8.53452e-13
6.81634e-14
9.28914e-13
3.10418e-13
1.31291e-14
3.26026e-13
1.49061e-14
3.85768e-13
1.57123e-14
4.12132e-13
3.49233e-13
1.08099e-14
1.7195e-14
4.38021e-13
2.1484e-14
1e-14
3.6137e-14
1.12513e-14
1e-14
1.02619e-14
5.41292e-14
1.93811e-14
1.01068e-14
1e-14
1.0491e-14
2.34837e-14
1.00915e-14
3.16592e-14
8.5221e-13
6.82508e-14
9.28955e-13
2.14443e-13
1.37464e-14
1.39424e-14
2.6422e-13
3.25329e-14
1.05902e-14
1e-14
1.92445e-14
1.00335e-14
1.24392e-14
1.04804e-14
2.59137e-14
1.60283e-13
1.21519e-14
3.57622e-13
1e-14
1.13131e-14
1.19218e-14
8.24606e-14
4.97119e-14
7.92589e-13
1.35624e-14
1.13661e-14
2.69666e-13
1.01109e-14
1.98515e-14
1.19997e-14
3.3704e-13
1e-14
6.77448e-13
4.44606e-13
3.63196e-14
8.12764e-13
8.70534e-13
4.74699e-13
4.73453e-13
3.2291e-14
8.72759e-13
8.69549e-13
1.13659e-14
1.35622e-14
2.6966e-13
1.01107e-14
1.19973e-14
1.98501e-14
3.37047e-13
4.44482e-13
6.77473e-13
3.62819e-14
8.69064e-13
8.12727e-13
1e-14
1.05901e-14
1.92438e-14
1.00334e-14
1.04802e-14
1.2439e-14
2.59125e-14
1.13127e-14
1e-14
1.19216e-14
4.97065e-14
8.2463e-14
1e-14
1.01068e-14
1.93811e-14
1e-14
1.04909e-14
1.00915e-14
2.34826e-14
3.16577e-14
1.3746e-14
2.14444e-13
1.39421e-14
3.25319e-14
2.64219e-13
1.60293e-13
1.2152e-14
3.5762e-13
7.92585e-13
1.31273e-14
3.1058e-13
3.26086e-13
1.49077e-14
1.57117e-14
3.85936e-13
4.1214e-13
1.08107e-14
3.49273e-13
1.7196e-14
2.14897e-14
4.38026e-13
1e-14
3.61384e-14
1.12513e-14
1e-14
1.02619e-14
5.41298e-14
8.52216e-13
6.82499e-14
9.28955e-13
3.1034e-13
1.31348e-14
3.25961e-13
1.49263e-14
3.85808e-13
1.57406e-14
4.12222e-13
3.49174e-13
1.079e-14
1.7246e-14
4.38098e-13
2.15766e-14
1e-14
3.63045e-14
1.12497e-14
1e-14
1.02673e-14
5.40509e-14
1.94098e-14
1.01064e-14
1e-14
1.04883e-14
2.35138e-14
1.00912e-14
3.14855e-14
8.51877e-13
6.82852e-14
9.28962e-13
2.1451e-13
1.36957e-14
1.39501e-14
2.64456e-13
3.2538e-14
1.05946e-14
1e-14
1.92387e-14
1.00314e-14
1.2444e-14
1.04716e-14
2.58928e-14
1.59977e-13
1.21885e-14
3.57294e-13
1e-14
1.12841e-14
1.19114e-14
8.30663e-14
4.96178e-14
7.92853e-13
1.35687e-14
1.13637e-14
2.69744e-13
1.01085e-14
1.98494e-14
1.19952e-14
3.37048e-13
1e-14
6.77436e-13
4.44489e-13
3.63111e-14
8.12717e-13
8.70497e-13
4.74561e-13
4.73302e-13
3.22853e-14
8.7267e-13
8.69463e-13
1.13636e-14
1.35687e-14
2.69735e-13
1.01083e-14
1.19928e-14
1.98483e-14
3.37054e-13
4.4435e-13
6.77457e-13
3.62732e-14
8.69037e-13
8.12684e-13
1e-14
1.05945e-14
1.92383e-14
1.00314e-14
1.04715e-14
1.24439e-14
2.58918e-14
1.12838e-14
1e-14
1.19113e-14
4.96113e-14
8.30677e-14
1e-14
1.01064e-14
1.94096e-14
1e-14
1.04882e-14
1.00912e-14
2.35128e-14
3.14825e-14
1.36955e-14
2.14511e-13
1.39499e-14
3.25369e-14
2.64456e-13
1.59983e-13
1.21886e-14
3.57292e-13
7.92852e-13
1.31355e-14
3.10463e-13
3.26023e-13
1.49229e-14
1.5745e-14
3.85812e-13
4.12252e-13
1.07921e-14
3.49215e-13
1.72501e-14
2.15826e-14
4.3812e-13
1e-14
3.63045e-14
1.12497e-14
1e-14
1.02673e-14
5.40521e-14
8.51875e-13
6.82857e-14
9.28969e-13
3.09995e-13
1.31375e-14
3.25627e-13
1.49717e-14
3.85896e-13
1.58136e-14
4.12465e-13
3.48668e-13
1.07649e-14
1.74017e-14
4.3818e-13
2.19347e-14
1e-14
3.66753e-14
1.12786e-14
1e-14
1.03044e-14
5.40884e-14
1.94929e-14
1.01055e-14
1e-14
1.04848e-14
2.36826e-14
1.00913e-14
3.11434e-14
8.51406e-13
6.87041e-14
9.28645e-13
2.14574e-13
1.35891e-14
1.39696e-14
2.65031e-13
3.26364e-14
1.06016e-14
1e-14
1.9201e-14
1.00293e-14
1.24555e-14
1.04636e-14
2.59334e-14
1.59426e-13
1.22425e-14
3.56937e-13
1e-14
1.12204e-14
1.19074e-14
8.39372e-14
4.96397e-14
7.9281e-13
1.35618e-14
1.13601e-14
2.69824e-13
1.01082e-14
1.98581e-14
1.20003e-14
3.37031e-13
1e-14
6.77378e-13
4.44321e-13
3.65082e-14
8.12658e-13
8.70422e-13
4.74418e-13
4.73164e-13
3.24024e-14
8.72558e-13
8.69364e-13
1.136e-14
1.35619e-14
2.69816e-13
1.0108e-14
1.19978e-14
1.9857e-14
3.37037e-13
4.44197e-13
6.774e-13
3.64716e-14
8.68968e-13
8.12628e-13
1e-14
1.06016e-14
1.92008e-14
1.00293e-14
1.04635e-14
1.24553e-14
2.59325e-14
1.12198e-14
1e-14
1.19072e-14
4.96346e-14
8.39387e-14
1e-14
1.01055e-14
1.94928e-14
1e-14
1.04847e-14
1.00913e-14
2.36817e-14
3.11433e-14
1.35888e-14
2.14577e-13
1.39694e-14
3.26355e-14
2.65027e-13
1.5943e-13
1.22424e-14
3.56935e-13
7.92813e-13
1.3139e-14
3.10006e-13
3.25667e-13
1.49699e-14
1.58167e-14
3.85878e-13
4.1249e-13
1.07667e-14
3.487e-13
1.74032e-14
2.19379e-14
4.38199e-13
1e-14
3.6674e-14
1.12785e-14
1e-14
1.03045e-14
5.40896e-14
8.51416e-13
6.8705e-14
9.28632e-13
3.08721e-13
1.30841e-14
3.24482e-13
1.52013e-14
3.86506e-13
1.61637e-14
4.13639e-13
3.46958e-13
1.0719e-14
1.78886e-14
4.38955e-13
2.30612e-14
1e-14
3.73453e-14
1.14946e-14
1e-14
1.04465e-14
5.57079e-14
1.98066e-14
1.01015e-14
1e-14
1.04846e-14
2.4571e-14
1.01036e-14
3.16502e-14
8.49368e-13
7.01877e-14
9.29438e-13
2.14425e-13
1.33929e-14
1.40748e-14
2.66851e-13
3.30406e-14
1.06089e-14
1e-14
1.92023e-14
1.00269e-14
1.24904e-14
1.04641e-14
2.63169e-14
1.57592e-13
1.22985e-14
3.56068e-13
1e-14
1.10468e-14
1.1981e-14
8.75777e-14
5.14115e-14
7.94393e-13
1.35014e-14
1.13443e-14
2.69842e-13
1.00973e-14