/*--------------------------------*- C++ -*----------------------------------*\
| =========                 |                                                 |
| \\      /  F ield         | OpenFOAM: The Open Source CFD Toolbox           |
|  \\    /   O peration     | Version:  2.1.1                                 |
|   \\  /    A nd           | Web:      www.OpenFOAM.org                      |
|    \\/     M anipulation  |                                                 |
\*---------------------------------------------------------------------------*/
FoamFile
{
    version     2.0;
    format      ascii;
    class       volScalarField;
    location    "0.165";
    object      p;
}
// * * * * * * * * * * * * * * * * * * * * * * * * * * * * * * * * * * * * * //

dimensions      [0 2 -2 0 0 0 0];

internalField   nonuniform List<scalar> 
163952
(
0.0416788
0.0411025
0.0363664
0.0311717
0.029975
0.0273636
0.0267735
0.0264498
0.0366865
0.0323444
0.0273029
0.0248132
0.0235696
0.0227906
0.0224763
0.0223351
0.0337176
0.0279807
0.024477
0.0228374
0.0219248
0.0213869
0.0210482
0.020868
0.0207825
0.0335873
0.0260885
0.0232541
0.0219075
0.0211522
0.0206734
0.0203538
0.0201422
0.020016
0.0199526
0.0335885
0.0255464
0.0227298
0.0214516
0.0207367
0.0202729
0.0199489
0.0197181
0.0195586
0.0194581
0.0194057
0.0337176
0.0260884
0.0227297
0.021308
0.0205454
0.0200566
0.0197111
0.0194572
0.0192705
0.0191385
0.0190529
0.0190075
0.0366859
0.0279804
0.0232539
0.0214514
0.0205453
0.0199869
0.0195986
0.0193119
0.0190962
0.0189356
0.0188207
0.0187452
0.0187047
0.0323441
0.0244767
0.0219073
0.0207365
0.0200565
0.0195985
0.0192649
0.0190131
0.0188218
0.0186785
0.0185753
0.0185071
0.0184703
0.036366
0.0273025
0.022837
0.0211519
0.0202726
0.0197109
0.0193118
0.0190131
0.018785
0.0186106
0.0184795
0.0183848
0.0183219
0.0182879
0.0311712
0.0248127
0.0219243
0.020673
0.0199486
0.0194569
0.019096
0.0188217
0.0186105
0.0184485
0.0183262
0.0182376
0.0181786
0.0181467
0.0299744
0.023569
0.0213864
0.0203534
0.0197177
0.0192702
0.0189353
0.0186783
0.0184794
0.0183262
0.0182103
0.0181261
0.0180699
0.0180394
0.0273629
0.02279
0.0210477
0.0201417
0.0195581
0.019138
0.0188203
0.018575
0.0183846
0.0182375
0.018126
0.0180449
0.0179907
0.0179612
0.041678
0.0267728
0.0224756
0.0208673
0.0200154
0.0194575
0.0190524
0.0187447
0.0185067
0.0183216
0.0181784
0.0180697
0.0179906
0.0179377
0.0179089
0.0411017
0.0264491
0.0223344
0.0207818
0.0199519
0.019405
0.0190069
0.0187042
0.0184699
0.0182875
0.0181464
0.0180392
0.0179611
0.0179088
0.0178804
0.0235048
0.0235617
0.0224995
0.0237088
0.0224398
0.0221257
0.0220809
0.0220601
0.0226042
0.0244182
0.0221054
0.0217932
0.0215326
0.0213418
0.021267
0.0212153
0.0233823
0.0221572
0.0217392
0.0213273
0.0209865
0.0207079
0.0205231
0.0204271
0.0203776
0.0221267
0.0218363
0.0213991
0.0209578
0.0205651
0.0202539
0.0200176
0.019858
0.0197658
0.0197215
0.0221273
0.021707
0.0212149
0.020711
0.020284
0.0199415
0.019682
0.0194907
0.0193589
0.0192786
0.0192401
0.0233823
0.0218364
0.0212148
0.0206309
0.020142
0.019764
0.0194748
0.0192569
0.0190961
0.0189838
0.0189135
0.0188795
0.022604
0.022157
0.0213989
0.0207108
0.0201419
0.0197053
0.0193758
0.0191254
0.0189361
0.0187957
0.0186967
0.0186338
0.0186032
0.0244178
0.0217389
0.0209576
0.0202838
0.0197639
0.0193758
0.0190829
0.0188596
0.0186901
0.0185638
0.0184741
0.0184168
0.0183888
0.022499
0.022105
0.0213269
0.0205647
0.0199412
0.0194745
0.0191253
0.0188596
0.0186558
0.0185003
0.0183839
0.018301
0.0182477
0.0182216
0.0237082
0.0217926
0.0209861
0.0202534
0.0196816
0.0192566
0.0189358
0.0186899
0.0185002
0.0183547
0.0182454
0.0181674
0.0181171
0.0180924
0.0224392
0.021532
0.0207074
0.0200171
0.0194902
0.0190957
0.0187954
0.0185635
0.0183838
0.0182454
0.0181412
0.0180666
0.0180184
0.0179948
0.0221251
0.0213411
0.0205225
0.0198574
0.0193584
0.0189833
0.0186963
0.0184738
0.0183008
0.0181672
0.0180665
0.0179943
0.0179476
0.0179247
0.0235041
0.0220802
0.0212663
0.0204264
0.0197652
0.0192781
0.0189129
0.0186333
0.0184164
0.0182474
0.0181168
0.0180183
0.0179476
0.0179018
0.0178794
0.0235609
0.0220593
0.0212145
0.0203769
0.0197208
0.0192394
0.0188789
0.0186027
0.0183883
0.0182213
0.0180921
0.0179946
0.0179246
0.0178793
0.0178571
0.0198612
0.0198755
0.0199403
0.0203222
0.0205458
0.0204301
0.0203226
0.020282
0.019947
0.020791
0.0203409
0.0202628
0.020168
0.0201292
0.0200998
0.0200745
0.0201574
0.0203546
0.0202543
0.0201337
0.019997
0.0198525
0.0197611
0.0197061
0.0196757
0.0205045
0.0202876
0.0201625
0.0199826
0.0197906
0.0196247
0.0194849
0.0193849
0.0193226
0.0192913
0.0205052
0.0202423
0.0200894
0.0198677
0.0196428
0.0194402
0.019274
0.0191427
0.0190481
0.0189881
0.0189585
0.0201572
0.0202876
0.0200893
0.0198297
0.0195639
0.0193303
0.0191338
0.0189755
0.0188528
0.0187644
0.0187077
0.0186799
0.0199468
0.0203544
0.0201624
0.0198676
0.0195638
0.0192927
0.0190644
0.0188771
0.018728
0.0186135
0.018531
0.0184778
0.0184517
0.0207906
0.0202539
0.0199823
0.0196426
0.0193301
0.0190643
0.0188446
0.0186668
0.0185264
0.0184191
0.0183416
0.0182915
0.018267
0.0199398
0.0203404
0.0201333
0.0197902
0.0194399
0.0191336
0.0188769
0.0186667
0.0184977
0.0183647
0.0182632
0.0181899
0.0181424
0.0181191
0.0203216
0.0202623
0.0199965
0.0196243
0.0192736
0.0189752
0.0187277
0.0185262
0.0183647
0.0182376
0.0181406
0.0180705
0.018025
0.0180026
0.0205452
0.0201674
0.0198519
0.0194844
0.0191423
0.0188524
0.0186132
0.0184188
0.0182631
0.0181405
0.018047
0.0179793
0.0179353
0.0179137
0.0204294
0.0201285
0.0197605
0.0193843
0.0190476
0.0187639
0.0185306
0.0183413
0.0181897
0.0180704
0.0179792
0.0179133
0.0178704
0.0178493
0.0198604
0.0203218
0.0200991
0.0197054
0.0193219
0.0189875
0.0187072
0.0184773
0.0182912
0.0181421
0.0180248
0.0179352
0.0178703
0.0178282
0.0178074
0.0198747
0.0202812
0.0200737
0.0196749
0.0192906
0.0189579
0.0186793
0.0184512
0.0182665
0.0181187
0.0180023
0.0179135
0.0178491
0.0178073
0.0177867
0.018514
0.0185244
0.0186312
0.0188582
0.0191892
0.0191888
0.0191364
0.0191144
0.018646
0.019072
0.0191121
0.0190996
0.0190703
0.0190718
0.0190705
0.019067
0.0187869
0.019116
0.0191035
0.0190964
0.0190677
0.0190159
0.0189801
0.0189547
0.0189405
0.0192192
0.0191192
0.0191132
0.0190629
0.0189967
0.0189325
0.0188697
0.0188198
0.0187851
0.0187669
0.0192197
0.0190995
0.0190945
0.0190314
0.0189419
0.0188485
0.0187627
0.0186882
0.0186311
0.0185929
0.0185735
0.0187867
0.0191192
0.0190943
0.01902
0.0189112
0.018795
0.0186847
0.0185876
0.0185072
0.0184467
0.0184067
0.0183867
0.0186458
0.0191157
0.019113
0.0190313
0.0189112
0.0187763
0.0186443
0.0185247
0.0184229
0.0183408
0.0182797
0.0182394
0.0182193
0.0190716
0.0191031
0.0190627
0.0189417
0.0187949
0.0186442
0.0185034
0.01838
0.0182771
0.0181954
0.0181349
0.0180951
0.0180753
0.0186307
0.0191116
0.019096
0.0189964
0.0188482
0.0186845
0.0185245
0.01838
0.0182558
0.0181535
0.018073
0.0180136
0.0179745
0.0179552
0.0188576
0.019099
0.0190671
0.018932
0.0187623
0.0185873
0.0184226
0.018277
0.0181534
0.0180525
0.0179733
0.0179151
0.0178768
0.0178579
0.0191885
0.0190697
0.0190153
0.0188691
0.0186877
0.0185068
0.0183405
0.0181952
0.0180728
0.0179732
0.0178954
0.0178382
0.0178006
0.017782
0.0191881
0.019071
0.0189795
0.0188192
0.0186305
0.0184462
0.0182793
0.0181346
0.0180133
0.0179149
0.0178381
0.0177817
0.0177447
0.0177264
0.0185132
0.0191355
0.0190697
0.018954
0.0187845
0.0185923
0.0184062
0.0182389
0.0180947
0.0179742
0.0178766
0.0178005
0.0177446
0.017708
0.0176898
0.0185235
0.0191135
0.0190661
0.0189397
0.0187661
0.0185728
0.0183861
0.0182188
0.0180748
0.0179548
0.0178575
0.0177818
0.0177262
0.0176898
0.0176717
0.0177961
0.0178043
0.0178571
0.0180057
0.0182223
0.0182658
0.0182561
0.0182545
0.0178821
0.0181145
0.0182225
0.0182415
0.018247
0.0182593
0.0182675
0.0182721
0.0179719
0.0182239
0.0182501
0.0182832
0.0183015
0.018301
0.0182979
0.0182919
0.0182876
0.0182563
0.0182458
0.0182897
0.018303
0.0183032
0.0182956
0.0182802
0.0182641
0.0182503
0.0182424
0.0182566
0.0182405
0.0182965
0.0183119
0.0182994
0.0182742
0.0182427
0.0182098
0.0181819
0.0181619
0.0181514
0.0179717
0.0182458
0.0182964
0.0183144
0.0182964
0.0182572
0.0182094
0.0181606
0.018116
0.0180803
0.0180556
0.018043
0.0178818
0.0182236
0.0182895
0.0183118
0.0182963
0.018251
0.0181907
0.0181268
0.0180667
0.018015
0.0179747
0.0179474
0.0179335
0.0181141
0.0182497
0.0183027
0.0182992
0.0182571
0.0181906
0.0181149
0.0180405
0.0179736
0.0179177
0.0178749
0.0178461
0.0178316
0.0178566
0.018222
0.0182827
0.0183028
0.0182739
0.0182092
0.0181266
0.0180404
0.0179594
0.0178885
0.0178303
0.0177862
0.0177567
0.0177419
0.0180051
0.0182409
0.018301
0.0182951
0.0182422
0.0181603
0.0180665
0.0179734
0.0178884
0.0178153
0.0177559
0.0177112
0.0176814
0.0176665
0.0182216
0.0182463
0.0183004
0.0182796
0.0182093
0.0181156
0.0180146
0.0179174
0.0178302
0.0177559
0.0176959
0.017651
0.017621
0.0176061
0.0182649
0.0182586
0.0182972
0.0182634
0.0181814
0.0180798
0.0179743
0.0178745
0.0177859
0.017711
0.0176509
0.0176058
0.0175759
0.017561
0.0177952
0.0182552
0.0182667
0.0182911
0.0182496
0.0181613
0.018055
0.0179468
0.0178456
0.0177563
0.0176811
0.0176209
0.0175758
0.0175459
0.017531
0.0178033
0.0182536
0.0182712
0.0182867
0.0182416
0.0181506
0.0180423
0.0179329
0.0178311
0.0177415
0.0176661
0.0176058
0.0175608
0.0175309
0.017516
0.017286
0.0172927
0.0173052
0.0173981
0.0175235
0.0175737
0.0175788
0.0175849
0.0173274
0.0174715
0.0175535
0.0175845
0.0176058
0.0176251
0.0176357
0.0176417
0.0173823
0.017554
0.0175955
0.0176395
0.0176734
0.017694
0.0177078
0.0177135
0.0177153
0.0175544
0.0175812
0.0176394
0.0176779
0.017707
0.0177267
0.0177368
0.0177411
0.0177413
0.0177406
0.0175545
0.0175854
0.0176561
0.017702
0.0177274
0.0177402
0.0177425
0.0177378
0.0177309
0.0177246
0.0177209
0.0173821
0.0175811
0.0176559
0.0177104
0.017738
0.0177451
0.0177392
0.0177254
0.0177084
0.0176927
0.0176809
0.0176745
0.0173271
0.0175537
0.0176392
0.0177018
0.0177379
0.0177465
0.0177356
0.0177136
0.017687
0.0176608
0.0176387
0.017623
0.0176148
0.017471
0.0175951
0.0176776
0.0177272
0.0177449
0.0177355
0.017709
0.0176744
0.0176385
0.0176058
0.0175793
0.0175609
0.0175515
0.0173047
0.0175529
0.017639
0.0177066
0.0177398
0.0177389
0.0177134
0.0176743
0.0176305
0.0175881
0.0175509
0.0175215
0.0175013
0.0174911
0.0173974
0.0175838
0.0176728
0.0177262
0.017742
0.017725
0.0176867
0.0176383
0.017588
0.0175411
0.017501
0.0174697
0.0174484
0.0174376
0.0175227
0.017605
0.0176933
0.0177362
0.0177372
0.0177079
0.0176604
0.0176055
0.0175507
0.0175009
0.0174589
0.0174264
0.0174044
0.0173933
0.0175728
0.0176243
0.017707
0.0177404
0.0177303
0.0176921
0.0176383
0.0175789
0.0175212
0.0174695
0.0174263
0.0173931
0.0173706
0.0173593
0.0172851
0.0175779
0.0176348
0.0177126
0.0177405
0.0177239
0.0176802
0.0176224
0.0175604
0.017501
0.0174481
0.0174042
0.0173705
0.0173478
0.0173363
0.0172917
0.0175839
0.0176407
0.0177144
0.0177397
0.0177201
0.0176738
0.0176141
0.0175509
0.0174906
0.0174372
0.017393
0.0173591
0.0173362
0.0173248
0.0168527
0.0168602
0.0168532
0.0169128
0.0169799
0.0170258
0.0170349
0.0170427
0.0168711
0.0169723
0.0170197
0.017051
0.0170761
0.0170989
0.017111
0.0171177
0.0169054
0.0170198
0.0170633
0.0171073
0.0171437
0.0171704
0.017191
0.0172027
0.017208
0.0170067
0.0170453
0.0171039
0.0171496
0.0171887
0.01722
0.0172424
0.0172577
0.0172661
0.0172698
0.0170068
0.0170528
0.0171222
0.0171773
0.0172192
0.0172512
0.0172728
0.0172857
0.0172928
0.0172961
0.0172972
0.0169051
0.0170452
0.0171221
0.0171872
0.0172354
0.0172683
0.0172884
0.0172981
0.0173009
0.0173001
0.0172982
0.0172969
0.0168707
0.0170194
0.0171036
0.0171771
0.0172353
0.0172739
0.0172947
0.017302
0.0173004
0.0172942
0.0172868
0.0172807
0.0172773
0.0169718
0.0170628
0.0171492
0.0172189
0.0172681
0.0172946
0.0173026
0.0172984
0.0172873
0.0172738
0.0172614
0.017252
0.017247
0.0168525
0.017019
0.0171067
0.0171882
0.0172508
0.0172881
0.0173018
0.0172982
0.0172843
0.0172658
0.017247
0.0172308
0.0172191
0.017213
0.016912
0.0170502
0.017143
0.0172194
0.0172723
0.0172977
0.0173001
0.017287
0.0172657
0.0172417
0.0172189
0.0172001
0.0171867
0.0171798
0.016979
0.0170753
0.0171696
0.0172417
0.0172851
0.0173004
0.0172938
0.0172735
0.0172468
0.0172188
0.0171933
0.0171726
0.0171581
0.0171507
0.0170248
0.017098
0.0171902
0.0172569
0.0172921
0.0172995
0.0172863
0.0172609
0.0172304
0.0171999
0.0171725
0.0171505
0.0171353
0.0171275
0.0168517
0.0170339
0.01711
0.0172017
0.0172652
0.0172952
0.0172975
0.0172801
0.0172515
0.0172186
0.0171864
0.0171579
0.0171352
0.0171195
0.0171115
0.0168591
0.0170416
0.0171166
0.017207
0.0172688
0.0172963
0.0172961
0.0172766
0.0172464
0.0172125
0.0171794
0.0171504
0.0171273
0.0171114
0.0171033
0.0164627
0.0164707
0.01646
0.0164989
0.0165312
0.0165694
0.0165791
0.0165868
0.0164733
0.0165505
0.016572
0.0165995
0.016623
0.0166456
0.016658
0.016665
0.0164962
0.0165721
0.0166121
0.0166522
0.0166863
0.0167129
0.0167349
0.0167487
0.0167554
0.0165538
0.0165935
0.0166474
0.0166926
0.0167332
0.0167678
0.0167949
0.0168152
0.0168278
0.0168338
0.0165538
0.0166012
0.0166644
0.0167194
0.0167665
0.0168065
0.0168378
0.0168604
0.0168759
0.0168852
0.0168895
0.0164959
0.0165934
0.0166642
0.016729
0.0167843
0.0168294
0.0168639
0.0168882
0.0169038
0.0169134
0.0169185
0.0169208
0.0164728
0.0165717
0.0166471
0.0167191
0.0167842
0.0168371
0.0168761
0.0169022
0.0169179
0.0169261
0.0169299
0.0169312
0.0169315
0.01655
0.0166116
0.0166922
0.0167661
0.0168292
0.016876
0.0169064
0.0169234
0.0169308
0.0169324
0.0169311
0.0169292
0.0169279
0.0164593
0.0165713
0.0166516
0.0167326
0.016806
0.0168636
0.016902
0.0169233
0.0169318
0.0169321
0.0169283
0.0169231
0.0169186
0.0169161
0.0164981
0.0165987
0.0166856
0.0167671
0.0168372
0.0168877
0.0169175
0.0169306
0.016932
0.0169268
0.0169187
0.0169105
0.0169042
0.0169007
0.0165302
0.0166221
0.0167121
0.0167941
0.0168597
0.0169033
0.0169257
0.016932
0.016928
0.0169186
0.0169074
0.016897
0.0168893
0.0168852
0.0165683
0.0166445
0.0167339
0.0168143
0.0168751
0.0169127
0.0169293
0.0169307
0.0169227
0.0169103
0.0168969
0.0168851
0.0168764
0.0168719
0.0164616
0.016578
0.0166569
0.0167476
0.0168268
0.0168843
0.0169177
0.0169305
0.0169286
0.0169181
0.0169038
0.0168891
0.0168763
0.0168671
0.0168623
0.0164695
0.0165856
0.0166638
0.0167543
0.0168327
0.0168885
0.0169199
0.0169307
0.0169272
0.0169155
0.0169003
0.0168849
0.0168717
0.0168622
0.0168572
0.0161075
0.016115
0.0161069
0.0161327
0.0161446
0.0161751
0.016184
0.0161907
0.0161166
0.0161783
0.0161826
0.0162057
0.016226
0.0162463
0.0162579
0.0162645
0.0161332
0.0161829
0.0162179
0.016253
0.0162832
0.0163075
0.0163282
0.0163418
0.0163487
0.0161638
0.0162005
0.016248
0.0162895
0.0163277
0.0163614
0.016389
0.0164105
0.0164246
0.0164316
0.0161638
0.0162074
0.0162629
0.0163137
0.0163601
0.0164017
0.0164364
0.0164635
0.0164832
0.0164957
0.0165018
0.0161328
0.0162003
0.0162627
0.0163224
0.0163775
0.0164265
0.0164675
0.0164994
0.0165227
0.0165386
0.0165484
0.016553
0.0161161
0.0161824
0.0162477
0.0163135
0.0163774
0.0164349
0.0164827
0.0165195
0.016546
0.0165639
0.0165753
0.016582
0.016585
0.0161776
0.0162173
0.016289
0.0163597
0.0164262
0.0164825
0.0165258
0.0165564
0.0165767
0.0165891
0.0165963
0.0166
0.0166016
0.0161061
0.0161818
0.0162523
0.0163271
0.0164011
0.0164671
0.0165192
0.0165563
0.0165804
0.0165947
0.0166023
0.0166058
0.0166071
0.0166075
0.0161318
0.0162047
0.0162824
0.0163607
0.0164358
0.0164989
0.0165456
0.0165764
0.0165945
0.0166038
0.0166074
0.016608
0.0166074
0.0166069
0.0161435
0.016225
0.0163065
0.0163881
0.0164627
0.016522
0.0165634
0.0165887
0.016602
0.0166072
0.0166078
0.0166061
0.0166042
0.0166029
0.0161739
0.0162451
0.0163271
0.0164095
0.0164823
0.0165378
0.0165747
0.0165958
0.0166054
0.0166077
0.016606
0.0166028
0.0165999
0.0165981
0.0161061
0.0161827
0.0162566
0.0163406
0.0164235
0.0164947
0.0165475
0.0165812
0.0165994
0.0166066
0.016607
0.0166039
0.0165997
0.0165961
0.0165941
0.0161135
0.0161893
0.0162632
0.0163475
0.0164304
0.0165007
0.016552
0.0165841
0.0166009
0.0166069
0.0166064
0.0166026
0.0165979
0.016594
0.0165918
0.0157815
0.0157879
0.0157835
0.0158012
0.0158003
0.0158244
0.015832
0.0158375
0.015791
0.0158414
0.0158344
0.0158534
0.0158705
0.0158878
0.0158978
0.0159038
0.0158038
0.015835
0.0158649
0.015895
0.0159211
0.0159422
0.0159605
0.0159729
0.0159794
0.0158172
0.0158497
0.0158907
0.0159273
0.0159614
0.0159922
0.016018
0.0160387
0.0160526
0.0160597
0.0158171
0.0158557
0.0159034
0.0159486
0.0159912
0.0160308
0.0160652
0.0160932
0.0161143
0.0161281
0.016135
0.0158034
0.0158494
0.0159033
0.0159562
0.0160073
0.0160552
0.0160976
0.0161324
0.0161593
0.0161787
0.016191
0.016197
0.0157904
0.0158345
0.0158903
0.0159483
0.0160071
0.0160635
0.0161138
0.0161554
0.0161878
0.0162115
0.0162278
0.0162379
0.0162428
0.0158407
0.0158643
0.0159267
0.0159908
0.0160549
0.0161136
0.0161628
0.0162012
0.0162294
0.0162491
0.0162622
0.01627
0.0162737
0.0157826
0.0158335
0.0158942
0.0159607
0.0160302
0.0160971
0.0161551
0.016201
0.016235
0.0162587
0.0162745
0.0162845
0.0162902
0.0162929
0.0158001
0.0158523
0.0159201
0.0159913
0.0160645
0.0161319
0.0161873
0.0162291
0.0162586
0.0162782
0.0162906
0.0162979
0.016302
0.0163037
0.015799
0.0158693
0.0159411
0.016017
0.0160923
0.0161586
0.0162109
0.0162487
0.0162742
0.0162904
0.0163001
0.0163054
0.016308
0.0163091
0.0158231
0.0158865
0.0159593
0.0160375
0.0161132
0.0161778
0.0162271
0.0162616
0.0162841
0.0162977
0.0163052
0.0163091
0.0163107
0.0163114
0.0157799
0.0158305
0.0158964
0.0159715
0.0160513
0.016127
0.01619
0.0162371
0.0162693
0.0162897
0.0163015
0.0163078
0.0163106
0.0163117
0.016312
0.0157862
0.015836
0.0159022
0.0159779
0.0160583
0.0161337
0.0161959
0.0162418
0.0162728
0.0162922
0.0163032
0.0163087
0.0163111
0.0163119
0.016312
0.015479
0.0154843
0.0154831
0.0154959
0.0154861
0.0155053
0.0155113
0.0155158
0.0154891
0.0155312
0.0155162
0.0155318
0.015546
0.0155604
0.0155686
0.0155737
0.0154997
0.0155174
0.0155427
0.0155682
0.0155902
0.015608
0.0156236
0.0156342
0.0156399
0.0155016
0.0155298
0.0155648
0.0155963
0.0156259
0.0156528
0.0156757
0.0156944
0.0157072
0.0157138
0.0155015
0.0155351
0.0155758
0.0156148
0.0156524
0.0156882
0.0157201
0.0157467
0.0157673
0.0157811
0.015788
0.0154992
0.0155296
0.0155756
0.0156214
0.0156668
0.0157109
0.0157514
0.015786
0.0158137
0.0158342
0.0158476
0.0158542
0.0154885
0.0155169
0.0155643
0.0156145
0.0156666
0.0157187
0.0157674
0.0158097
0.0158442
0.0158707
0.0158896
0.0159017
0.0159077
0.0155304
0.015542
0.0155957
0.015652
0.0157106
0.0157672
0.0158175
0.0158591
0.0158915
0.0159155
0.0159322
0.0159427
0.0159477
0.0154821
0.0155152
0.0155672
0.0156251
0.0156875
0.0157509
0.0158094
0.0158589
0.0158982
0.0159277
0.0159488
0.0159632
0.015972
0.0159762
0.0154947
0.0155306
0.0155891
0.0156518
0.0157193
0.0157853
0.0158437
0.0158912
0.0159275
0.015954
0.0159725
0.0159847
0.0159921
0.0159956
0.0154847
0.0155446
0.0156067
0.0156746
0.0157457
0.0158128
0.01587
0.015915
0.0159485
0.0159723
0.0159885
0.015999
0.0160053
0.0160082
0.0155037
0.0155589
0.0156222
0.0156931
0.0157661
0.0158332
0.0158888
0.0159316
0.0159627
0.0159844
0.0159989
0.0160081
0.0160134
0.0160159
0.0154773
0.0155097
0.015567
0.0156327
0.0157057
0.0157798
0.0158465
0.0159008
0.0159419
0.0159714
0.0159916
0.016005
0.0160133
0.0160181
0.0160202
0.0154825
0.015514
0.0155719
0.0156383
0.0157122
0.0157866
0.015853
0.0159066
0.0159468
0.0159755
0.015995
0.0160077
0.0160156
0.0160201
0.0160221
0.015195
0.0151993
0.0152006
0.0152111
0.0151941
0.0152094
0.015214
0.0152177
0.0152058
0.0152415
0.0152209
0.0152337
0.0152452
0.0152568
0.0152633
0.0152675
0.0152148
0.0152229
0.0152441
0.0152654
0.0152836
0.0152982
0.0153109
0.0153196
0.0153244
0.015209
0.0152336
0.0152632
0.0152898
0.0153147
0.0153374
0.0153569
0.0153729
0.015384
0.0153898
0.0152088
0.015238
0.0152727
0.0153058
0.0153379
0.0153688
0.015397
0.0154209
0.0154397
0.0154525
0.0154591
0.0152143
0.0152332
0.0152725
0.0153114
0.0153504
0.0153893
0.0154259
0.0154581
0.0154846
0.0155046
0.015518
0.0155247
0.0152051
0.0152223
0.0152627
0.0153054
0.0153503
0.0153963
0.0154408
0.0154811
0.015515
0.0155419
0.0155617
0.0155746
0.015581
0.0152406
0.0152433
0.0152891
0.0153374
0.0153889
0.0154406
0.0154887
0.0155302
0.0155639
0.0155898
0.0156084
0.0156203
0.0156262
0.0151994
0.0152197
0.0152643
0.0153138
0.0153681
0.0154253
0.0154807
0.01553
0.015571
0.0156033
0.0156275
0.0156445
0.0156553
0.0156606
0.0152097
0.0152323
0.0152823
0.0153363
0.015396
0.0154573
0.0155145
0.0155635
0.0156031
0.0156335
0.0156559
0.0156713
0.015681
0.0156857
0.0151925
0.0152436
0.0152967
0.0153556
0.0154198
0.0154836
0.0155412
0.0155892
0.0156271
0.0156557
0.0156763
0.0156904
0.0156992
0.0157034
0.0152076
0.0152551
0.0153093
0.0153714
0.0154384
0.0155035
0.0155608
0.0156076
0.015644
0.015671
0.0156903
0.0157033
0.0157114
0.0157152
0.015193
0.0152121
0.0152614
0.0153178
0.0153824
0.0154511
0.0155167
0.0155735
0.0156194
0.0156546
0.0156805
0.0156989
0.0157112
0.0157188
0.0157224
0.0151972
0.0152157
0.0152655
0.0153225
0.015388
0.0154575
0.0155232
0.0155798
0.0156251
0.0156597
0.015685
0.0157029
0.0157149
0.0157222
0.0157257
0.0149251
0.0149286
0.0149321
0.014941
0.0149193
0.0149315
0.0149346
0.0149376
0.0149371
0.0149681
0.0149436
0.0149538
0.0149629
0.014972
0.0149767
0.0149801
0.0149452
0.0149466
0.0149642
0.0149816
0.0149962
0.0150076
0.0150174
0.0150241
0.0150279
0.0149342
0.0149558
0.0149808
0.0150027
0.015023
0.0150413
0.0150571
0.01507
0.0150791
0.015084
0.0149341
0.0149595
0.0149889
0.0150164
0.0150429
0.0150685
0.0150921
0.0151125
0.0151288
0.01514
0.0151458
0.0149446
0.0149554
0.0149887
0.0150211
0.0150536
0.0150863
0.0151178
0.0151463
0.0151702
0.0151886
0.0152011
0.0152075
0.0149363
0.0149459
0.0149802
0.015016
0.0150534
0.0150924
0.0151313
0.0151675
0.015199
0.0152247
0.015244
0.0152568
0.0152632
0.0149671
0.0149632
0.0150019
0.0150422
0.0150859
0.0151311
0.0151746
0.0152136
0.0152464
0.0152724
0.0152915
0.015304
0.0153102
0.0149308
0.0149423
0.0149804
0.0150219
0.0150676
0.0151172
0.0151671
0.0152134
0.0152535
0.0152864
0.0153117
0.01533
0.0153419
0.0153477
0.0149394
0.0149523
0.0149947
0.0150401
0.0150911
0.0151454
0.0151984
0.015246
0.0152861
0.0153182
0.0153425
0.0153599
0.015371
0.0153764
0.0149174
0.0149611
0.0150059
0.0150556
0.0151112
0.0151691
0.0152238
0.0152718
0.0153113
0.0153423
0.0153656
0.015382
0.0153924
0.0153975
0.0149294
0.0149699
0.0150155
0.0150683
0.0151273
0.0151873
0.0152429
0.0152907
0.0153294
0.0153595
0.0153818
0.0153974
0.0154073
0.0154122
0.0149229
0.0149323
0.0149745
0.015022
0.0150772
0.0151383
0.0151996
0.0152556
0.015303
0.0153411
0.0153704
0.015392
0.0154072
0.0154167
0.0154213
0.0149262
0.0149352
0.0149777
0.0150257
0.0150819
0.015144
0.0152058
0.0152618
0.015309
0.0153468
0.0153757
0.015397
0.0154118
0.0154212
0.0154257
0.014666
0.0146691
0.0146748
0.0146825
0.0146581
0.0146678
0.0146691
0.0146716
0.0146799
0.0147078
0.0146808
0.0146887
0.0146953
0.0147019
0.0147048
0.0147074
0.0146877
0.014685
0.0146994
0.0147131
0.0147241
0.0147322
0.0147391
0.0147436
0.0147464
0.0146742
0.0146931
0.0147139
0.0147313
0.0147468
0.0147606
0.0147724
0.014782
0.0147889
0.0147926
0.014674
0.0146959
0.0147208
0.0147427
0.0147634
0.0147834
0.014802
0.0148183
0.0148315
0.0148408
0.0148456
0.0146871
0.0146927
0.0147205
0.0147467
0.0147723
0.0147984
0.014824
0.0148478
0.0148682
0.0148843
0.0148954
0.0149011
0.014679
0.0146842
0.0147133
0.0147423
0.0147721
0.0148035
0.0148356
0.0148666
0.0148945
0.0149177
0.0149356
0.0149477
0.0149538
0.0147067
0.0146983
0.0147304
0.0147627
0.0147979
0.0148354
0.0148729
0.0149079
0.0149383
0.014963
0.0149816
0.014994
0.0150001
0.0146733
0.0146793
0.0147118
0.0147456
0.0147824
0.0148233
0.0148661
0.0149077
0.0149451
0.0149767
0.0150018
0.0150204
0.0150326
0.0150387
0.0146806
0.0146869
0.0147224
0.0147592
0.0148008
0.0148468
0.0148937
0.0149378
0.0149764
0.0150084
0.0150333
0.0150515
0.0150634
0.0150692
0.0146558
0.0146932
0.0147303
0.0147706
0.0148168
0.014867
0.0149167
0.0149623
0.0150014
0.0150331
0.0150576
0.0150752
0.0150867
0.0150923
0.0146653
0.0146995
0.0147369
0.0147801
0.0148298
0.0148828
0.0149344
0.0149806
0.0150197
0.0150511
0.015075
0.0150922
0.0151033
0.0151087
0.0146635
0.0146664
0.0147022
0.0147412
0.0147867
0.0148388
0.0148937
0.0149462
0.0149928
0.0150317
0.0150627
0.0150862
0.0151031
0.0151139
0.0151192
0.0146664
0.0146688
0.0147047
0.0147439
0.0147903
0.0148435
0.0148992
0.0149522
0.0149988
0.0150376
0.0150684
0.0150917
0.0151084
0.0151191
0.0151243
0.0144153
0.0144181
0.0144265
0.0144332
0.0144085
0.0144159
0.0144148
0.0144171
0.0144322
0.0144582
0.01443
0.0144356
0.0144397
0.0144435
0.0144444
0.0144463
0.0144402
0.0144361
0.0144473
0.0144571
0.0144643
0.0144688
0.0144724
0.0144746
0.0144764
0.0144272
0.0144431
0.0144598
0.0144724
0.0144828
0.0144918
0.0144992
0.0145053
0.0145097
0.0145123
0.014427
0.0144448
0.0144653
0.0144815
0.0144961
0.0145099
0.0145231
0.0145349
0.0145447
0.0145517
0.0145555
0.0144396
0.0144427
0.014465
0.0144846
0.014503
0.0145219
0.0145411
0.0145596
0.014576
0.0145893
0.0145986
0.0146035
0.0144313
0.0144352
0.0144591
0.014481
0.0145027
0.0145259
0.0145507
0.0145757
0.014599
0.0146192
0.014635
0.0146459
0.0146515
0.014457
0.0144461
0.0144714
0.0144953
0.0145213
0.0145504
0.0145811
0.014611
0.014638
0.0146606
0.014678
0.0146898
0.0146957
0.0144249
0.0144284
0.0144557
0.0144815
0.0145089
0.0145403
0.0145751
0.0146107
0.0146442
0.0146735
0.0146975
0.0147156
0.0147277
0.0147338
0.0144311
0.0144335
0.0144624
0.0144901
0.0145217
0.0145585
0.0145982
0.0146374
0.0146733
0.0147039
0.0147285
0.0147468
0.0147589
0.0147649
0.0144058
0.0144371
0.0144665
0.0144972
0.0145332
0.0145746
0.014618
0.0146598
0.014697
0.0147282
0.0147529
0.0147711
0.0147831
0.014789
0.0144128
0.0144407
0.0144698
0.014503
0.0145427
0.0145876
0.0146336
0.0146769
0.0147149
0.0147463
0.0147709
0.0147889
0.0148006
0.0148065
0.0144123
0.0144117
0.0144413
0.0144718
0.0145071
0.0145495
0.0145967
0.0146443
0.0146884
0.0147267
0.0147581
0.0147826
0.0148004
0.014812
0.0148178
0.0144149
0.0144138
0.0144431
0.0144734
0.0145096
0.0145531
0.0146013
0.0146497
0.0146942
0.0147326
0.0147639
0.0147883
0.014806
0.0148176
0.0148233
0.0141703
0.014173
0.014185
0.0141913
0.0141702
0.0141742
0.01417
0.0141722
0.0141917
0.0142176
0.0141902
0.0141929
0.0141938
0.0141943
0.0141926
0.0141939
0.014201
0.0141991
0.0142064
0.0142113
0.0142139
0.0142142
0.0142139
0.0142135
0.0142142
0.014193
0.0142043
0.0142161
0.0142232
0.0142277
0.0142311
0.0142337
0.0142359
0.0142377
0.0142391
0.0141928
0.0142038
0.0142197
0.0142295
0.0142371
0.0142442
0.0142515
0.0142585
0.0142648
0.0142695
0.0142722
0.0142003
0.0142039
0.0142194
0.0142317
0.0142418
0.0142529
0.0142653
0.0142782
0.0142904
0.0143007
0.0143082
0.0143122
0.0141907
0.0141982
0.0142153
0.0142289
0.0142416
0.0142558
0.0142727
0.0142914
0.0143099
0.0143267
0.0143403
0.0143499
0.0143549
0.0142164
0.0142052
0.0142221
0.0142362
0.0142523
0.0142724
0.0142958
0.0143202
0.0143434
0.0143636
0.0143796
0.0143905
0.0143961
0.0141833
0.0141885
0.0142097
0.0142263
0.014243
0.0142644
0.0142907
0.0143199
0.014349
0.0143756
0.014398
0.0144153
0.014427
0.0144329
0.0141889
0.0141905
0.0142117
0.0142292
0.0142499
0.0142769
0.0143089
0.0143428
0.0143753
0.0144041
0.0144278
0.0144458
0.0144578
0.0144638
0.0141666
0.0141907
0.0142115
0.0142314
0.0142566
0.0142887
0.0143254
0.0143627
0.0143974
0.0144275
0.0144518
0.0144701
0.0144822
0.0144883
0.0141704
0.0141908
0.0142109
0.0142333
0.0142625
0.0142988
0.0143387
0.0143783
0.0144144
0.0144452
0.0144698
0.0144882
0.0145003
0.0145063
0.0141668
0.0141662
0.014189
0.0142102
0.0142348
0.0142669
0.014306
0.0143481
0.014389
0.0144259
0.014457
0.0144817
0.0145
0.0145121
0.0145181
0.0141692
0.0141683
0.0141902
0.0142107
0.014236
0.0142694
0.0143098
0.0143529
0.0143944
0.0144316
0.0144628
0.0144876
0.0145059
0.0145179
0.0145239
0.0139271
0.01393
0.0139467
0.0139542
0.013945
0.0139426
0.0139328
0.0139356
0.0139547
0.0139846
0.013961
0.013959
0.0139558
0.0139514
0.0139463
0.0139471
0.0139683
0.0139744
0.0139756
0.0139727
0.013969
0.0139642
0.0139593
0.0139558
0.0139555
0.0139812
0.0139753
0.0139795
0.0139796
0.0139767
0.0139736
0.013971
0.0139692
0.0139684
0.0139687
0.013981
0.0139699
0.0139799
0.0139817
0.0139813
0.0139812
0.0139823
0.0139847
0.0139875
0.0139901
0.0139919
0.0139676
0.0139749
0.0139796
0.0139829
0.0139836
0.0139864
0.0139919
0.0139994
0.0140076
0.0140153
0.0140212
0.0140245
0.0139537
0.0139734
0.0139787
0.0139811
0.0139833
0.013988
0.0139971
0.0140097
0.0140238
0.0140375
0.0140492
0.0140576
0.0140621
0.0139836
0.0139744
0.0139785
0.0139803
0.0139857
0.0139968
0.0140132
0.0140326
0.0140523
0.0140703
0.0140849
0.0140951
0.0141004
0.0139452
0.0139594
0.0139711
0.0139751
0.0139798
0.0139908
0.014009
0.0140322
0.0140573
0.0140813
0.0141022
0.0141187
0.01413
0.0141357
0.0139518
0.0139564
0.0139667
0.0139715
0.0139805
0.0139979
0.0140227
0.0140516
0.014081
0.0141079
0.0141307
0.0141482
0.0141601
0.0141662
0.0139399
0.0139519
0.013961
0.0139683
0.0139824
0.0140058
0.0140361
0.0140692
0.0141015
0.0141303
0.0141542
0.0141724
0.0141846
0.0141907
0.0139377
0.0139471
0.0139557
0.0139661
0.0139849
0.0140131
0.0140474
0.0140835
0.0141177
0.0141476
0.0141721
0.0141905
0.0142028
0.014209
0.013923
0.0139282
0.0139419
0.0139518
0.013965
0.0139872
0.0140187
0.0140556
0.0140934
0.0141287
0.0141592
0.014184
0.0142026
0.0142149
0.0142211
0.0139255
0.0139309
0.0139427
0.0139514
0.0139651
0.0139887
0.0140217
0.0140598
0.0140985
0.0141342
0.014165
0.0141899
0.0142085
0.0142209
0.014227
0.0136769
0.0136809
0.0137026
0.0137175
0.0137407
0.0137202
0.0137004
0.0137055
0.0137126
0.0137607
0.0137419
0.0137316
0.0137227
0.0137103
0.0136999
0.0137007
0.0137409
0.0137623
0.0137531
0.0137357
0.0137228
0.0137118
0.0137018
0.0136949
0.0136939
0.013817
0.0137596
0.013743
0.0137343
0.0137223
0.0137118
0.0137041
0.0136988
0.0136958
0.0136955
0.0138168
0.0137483
0.0137413
0.0137304
0.0137213
0.0137136
0.0137092
0.0137077
0.0137081
0.0137092
0.0137105
0.01374
0.013759
0.0137409
0.013731
0.0137207
0.0137155
0.013715
0.0137183
0.0137237