/*--------------------------------*- C++ -*----------------------------------*\
| =========                 |                                                 |
| \\      /  F ield         | OpenFOAM: The Open Source CFD Toolbox           |
|  \\    /   O peration     | Version:  2.1.1                                 |
|   \\  /    A nd           | Web:      www.OpenFOAM.org                      |
|    \\/     M anipulation  |                                                 |
\*---------------------------------------------------------------------------*/
FoamFile
{
    version     2.0;
    format      ascii;
    class       surfaceScalarField;
    location    "0.0025";
    object      phi;
}
// * * * * * * * * * * * * * * * * * * * * * * * * * * * * * * * * * * * * * //

dimensions      [0 3 -1 0 0 0 0];

internalField   nonuniform List<scalar> 
29298
(
-5.88551e-13
-1.43486e-11
5.65399e-11
-4.16031e-11
1.40812e-12
-2.03572e-12
-1.41973e-11
4.97903e-11
-3.49654e-11
1.96614e-12
-8.45594e-12
1.52163e-11
-8.72645e-12
1.87136e-13
-1.34516e-13
8.73891e-10
6.2017e-11
6.28599e-11
-6.20189e-11
-6.28636e-11
-8.73944e-10
3.51107e-16
-2.11643e-14
8.80088e-10
6.47568e-11
6.61117e-11
-6.4598e-11
-6.6013e-11
-8.80137e-10
8.98169e-13
-2.60256e-13
9.76216e-10
5.75158e-11
4.01288e-11
-5.74539e-11
-4.07835e-11
-9.76262e-10
5.78517e-11
-2.47372e-13
7.63033e-10
4.27231e-11
4.83461e-11
-4.23846e-11
-4.82393e-11
4.45097e-11
-5.66957e-11
-4.49148e-11
-7.63084e-10
6.50689e-12
1.24014e-11
-1.35238e-11
1.16758e-10
-6.42907e-11
-2.54819e-12
-8.46177e-13
-9.66894e-12
4.24124e-11
-2.93491e-11
-3.11285e-13
1.78418e-13
1.12564e-09
-1.12564e-09
-6.53544e-13
3.29463e-13
1.13947e-09
-1.13948e-09
-8.93474e-13
1.59591e-14
1.1862e-09
-1.18624e-09
-2.09588e-12
9.76633e-13
1.16321e-09
-1.16323e-09
7.71125e-13
-1.33121e-12
9.02889e-10
4.66176e-11
5.507e-11
-4.79587e-11
-5.52227e-11
-9.0293e-10
6.50557e-11
-1.81186e-13
7.23304e-10
5.79725e-11
6.16513e-11
-5.75282e-11
-6.0905e-11
4.47476e-11
-6.46751e-11
-4.53052e-11
-7.23366e-10
1.63109e-11
1.40337e-11
-1.44721e-11
1.02229e-10
-5.30465e-11
-1.87128e-12
-3.10776e-12
-1.13182e-11
5.16282e-11
-3.5331e-11
2.28904e-13
-4.51023e-14
1.12866e-09
-1.12867e-09
5.94887e-13
-5.01e-15
1.13679e-09
-1.13682e-09
7.26296e-13
-1.1372e-13
1.15389e-09
-1.15389e-09
1.88655e-12
-1.46204e-13
1.1688e-09
-1.16884e-09
4.48659e-13
1.32433e-13
1.15642e-09
-1.15645e-09
-7.33275e-13
1.039e-12
1.13243e-09
-1.13247e-09
1.76462e-12
-1.35875e-12
8.83228e-10
4.7025e-11
5.89561e-11
-4.81773e-11
-5.89427e-11
-8.83228e-10
5.84214e-11
-1.83285e-13
7.47959e-10
5.84889e-11
6.28643e-11
-5.7959e-11
-6.19422e-11
4.38399e-11
-5.72497e-11
-4.44557e-11
-7.4802e-10
1.1464e-11
6.03433e-12
-1.43863e-11
1.27866e-10
-7.25575e-11
2.65466e-12
-1.23447e-11
2.3508e-11
-1.3818e-11
-1.65448e-13
9.82329e-14
1.13047e-09
-1.13046e-09
-3.07223e-13
1.28037e-13
1.13485e-09
-1.13484e-09
-4.35906e-13
1.24582e-14
1.14038e-09
-1.14037e-09
-6.66768e-13
9.25391e-14
1.14398e-09
-1.14399e-09
-1.62255e-13
-3.59808e-13
1.14643e-09
-1.14644e-09
9.24537e-13
-3.41686e-14
1.15433e-09
-1.15435e-09
-4.19819e-13
2.73747e-14
1.14594e-09
-1.14599e-09
-1.79655e-12
1.22e-12
1.13676e-09
-1.13679e-09
1.22575e-12
-1.7681e-12
8.82015e-10
4.52815e-11
5.28486e-11
-4.63172e-11
-5.30322e-11
-8.8205e-10
4.33199e-11
9.85247e-13
7.20136e-10
5.68184e-11
5.05853e-11
-5.63327e-11
-5.08136e-11
3.38536e-11
-4.23557e-11
-3.48066e-11
-7.20164e-10
1.0682e-11
4.51796e-11
-1.25423e-11
1.06163e-13
-3.28682e-14
1.13542e-09
-1.13541e-09
2.35207e-13
-1.39448e-14
1.13743e-09
-1.13742e-09
2.4909e-13
-1.46637e-14
1.13964e-09
-1.13963e-09
3.33524e-13
4.47586e-15
1.13945e-09
-1.13944e-09
-9.00367e-14
5.7154e-14
1.13668e-09
-1.13668e-09
-2.13686e-13
1.06687e-13
1.13422e-09
-1.13424e-09
-5.90418e-14
-1.32213e-13
1.13581e-09
-1.13581e-09
1.29511e-12
-1.04052e-13
1.14333e-09
-1.14336e-09
-1.00879e-12
5.58089e-13
1.13152e-09
-1.13154e-09
-9.98481e-13
1.00755e-12
1.12343e-09
-1.12347e-09
5.06017e-11
-1.23036e-12
7.20894e-10
3.3758e-11
4.33086e-11
-3.47145e-11
-4.23464e-11
5.68373e-11
-5.08289e-11
-5.63541e-11
-7.20925e-10
1.89091e-11
4.72877e-11
-1.55957e-11
-8.41319e-14
1.43308e-14
1.13845e-09
-1.13841e-09
-1.51366e-13
2.34702e-14
1.13909e-09
-1.13906e-09
-1.98784e-13
7.89155e-15
1.1398e-09
-1.13978e-09
-2.46872e-13
2.81442e-14
1.13913e-09
-1.13911e-09
-2.17725e-13
1.07241e-14
1.13652e-09
-1.1365e-09
-1.64185e-13
2.1287e-14
1.13229e-09
-1.13226e-09
-4.65554e-13
1.84586e-13
1.12764e-09
-1.12766e-09
-5.73433e-13
4.7875e-15
1.12339e-09
-1.12339e-09
-5.65402e-13
5.64653e-13
1.12653e-09
-1.12655e-09
1.76481e-12
-1.30391e-12
1.13207e-09
-1.13209e-09
5.30005e-11
1.78624e-12
8.82512e-10
4.53085e-11
-5.31809e-11
-4.63462e-11
-8.82547e-10
-6.88254e-12
1.02053e-11
2.97558e-13
9.06543e-11
-4.12747e-11
1.96954e-14
-3.85787e-14
1.1402e-09
-1.14017e-09
5.38261e-14
-3.51515e-14
1.14018e-09
-1.14016e-09
4.66734e-14
-8.04155e-15
1.1401e-09
-1.14008e-09
5.86615e-14
-5.80581e-15
1.13913e-09
-1.13911e-09
-1.49247e-14
5.98293e-14
1.13701e-09
-1.13699e-09
-4.77877e-14
3.60742e-14
1.13388e-09
-1.13387e-09
-1.21014e-14
1.36648e-13
1.12991e-09
-1.1299e-09
-1.15749e-14
-5.65845e-16
1.12505e-09
-1.12505e-09
9.64107e-14
4.56298e-13
1.12378e-09
-1.12378e-09
-1.22931e-12
5.1202e-14
1.14371e-09
-1.14374e-09
1.71821e-13
4.13429e-13
1.13696e-09
-1.13699e-09
6.28631e-11
-1.76301e-12
7.47991e-10
4.38204e-11
5.84139e-11
-4.44393e-11
-5.72447e-11
5.84846e-11
-6.19427e-11
-5.79599e-11
-7.48051e-10
5.81355e-12
1.08398e-11
-4.47429e-12
1.07396e-10
-5.67114e-11
-4.47343e-14
-3.25259e-14
1.14156e-09
-1.14153e-09
-8.34485e-14
-3.04505e-14
1.14131e-09
-1.14127e-09
-1.12016e-13
-1.17067e-14
1.14087e-09
-1.14084e-09
-1.34328e-13
-1.65516e-14
1.13979e-09
-1.13976e-09
-1.4094e-13
3.50845e-14
1.13799e-09
-1.13796e-09
-1.36071e-13
4.7892e-15
1.13568e-09
-1.13566e-09
-1.4915e-13
1.28021e-13
1.13313e-09
-1.1331e-09
-2.05291e-13
3.80289e-14
1.13009e-09
-1.13008e-09
1.23847e-13
1.39107e-13
1.12783e-09
-1.12784e-09
-3.5326e-14
2.04632e-13
1.13601e-09
-1.13601e-09
1.34854e-12
-9.30096e-13
1.14605e-09
-1.14609e-09
5.89547e-11
7.25292e-13
8.83237e-10
4.70184e-11
-5.89442e-11
-4.81747e-11
-8.83234e-10
5.54221e-12
1.26963e-11
-6.97385e-12
9.10996e-11
-4.34113e-11
-2.91724e-12
-4.90088e-12
2.65674e-11
-1.87493e-11
4.58012e-15
-6.2097e-14
1.14267e-09
-1.14266e-09
2.16e-14
-5.97188e-14
1.14234e-09
-1.14232e-09
1.97882e-14
-2.69365e-14
1.14178e-09
-1.14176e-09
2.23708e-14
-3.66219e-14
1.1407e-09
-1.14068e-09
-5.24532e-15
3.93617e-14
1.13927e-09
-1.13924e-09
-1.58167e-14
-7.12708e-15
1.13757e-09
-1.13754e-09
-4.76938e-14
1.29429e-13
1.13573e-09
-1.1357e-09
-2.57398e-14
1.87831e-15
1.13394e-09
-1.13393e-09
-1.13769e-13
2.05995e-13
1.13237e-09
-1.13235e-09
2.62544e-14
8.38806e-14
1.13428e-09
-1.1343e-09
-1.04883e-12
1.56563e-13
1.15434e-09
-1.15436e-09
1.71596e-13
-4.58599e-13
1.13237e-09
-1.13241e-09
6.16488e-11
-7.69152e-13
7.23252e-10
4.47532e-11
6.50541e-11
-4.53113e-11
-6.46789e-11
5.79684e-11
-6.09069e-11
-5.75303e-11
-7.23306e-10
1.14183e-11
7.99471e-12
-8.42845e-12
1.19812e-10
-6.9149e-11
-1.8635e-14
-6.17892e-14
1.14378e-09
-1.14378e-09
-2.51055e-14
-6.20862e-14
1.14346e-09
-1.14345e-09
-3.32996e-14
-3.30127e-14
1.14285e-09
-1.14283e-09
-3.888e-14
-4.76314e-14
1.14185e-09
-1.14183e-09
-5.13231e-14
2.4657e-14
1.14067e-09
-1.14064e-09
-4.69076e-14
-3.81441e-14
1.13928e-09
-1.13925e-09
-7.09376e-14
1.20173e-13
1.13799e-09
-1.13796e-09
-1.90118e-14
-7.12066e-14
1.13703e-09
-1.13701e-09
-6.82565e-14
2.38626e-13
1.13654e-09
-1.13652e-09
3.52708e-13
-3.46228e-13
1.13669e-09
-1.13668e-09
-1.3772e-13
6.58073e-13
1.14638e-09
-1.14639e-09
1.3219e-12
-1.89434e-12
1.1563e-09
-1.15632e-09
5.50687e-11
2.089e-12
9.02778e-10
4.66088e-11
-5.52238e-11
-4.79541e-11
-9.02814e-10
5.84396e-12
1.00445e-11
-7.03108e-12
9.05362e-11
-4.43253e-11
9.02406e-15
-6.4112e-14
1.14487e-09
-1.14488e-09
2.46707e-14
-6.60248e-14
1.14454e-09
-1.14455e-09
3.19566e-14
-3.66031e-14
1.14388e-09
-1.14389e-09
3.23053e-14
-4.93732e-14
1.14302e-09
-1.14302e-09
2.23694e-14
1.68549e-14
1.14192e-09
-1.1419e-09
3.36779e-15
-3.74387e-14
1.14071e-09
-1.14069e-09
-3.63859e-15
9.8734e-14
1.13979e-09
-1.13976e-09
-3.43382e-14
-6.12196e-14
1.13912e-09
-1.1391e-09
-1.12503e-14
1.89812e-13
1.1391e-09
-1.13907e-09
-9.66866e-14
-2.62623e-13
1.13936e-09
-1.13936e-09
1.40341e-13
4.26466e-13
1.14381e-09
-1.14381e-09
-9.81812e-13
-7.3637e-13
1.16856e-09
-1.16859e-09
2.40727e-13
8.81982e-13
1.16292e-09
-1.16293e-09
4.83437e-11
-9.01255e-13
7.62868e-10
4.45211e-11
5.78554e-11
-4.49268e-11
-5.67025e-11
4.27176e-11
-4.82386e-11
-4.23826e-11
-7.62912e-10
3.43325e-12
6.9519e-12
6.21596e-11
-2.42008e-11
1.64359e-15
-5.09658e-14
1.14601e-09
-1.14604e-09
1.21976e-14
-5.34161e-14
1.14562e-09
-1.14565e-09
1.92821e-14
-3.13184e-14
1.14494e-09
-1.14495e-09
1.64721e-14
-4.34415e-14
1.14399e-09
-1.144e-09
1.23965e-14
6.85036e-15
1.14287e-09
-1.14286e-09
9.15199e-16
-3.89498e-14
1.14178e-09
-1.14177e-09
-9.11044e-16
6.98194e-14
1.14087e-09
-1.14083e-09
-1.57825e-14
-6.94041e-14
1.14008e-09
-1.14006e-09
6.64662e-15
1.4158e-13
1.13974e-09
-1.13971e-09
-1.84062e-14
-2.51773e-13
1.13953e-09
-1.13951e-09
1.02717e-13
2.98291e-13
1.14015e-09
-1.14015e-09
-2.44025e-14
-6.08678e-13
1.15353e-09
-1.15353e-09
2.44729e-13
6.42945e-13
1.18567e-09
-1.18569e-09
4.01172e-11
-1.25532e-14
9.75717e-10
5.74655e-11
-4.07732e-11
-5.74131e-11
-9.75755e-10
-7.70143e-12
-1.00268e-12
9.10192e-11
-4.21973e-11
1.45697e-14
-3.28315e-14
1.14715e-09
-1.14719e-09
3.36222e-14
-3.31588e-14
1.14662e-09
-1.14666e-09
4.79031e-14
-2.08513e-14
1.14573e-09
-1.14575e-09
4.62145e-14
-2.66945e-14
1.14459e-09
-1.14461e-09
4.70174e-14
1.58336e-15
1.14347e-09
-1.14346e-09
1.92489e-14
-2.14356e-14
1.14234e-09
-1.14233e-09
2.41621e-14
3.47369e-14
1.1413e-09
-1.14127e-09
-2.87576e-14
-3.51707e-14
1.14016e-09
-1.14014e-09
9.64706e-15
7.42152e-14
1.13903e-09
-1.139e-09
-1.30861e-13
-1.22068e-13
1.13733e-09
-1.13732e-09
4.36527e-16
1.56701e-13
1.13466e-09
-1.13465e-09
-3.341e-13
-2.40631e-13
1.13644e-09
-1.13648e-09
7.2942e-15
3.04024e-13
1.13882e-09
-1.13882e-09
6.60348e-11
-1.98217e-13
8.79322e-10
6.46741e-11
-6.59447e-11
-6.45234e-11
-8.79366e-10
4.37115e-12
1.30496e-11
-1.51379e-12
1.02076e-10
-5.19471e-11
1.33773e-14
1.14803e-09
-1.14808e-09
3.20955e-14
1.14718e-09
-1.14722e-09
4.69806e-14
1.14605e-09
-1.14608e-09
4.51921e-14
1.14491e-09
-1.14492e-09
4.80977e-14
1.1438e-09
-1.1438e-09
2.25419e-14
1.14268e-09
-1.14267e-09
3.23141e-14
1.14156e-09
-1.14153e-09
-2.13693e-14
1.14019e-09
-1.14016e-09
2.60755e-14
1.13841e-09
-1.13837e-09
-1.03253e-13
1.13536e-09
-1.13535e-09
3.94728e-14
1.13034e-09
-1.13032e-09
-1.86668e-13
1.12847e-09
-1.12848e-09
1.23366e-13
1.12533e-09
-1.12533e-09
6.2796e-11
8.73546e-10
6.20089e-11
-6.28065e-11
-6.20187e-11
-8.73592e-10
-9.55161e-13
1.43582e-11
1.08576e-12
9.68223e-11
-4.85144e-11
-4.16067e-11
-5.88521e-13
-1.43526e-11
5.65466e-11
-3.49682e-11
1.40839e-12
-2.03589e-12
-1.42007e-11
4.97964e-11
-8.72813e-12
1.96638e-12
-8.45783e-12
1.52196e-11
1.89872e-13
-1.33668e-13
8.7383e-10
6.20304e-11
6.28736e-11
-6.20302e-11
-6.2875e-11
5.72967e-16
-2.44159e-14
8.80041e-10
6.47701e-11
6.61254e-11
-6.46104e-11
-6.60261e-11
9.02234e-13
-2.66859e-13
9.76169e-10
5.75268e-11
4.01389e-11
-5.74665e-11
-4.07894e-11
5.78618e-11
-2.44236e-13
7.62983e-10
4.27308e-11
4.83558e-11
-4.23933e-11
-4.82478e-11
4.4521e-11
-5.67102e-11
-4.49224e-11
-6.42977e-11
6.50884e-12
1.24043e-11
-1.35296e-11
1.16776e-10
-2.93514e-11
-2.54807e-12
-8.4661e-13
-9.67207e-12
4.24182e-11
-3.06284e-13
1.54622e-13
1.12565e-09
-6.56558e-13
3.39087e-13
1.13946e-09
-8.98633e-13
5.39525e-15
1.18617e-09
-2.10261e-12
9.53848e-13
1.16322e-09
7.65236e-13
-1.35371e-12
9.02851e-10
4.6629e-11
5.50845e-11
-4.79632e-11
-5.52275e-11
6.50689e-11
-2.28742e-13
7.23269e-10
5.79847e-11
6.16626e-11
-5.75377e-11
-6.09161e-11
4.4761e-11
-6.46879e-11
-4.53087e-11
-5.30526e-11
1.63169e-11
1.40367e-11
-1.44779e-11
1.02245e-10
-3.53329e-11
-1.8708e-12
-3.10818e-12
-1.13222e-11
5.16341e-11
2.39272e-13
-8.88566e-14
1.12866e-09
6.13246e-13
-3.42112e-14
1.13679e-09
7.5576e-13
-1.48439e-13
1.1539e-09
1.92304e-12
-1.69969e-13
1.16876e-09
4.71181e-13
1.16814e-13
1.1564e-09
-7.35157e-13
1.03506e-12
1.13237e-09
1.83869e-12
-1.40778e-12
8.83199e-10
4.70348e-11
5.8966e-11
-4.81837e-11
-5.89552e-11
5.84333e-11
-1.52485e-13
7.47923e-10
5.85032e-11
6.28765e-11
-5.79675e-11
-6.19534e-11
4.38519e-11
-5.72611e-11
-4.44601e-11
-7.25657e-11
1.14673e-11
6.03743e-12
-1.43912e-11
1.27884e-10
-1.38192e-11
2.65522e-12
-1.23475e-11
2.35115e-11
-1.61257e-13
3.16236e-14
1.1305e-09
-2.95667e-13
6.97974e-14
1.13488e-09
-4.22641e-13
-4.6328e-14
1.1404e-09
-6.56264e-13
4.43347e-14
1.144e-09
-1.48247e-13
-3.9568e-13
1.14644e-09
9.54481e-13
-6.73912e-14
1.15433e-09
-4.30974e-13
3.37495e-15
1.14591e-09
-1.80935e-12
1.23814e-12
1.13674e-09
1.21489e-12
-1.78979e-12
8.81992e-10
4.52933e-11
5.28592e-11
-4.63219e-11
-5.30412e-11
4.33255e-11
9.75775e-13
7.20118e-10
5.68284e-11
5.0594e-11
-5.6344e-11
-5.08238e-11
3.38593e-11
-4.23689e-11
-3.48152e-11
-1.25478e-11
1.0688e-11
4.51855e-11
1.14206e-13
-1.16608e-13
1.13545e-09
2.54363e-13
-9.59663e-14
1.13746e-09
2.68317e-13
-8.75551e-14
1.13967e-09
3.62327e-13
-6.53476e-14
1.13946e-09
-7.068e-14
1.51069e-14
1.1367e-09
-1.94894e-13
6.28311e-14
1.13422e-09
-4.73097e-14
-1.55999e-13
1.13582e-09
1.36575e-12
-1.44849e-13
1.1433e-09
-9.98406e-13
5.72774e-13
1.13151e-09
-9.84261e-13
9.95089e-13
1.12339e-09
5.06091e-11
-1.22348e-12
7.20866e-10
3.37642e-11
4.33195e-11
-3.4718e-11
-4.23474e-11
5.68465e-11
-5.08409e-11
-5.63659e-11
-1.55976e-11
1.89119e-11
4.72951e-11
-8.23196e-14
-9.07657e-14
1.13849e-09
-1.50737e-13
-7.5531e-14
1.13913e-09
-2.01129e-13
-8.2321e-14
1.13985e-09
-2.55526e-13
-5.41656e-14
1.13917e-09
-2.18074e-13
-5.55673e-14
1.13655e-09
-1.41053e-13
-4.58556e-14
1.13232e-09
-4.52947e-13
1.52176e-13
1.12765e-09
-5.78996e-13
-3.81006e-14
1.12341e-09
-5.8106e-13
5.68577e-13
1.12653e-09
1.78605e-12
-1.37247e-12
1.13207e-09
5.30103e-11
1.79682e-12
8.82489e-10
4.53198e-11
-5.31898e-11
-4.63508e-11
-4.12817e-11
-6.87973e-12
1.02077e-11
2.92378e-13
9.06718e-11
3.37383e-14
-1.58514e-13
1.14022e-09
8.25944e-14
-1.48327e-13
1.14021e-09
8.56293e-14
-1.11969e-13
1.14013e-09
1.06696e-13
-1.02737e-13
1.13916e-09
3.63841e-14
-1.87395e-14
1.13704e-09
1.79735e-15
-3.53604e-14
1.13391e-09
3.53586e-14
8.60784e-14
1.12995e-09
2.99534e-14
-4.66923e-14
1.12506e-09
1.34753e-13
4.43399e-13
1.1238e-09
-1.24749e-12
3.86049e-14
1.14368e-09
1.40341e-13
4.22756e-13
1.13695e-09
6.2876e-11
-1.83932e-12
7.47957e-10
4.38323e-11
5.84244e-11
-4.44438e-11
-5.72554e-11
5.84989e-11
-6.19541e-11
-5.7967e-11
-5.67172e-11
5.81371e-12
1.08434e-11
-4.47569e-12
1.07411e-10
-3.14976e-14
-1.60515e-13
1.14159e-09
-4.86345e-14
-1.54731e-13
1.14133e-09
-6.32791e-14
-1.2653e-13
1.1409e-09
-7.65107e-14
-1.21575e-13
1.13983e-09
-7.93996e-14
-5.27216e-14
1.13802e-09
-7.79964e-14
-7.33056e-14
1.13572e-09
-9.80909e-14
6.87515e-14
1.13316e-09
-1.63967e-13
-1.50041e-14
1.13012e-09
1.45684e-13
1.28049e-13
1.12784e-09
-1.2233e-14
1.80753e-13
1.13603e-09
1.3946e-12
-9.6111e-13
1.14602e-09
5.89642e-11
7.26301e-13
8.83208e-10
4.70284e-11
-5.89566e-11
-4.81809e-11
-4.34181e-11
5.54367e-12
1.27008e-11
-6.97838e-12
9.11179e-11
-1.87503e-11
-2.91815e-12
-4.90206e-12
2.65705e-11
2.98145e-14
-1.88548e-13
1.14266e-09
6.80624e-14
-1.83816e-13
1.14233e-09
8.32293e-14
-1.4151e-13
1.14178e-09
9.83995e-14
-1.41597e-13
1.14071e-09
7.45714e-14
-5.05081e-14
1.13929e-09
6.26343e-14
-8.59108e-14
1.13759e-09
2.40308e-14
6.84797e-14
1.13577e-09
2.93047e-14
-4.70122e-14
1.13397e-09
-6.20602e-14
1.72868e-13
1.13242e-09
5.88453e-14
5.81741e-14
1.13428e-09
-1.0461e-12
1.43026e-13
1.15434e-09
2.17701e-13
-4.80238e-13
1.13232e-09
6.16607e-11
-7.65935e-13
7.23218e-10
4.47664e-11
6.50678e-11
-4.53148e-11
-6.46907e-11
5.79814e-11
-6.09172e-11
-5.75383e-11
-6.91547e-11
1.14193e-11
7.99811e-12
-8.43003e-12
1.19828e-10
9.90165e-15
-1.81741e-13
1.14376e-09
2.8144e-14
-1.78777e-13
1.14343e-09
4.00098e-14
-1.40397e-13
1.14284e-09
4.73489e-14
-1.46505e-13
1.14184e-09
3.89084e-14
-6.08944e-14
1.14069e-09
4.11655e-14
-1.12275e-13
1.1393e-09
7.50086e-15
6.35484e-14
1.13803e-09
4.43038e-14
-1.18008e-13
1.13706e-09
-2.39258e-14
2.01748e-13
1.13658e-09
3.85059e-13
-3.73158e-13
1.13672e-09
-1.24788e-13
6.45719e-13
1.14639e-09
1.33928e-12
-1.92881e-12
1.15629e-09
5.50822e-11
2.09217e-12
9.02743e-10
4.66201e-11
-5.52292e-11
-4.7959e-11
-4.43336e-11
5.84541e-12
1.0049e-11
-7.03378e-12
9.05542e-11
4.12736e-14
-1.65938e-13
1.14479e-09
8.72735e-14
-1.62511e-13
1.14447e-09
1.17239e-13
-1.2651e-13
1.14384e-09
1.32889e-13
-1.3216e-13
1.14299e-09
1.2925e-13
-5.4995e-14
1.14191e-09
1.10028e-13
-9.84138e-14
1.14072e-09
9.30185e-14
4.972e-14
1.13983e-09
4.97509e-14
-9.90751e-14
1.13914e-09
5.6044e-14
1.58802e-13
1.13913e-09
-5.0408e-14
-2.81363e-13
1.13938e-09
1.60537e-13
4.12473e-13
1.14383e-09
-9.62398e-13
-7.64439e-13
1.16852e-09
2.30224e-13
8.87425e-13
1.16293e-09
4.83525e-11
-9.03255e-13
7.62819e-10
4.45314e-11
5.78642e-11
-4.49349e-11
-5.67169e-11
4.27251e-11
-4.82478e-11
-4.23924e-11
-2.42045e-11
3.43251e-12
6.95568e-12
6.21707e-11
3.91597e-14
-1.2491e-13
1.14593e-09
8.15869e-14
-1.23323e-13
1.14554e-09
1.11641e-13
-9.63122e-14
1.14488e-09
1.2551e-13
-1.03531e-13
1.14395e-09
1.28583e-13
-4.44978e-14
1.14286e-09
1.15663e-13
-8.33491e-14
1.14178e-09
1.02598e-13
3.40458e-14
1.14089e-09
7.7883e-14
-9.65906e-14
1.1401e-09
7.50568e-14
1.21785e-13
1.13978e-09
3.75125e-14
-2.70394e-13
1.13955e-09
1.36334e-13
2.87762e-13
1.14018e-09
-1.42652e-14
-6.26958e-13
1.15355e-09
2.51143e-13
6.46121e-13
1.18564e-09
4.01275e-11
-1.04534e-14
9.7568e-10
5.74781e-11
-4.07792e-11
-5.74243e-11
-4.22051e-11
-7.70364e-12
-1.00126e-12
9.10366e-11
5.49755e-14
-6.91416e-14
1.14703e-09
1.07167e-13
-6.99474e-14
1.14651e-09
1.46758e-13
-5.37818e-14
1.14564e-09
1.64277e-13
-5.71884e-14
1.14453e-09
1.72268e-13
-2.51096e-14
1.14344e-09
1.44145e-13
-4.43944e-14
1.14233e-09
1.39448e-13
1.61295e-14
1.14132e-09
7.29111e-14
-4.93524e-14
1.14019e-09
8.82423e-14
6.42786e-14
1.13907e-09
-7.34465e-14
-1.29891e-13
1.13736e-09
2.8372e-14
1.53096e-13
1.1347e-09
-3.47128e-13
-2.48146e-13
1.13644e-09
1.25636e-14
2.96782e-13
1.13882e-09
6.60492e-11
-2.00272e-13
8.79282e-10
6.46885e-11
-6.5957e-11
-6.4535e-11
-5.19556e-11
4.37082e-12
1.3053e-11
-1.51406e-12
1.02094e-10
5.43858e-14
1.1479e-09
1.10232e-13
1.14706e-09
1.49296e-13
1.14597e-09
1.65999e-13
1.14484e-09
1.76667e-13
1.14377e-09
1.51169e-13
1.14267e-09
1.51017e-13
1.14158e-09
8.43777e-14
1.14021e-09
1.08249e-13
1.13845e-09
-3.95266e-14
1.13539e-09
8.00706e-14
1.13038e-09
-1.64514e-13
1.12848e-09
1.22e-13
1.12535e-09
6.28098e-11
8.73491e-10
6.20227e-11
-6.2817e-11
-6.203e-11
-4.8523e-11
-9.53868e-13
1.43623e-11
1.08443e-12
9.68406e-11
-4.16105e-11
-5.88622e-13
-1.43569e-11
5.65549e-11
-3.49714e-11
1.40859e-12
-2.0362e-12
-1.42051e-11
4.98041e-11
-8.73003e-12
1.96655e-12
-8.46025e-12
1.52237e-11
2.00961e-13
-1.84585e-13
8.73804e-10
6.20461e-11
6.2889e-11
-6.2043e-11
-6.28882e-11
9.59823e-15
-3.41065e-14
8.80006e-10
6.47861e-11
6.61393e-11
-6.46244e-11
-6.60422e-11
9.03275e-13
-2.6475e-13
9.76127e-10
5.75389e-11
4.01505e-11
-5.74813e-11
-4.07967e-11
5.78713e-11
-2.40861e-13
7.62939e-10
4.27395e-11
4.83672e-11
-4.24045e-11
-4.82587e-11
4.45334e-11
-5.67292e-11
-4.49323e-11
-6.43065e-11
6.51247e-12
1.24056e-11
-1.35378e-11
1.16797e-10
-2.93544e-11
-2.54853e-12
-8.46851e-13
-9.67557e-12
4.24254e-11
-3.13306e-13
1.19078e-13
1.12565e-09
-6.54277e-13
2.9468e-13
1.13947e-09
-8.97315e-13
-9.63577e-15
1.18616e-09
-2.0583e-12
9.17882e-13
1.16322e-09
7.64669e-13
-1.37488e-12
9.02861e-10
4.66422e-11
5.51011e-11
-4.7969e-11
-5.52345e-11
6.5084e-11
-2.36399e-13
7.23227e-10
5.7999e-11
6.1676e-11
-5.75489e-11
-6.09302e-11
4.47768e-11
-6.4704e-11
-4.53138e-11
-5.3061e-11
1.63233e-11
1.40402e-11
-1.44849e-11
1.02266e-10
-3.53361e-11
-1.8706e-12
-3.10872e-12
-1.13266e-11
5.1642e-11
2.63809e-13
-1.6051e-13
1.12867e-09
6.32821e-13
-9.15019e-14
1.1368e-09
8.41062e-13
-2.10494e-13
1.15389e-09
1.96407e-12
-2.08206e-13
1.16876e-09
5.00342e-13
9.12625e-14
1.1564e-09
-7.31109e-13
1.03099e-12
1.13233e-09
1.8688e-12
-1.45798e-12
8.83187e-10
4.70473e-11
5.89787e-11
-4.81895e-11
-5.89684e-11
5.84459e-11
-1.58591e-13
7.47912e-10
5.85187e-11
6.28896e-11
-5.7979e-11
-6.19699e-11
4.38674e-11
-5.72745e-11
-4.44655e-11
-7.25751e-11
1.14706e-11
6.03959e-12
-1.43971e-11
1.27907e-10
-1.38212e-11
2.65511e-12
-1.23499e-11
2.3516e-11
-1.56284e-13
-7.1959e-14
1.13057e-09
-2.8428e-13
-2.31386e-14
1.13494e-09
-4.09427e-13
-1.3972e-13
1.14045e-09
-6.44002e-13
-2.55747e-14
1.14405e-09
-1.33917e-13
-4.48157e-13
1.14647e-09
9.9158e-13
-1.12641e-13
1.15435e-09
-4.31514e-13
-3.42345e-14
1.14591e-09
-1.81381e-12
1.24482e-12
1.13672e-09
1.20997e-12
-1.81419e-12
8.81983e-10
4.53069e-11
5.28708e-11
-4.63278e-11
-5.3052e-11
4.33448e-11
9.61007e-13
7.20091e-10
5.68394e-11
5.06027e-11
-5.63582e-11
-5.08389e-11
3.38695e-11
-4.23662e-11
-3.48196e-11
-1.25327e-11
1.06806e-11
4.5197e-11
1.27565e-13
-2.44879e-13
1.13548e-09
2.83148e-13
-2.17874e-13
1.13749e-09
2.98763e-13
-1.97809e-13
1.13971e-09
4.03651e-13
-1.65981e-13
1.1395e-09
-2.94369e-14
-6.16188e-14
1.13675e-09
-1.58848e-13
-9.80103e-15
1.13424e-09
-2.14167e-14
-2.00689e-13
1.13585e-09
1.42072e-12
-1.95144e-13
1.1433e-09
-9.82924e-13
5.79459e-13
1.13152e-09
-9.78134e-13
9.8053e-13
1.12337e-09
5.06209e-11
-1.2142e-12
7.20855e-10
3.37691e-11
4.33231e-11
-3.4729e-11
-4.23655e-11
5.68595e-11
-5.08511e-11
-5.63787e-11
-1.55984e-11
1.89144e-11
4.73048e-11
-6.30824e-14
-2.512e-13
1.13855e-09
-1.13128e-13
-2.29506e-13
1.13919e-09
-1.47715e-13
-2.25079e-13
1.13991e-09
-1.95121e-13
-1.82238e-13
1.13924e-09
-1.70174e-13
-1.56471e-13
1.13662e-09
-9.64548e-14
-1.33907e-13
1.13237e-09
-4.29524e-13
8.82859e-14
1.12769e-09
-5.71597e-13
-9.73613e-14
1.12345e-09
-5.89009e-13
5.59883e-13
1.12657e-09
1.80753e-12
-1.42761e-12
1.13208e-09
5.30214e-11
1.80046e-12
8.82483e-10
4.53336e-11
-5.32008e-11
-4.63562e-11
-4.12907e-11
-6.8783e-12
1.02096e-11
2.86287e-13
9.06926e-11
5.66699e-14
-3.3559e-13
1.14023e-09
1.26348e-13
-3.2039e-13
1.14023e-09
1.44378e-13
-2.70249e-13
1.14015e-09
1.77639e-13
-2.4865e-13
1.13919e-09
1.12701e-13
-1.38831e-13
1.13708e-09
7.99977e-14
-1.44058e-13
1.13395e-09
1.03885e-13
8.92516e-15
1.13e-09
8.74581e-14
-1.1542e-13
1.12509e-09
1.85214e-13
4.21292e-13
1.12384e-09
-1.25379e-12
1.28967e-14
1.14368e-09
1.45396e-13
4.22474e-13
1.13693e-09
6.28899e-11
-1.87151e-12
7.47948e-10
4.38477e-11
5.84363e-11
-4.44488e-11
-5.72689e-11
5.85155e-11
-6.19689e-11
-5.79781e-11
-5.67237e-11
5.81449e-12
1.08474e-11
-4.47641e-12
1.07429e-10
-3.15831e-15
-3.5204e-13
1.14159e-09
3.9483e-15
-3.41557e-13
1.14134e-09
9.87842e-15
-2.98763e-13
1.14092e-09
9.86997e-15
-2.79911e-13
1.13986e-09
1.204e-14
-1.87069e-13
1.13807e-09
9.97179e-15
-1.92095e-13
1.13577e-09
-2.11393e-14
-2.02095e-14
1.13322e-09
-9.89085e-14
-9.11233e-14
1.13018e-09
1.87513e-13
9.01722e-14
1.12788e-09
2.34667e-14
1.48597e-13
1.13605e-09
1.4448e-12
-9.98956e-13
1.14602e-09
5.8977e-11
7.22518e-13
8.832e-10
4.7041e-11
-5.89698e-11
-4.81865e-11
-4.34278e-11
5.54531e-12
1.27054e-11
-6.98352e-12
9.11392e-11
-1.8752e-11
-2.91894e-12
-4.90364e-12
2.65746e-11
6.51124e-14
-3.79609e-13
1.1426e-09
1.3686e-13
-3.69488e-13
1.14228e-09
1.77363e-13
-3.12708e-13
1.14175e-09
2.10191e-13
-3.00193e-13
1.1407e-09
1.93278e-13
-1.8632e-13
1.1393e-09
1.81444e-13
-2.04605e-13
1.13761e-09
1.34101e-13
-2.28952e-14
1.13582e-09
1.24299e-13
-1.24303e-13
1.13401e-09
1.12391e-15
1.67904e-13
1.13246e-09
1.03718e-13
1.79181e-14
1.13431e-09
-1.04151e-12
1.28879e-13
1.15436e-09
2.25173e-13
-5.09037e-13
1.13229e-09
6.16742e-11
-7.67584e-13
7.23178e-10
4.47823e-11
6.50831e-11
-4.53193e-11
-6.47067e-11
5.79969e-11
-6.09303e-11
-5.75498e-11
-6.91629e-11
1.14195e-11
8.0005e-12
-8.43173e-12
1.19848e-10
5.04252e-14
-3.61496e-13
1.14367e-09
1.06379e-13
-3.51618e-13
1.14336e-09
1.47351e-13
-3.00907e-13
1.14278e-09
1.7423e-13
-2.94873e-13
1.14181e-09
1.74538e-13
-1.8782e-13
1.14068e-09
1.75656e-13
-2.22753e-13
1.13931e-09
1.27913e-13
-2.27932e-14
1.13808e-09
1.49361e-13
-1.91659e-13
1.1371e-09
4.84449e-14
2.08555e-13
1.13664e-09
4.36424e-13
-4.16069e-13
1.13676e-09
-1.00328e-13
6.31758e-13
1.14642e-09
1.35886e-12
-1.96886e-12
1.15629e-09
5.50985e-11
2.04507e-12
9.02758e-10
4.66342e-11
-5.5236e-11
-4.79645e-11
-4.43431e-11
5.84654e-12
1.00544e-11
-7.03451e-12
9.05763e-11
9.10426e-14
-3.1494e-13
1.14465e-09
1.80239e-13
-3.06664e-13
1.14434e-09
2.4209e-13
-2.61629e-13
1.14374e-09
2.82161e-13
-2.55584e-13
1.14291e-09
2.8908e-13
-1.60986e-13
1.14188e-09
2.68974e-13
-1.90265e-13
1.1407e-09
2.38478e-13
-2.33886e-14
1.13985e-09
1.73111e-13
-1.55849e-13
1.13917e-09
1.6155e-13
1.51144e-13
1.1392e-09
1.81234e-14
-3.1201e-13
1.13941e-09
1.97795e-13
3.99251e-13
1.14388e-09
-9.25887e-13
-8.48642e-13
1.16852e-09
2.29503e-13
8.85872e-13
1.16293e-09
4.83647e-11
-9.0332e-13
7.62781e-10
4.45437e-11
5.78731e-11
-4.49443e-11
-5.67354e-11
4.27349e-11
-4.82583e-11
-4.24029e-11
-2.42082e-11
3.4335e-12
6.95742e-12
6.21827e-11
9.2934e-14
-2.34037e-13
1.14575e-09
1.81373e-13
-2.29527e-13
1.14538e-09
2.47512e-13
-1.95041e-13
1.14475e-09
2.8723e-13
-1.93523e-13
1.14385e-09
3.00832e-13
-1.21258e-13
1.14281e-09
2.87694e-13
-1.49793e-13
1.14175e-09
2.60117e-13
-1.77467e-14
1.14092e-09
2.15913e-13
-1.45389e-13
1.14014e-09
1.88749e-13
1.0865e-13
1.13985e-09
1.31433e-13
-2.97151e-13
1.1396e-09
1.98201e-13
2.76494e-13
1.14024e-09
9.82974e-16
-6.46365e-13
1.15354e-09
2.50886e-13
6.44394e-13
1.18563e-09
4.01391e-11
-1.77024e-14
9.75641e-10
5.74898e-11
-4.07867e-11
-5.74382e-11
-4.22127e-11
-7.70379e-12
-1.00065e-12
9.10564e-11
1.12274e-13
-1.29153e-13
1.1468e-09
2.15265e-13
-1.25916e-13
1.1463e-09
2.93694e-13
-1.05463e-13
1.14547e-09
3.39707e-13
-1.03941e-13
1.14439e-09
3.59172e-13
-6.57701e-14
1.14337e-09
3.31834e-13
-7.86508e-14
1.14229e-09
3.11729e-13
-1.08748e-14
1.14133e-09
2.23195e-13
-7.60493e-14
1.1402e-09
2.12579e-13
5.5547e-14
1.13914e-09
1.86108e-14
-1.4237e-13
1.13739e-09
8.59958e-14
1.4759e-13
1.13476e-09
-3.0181e-13
-2.76283e-13
1.13646e-09
2.51611e-14
3.04208e-13
1.13883e-09
6.60653e-11
-2.10607e-13
8.79246e-10
6.47053e-11
-6.59712e-11
-6.45486e-11
-5.19651e-11
4.37142e-12
1.30577e-11
-1.51455e-12
1.02117e-10
1.16451e-13
1.14766e-09
2.22083e-13
1.14684e-09
3.00709e-13
1.14578e-09
3.46297e-13
1.1447e-09
3.69068e-13
1.14369e-09
3.43405e-13
1.14262e-09
3.2792e-13
1.14159e-09
2.42728e-13
1.14022e-09
2.36765e-13
1.13851e-09
6.22895e-14
1.13542e-09
1.51677e-13
1.13044e-09
-1.28163e-13
1.12849e-09
1.73285e-13
1.12535e-09
6.28258e-11
8.7347e-10
6.2038e-11
-6.28298e-11
-6.2042e-11
-4.85337e-11
-9.54726e-13
1.43665e-11
1.08541e-12
9.68629e-11
-4.16153e-11
-5.88177e-13
-1.43615e-11
5.65658e-11
-3.4976e-11
1.40853e-12
-2.03626e-12
-1.42103e-11
4.9814e-11
-8.73238e-12
1.96646e-12
-8.4627e-12
1.52286e-11
2.11942e-13
-2.23713e-13
8.73804e-10
6.20642e-11
6.29073e-11
-6.20585e-11
-6.2904e-11
2.01995e-14
-5.55831e-14
8.79991e-10
6.48053e-11
6.61567e-11
-6.46403e-11
-6.60607e-11
9.03741e-13
-2.70519e-13
9.76101e-10
5.75536e-11
4.01643e-11
-5.74979e-11
-4.08051e-11
5.78824e-11
-2.36445e-13
7.62902e-10
4.27499e-11
4.83807e-11
-4.24174e-11
-4.82716e-11
4.45489e-11
-5.67517e-11
-4.49435e-11
-6.43177e-11
6.51627e-12
1.24066e-11
-1.35467e-11
1.16824e-10
-2.93576e-11
-2.54874e-12
-8.47217e-13
-9.67997e-12
4.24336e-11
-3.17359e-13
6.01845e-14
1.12568e-09
-6.44759e-13
2.28773e-13
1.13951e-09
-8.83917e-13
-4.62519e-14
1.18617e-09
-2.01357e-12
8.72549e-13
1.16324e-09
8.31105e-13
-1.41206e-12
9.0287e-10
4.66573e-11
5.512e-11
-4.79761e-11
-5.52443e-11
6.51005e-11
-2.2652e-13
7.23233e-10
5.80169e-11
6.16923e-11
-5.75628e-11
-6.09468e-11
4.47955e-11
-6.47259e-11
-4.53211e-11
-5.30722e-11
1.6331e-11
1.40441e-11
-1.44943e-11
1.02291e-10
-3.53401e-11
-1.87056e-12
-3.10904e-12
-1.13314e-11
5.16511e-11
2.84559e-13
-2.65552e-13
1.1287e-09
6.56298e-13
-1.84474e-13
1.13685e-09
8.84378e-13
-3.02809e-13
1.15392e-09
2.01655e-12
-2.81852e-13
1.16878e-09
5.34918e-13
3.85625e-14
1.15643e-09
-7.15621e-13
1.02481e-12
1.13233e-09
1.90499e-12
-1.51529e-12
8.832e-10
4.70635e-11
5.8994e-11
-4.81948e-11
-5.89837e-11
5.84588e-11
-1.25138e-13
7.47902e-10
5.85368e-11
6.29047e-11
-5.79941e-11
-6.19887e-11
4.38844e-11
-5.72933e-11
-4.44729e-11
-7.25875e-11
1.14743e-11
6.04075e-12
-1.44051e-11
1.27935e-10
-1.38233e-11
2.65545e-12
-1.23535e-11
2.35214e-11
-1.50624e-13
-2.29197e-13
1.13067e-09
-2.69859e-13
-1.68498e-13
1.13504e-09
-3.92166e-13
-2.75935e-13
1.14055e-09
-6.31389e-13
-1.37383e-13
1.14414e-09
-1.29326e-13
-5.36787e-13
1.14654e-09
1.0374e-12
-1.86349e-13
1.1544e-09
-4.25554e-13
-8.63739e-14
1.14594e-09
-1.8052e-12
1.23755e-12
1.13673e-09
1.20331e-12
-1.83905e-12
8.82006e-10
4.5323e-11
5.28842e-11
-4.63346e-11
-5.30654e-11
4.3345e-11
9.65858e-13
7.2009e-10
5.68539e-11
5.06164e-11
-5.63733e-11
-5.08514e-11
3.38737e-11
-4.23934e-11
-3.48347e-11
-1.25613e-11
1.07009e-11
4.52063e-11
1.51866e-13
-4.41737e-13
1.13553e-09
3.30106e-13
-4.0432e-13
1.13755e-09
3.52139e-13
-3.68742e-13
1.13978e-09
4.71347e-13
-3.20978e-13
1.13956e-09
2.56804e-14
-1.77419e-13
1.13684e-09
-1.22085e-13
-1.11265e-13
1.13432e-09
1.69501e-14
-2.80416e-13
1.13591e-09
1.48877e-12
-2.63144e-13
1.14333e-09
-9.65065e-13
5.80075e-13
1.13156e-09
-9.67285e-13
9.602e-13
1.12338e-09
5.06299e-11
-1.21563e-12
7.20832e-10
3.37811e-11
4.33467e-11
-3.47337e-11
-4.2361e-11
5.68712e-11
-5.08694e-11
-5.63955e-11
-1.56034e-11
1.89175e-11
4.73154e-11
-5.54798e-14
-4.86346e-13
1.13864e-09
-9.45172e-14
-4.56736e-13
1.13928e-09
-1.15042e-13
-4.37976e-13
1.14e-09
-1.56339e-13
-3.74433e-13
1.13933e-09
-1.02736e-13
-3.19693e-13
1.13671e-09
-2.7933e-14
-2.70586e-13
1.13245e-09
-3.95307e-13
-1.02943e-14
1.12779e-09
-5.53005e-13
-1.84364e-13
1.12353e-09
-5.88198e-13
5.35947e-13
1.12665e-09
1.83645e-12
-1.49739e-12
1.13211e-09
5.30354e-11
1.79009e-12
8.82505e-10
4.53496e-11
-5.32141e-11
-4.63629e-11
-4.13016e-11
-6.87742e-12
1.02142e-11
2.81011e-13
9.07179e-11
9.78294e-14
-5.98018e-13