/*--------------------------------*- C++ -*----------------------------------*\
| =========                 |                                                 |
| \\      /  F ield         | OpenFOAM: The Open Source CFD Toolbox           |
|  \\    /   O peration     | Version:  2.1.1                                 |
|   \\  /    A nd           | Web:      www.OpenFOAM.org                      |
|    \\/     M anipulation  |                                                 |
\*---------------------------------------------------------------------------*/
FoamFile
{
    version     2.0;
    format      ascii;
    class       volVectorField;
    location    "0.0025";
    object      U;
}
// * * * * * * * * * * * * * * * * * * * * * * * * * * * * * * * * * * * * * //

dimensions      [0 1 -1 0 0 0 0];

internalField   nonuniform List<vector> 
10229
(
(-7.78727e-07 -0.00498148 0.0217314)
(-0.000706511 -0.00468382 0.0197538)
(-0.00150439 -0.00127521 0.0104495)
(-3.56143e-05 -0.000244534 0.0883837)
(8.91303e-05 -0.000254839 0.0890369)
(-0.000117215 -0.000153737 0.0939164)
(0.000350808 -0.000481531 0.0753146)
(0.00143519 -0.00589438 0.0290605)
(0.000472489 -0.00324694 0.0180702)
(-1.5505e-05 0.000206079 0.112806)
(-5.98336e-05 0.000240952 0.11325)
(-4.67951e-05 0.00012068 0.116073)
(-0.000178454 0.000399574 0.113455)
(-0.000208263 -0.000270061 0.0887009)
(0.000386255 -0.00033277 0.072153)
(0.00185193 -0.00882675 0.0309115)
(-0.000456372 -0.0045194 0.0192993)
(-6.21051e-06 -0.000111366 0.112272)
(5.53378e-05 -0.000106057 0.112514)
(3.31521e-05 -7.57178e-05 0.113404)
(0.000125349 -9.93243e-05 0.11467)
(0.000175229 8.2947e-05 0.114004)
(-0.000115785 0.000293869 0.112201)
(-4.82412e-05 -0.000346146 0.0877046)
(0.000406054 -0.000390285 0.0738337)
(0.000611671 -0.0060366 0.0313811)
(-0.00185582 -0.00423436 0.0149391)
(-1.28009e-05 0.000120602 0.111947)
(-3.08251e-05 0.000121341 0.112102)
(-4.82594e-05 7.79449e-05 0.112299)
(-6.84926e-05 8.86249e-05 0.11257)
(-0.000101273 -2.92504e-05 0.113068)
(5.198e-05 -6.33716e-06 0.114183)
(6.97757e-05 0.000111775 0.113523)
(-0.000177169 0.000344637 0.112421)
(-0.000249998 -0.000345171 0.0888071)
(0.000582211 -0.000461728 0.0705732)
(-0.0116483 0.00240796 0.016501)
(-4.65939e-06 -3.24342e-05 0.112156)
(1.63031e-05 -2.91408e-05 0.112239)
(7.35965e-06 -1.66322e-05 0.112316)
(1.68364e-05 -1.48178e-05 0.112287)
(1.30116e-05 1.34903e-05 0.112178)
(-5.33454e-05 2.90214e-05 0.11219)
(-1.61941e-05 -6.51389e-05 0.112615)
(-1.82424e-05 -1.76592e-05 0.113711)
(0.000265565 8.22886e-05 0.113524)
(-0.000564004 0.000564184 0.112561)
(0.000459955 -0.000581771 0.0706092)
(-0.00861537 0.00417048 0.0188969)
(-1.04817e-05 7.85135e-05 0.112296)
(-1.72064e-05 7.70148e-05 0.112326)
(-3.43703e-05 6.30767e-05 0.112353)
(-3.39708e-05 5.99677e-05 0.112321)
(-5.17818e-05 3.93761e-05 0.112199)
(-2.45816e-05 3.00979e-05 0.112002)
(-3.92704e-05 6.4664e-05 0.111815)
(-9.73128e-05 1.95856e-05 0.111754)
(-6.86208e-05 6.78177e-05 0.112591)
(-8.29022e-05 -0.000265979 0.113536)
(0.000345181 0.000248632 0.0888041)
(-0.000617066 -0.00141866 0.0271374)
(-6.10763e-06 5.55965e-06 0.11237)
(1.19415e-06 6.37563e-06 0.112373)
(-9.45451e-06 1.16833e-05 0.112368)
(-6.35019e-06 1.24558e-05 0.112328)
(-1.44803e-05 2.10088e-05 0.112242)
(-2.24736e-05 2.19327e-05 0.112111)
(-2.2777e-05 1.86406e-05 0.11193)
(-1.24009e-05 1.16445e-05 0.111683)
(-1.985e-05 9.63684e-05 0.111764)
(1.72087e-05 1.78983e-05 0.113727)
(-0.000346221 0.000176423 0.112429)
(0.000389306 -0.000405812 0.0738352)
(0.00142073 -0.00215646 0.0296451)
(-9.82685e-06 5.98537e-05 0.112434)
(-1.1325e-05 5.77866e-05 0.112425)
(-2.84339e-05 5.41999e-05 0.112405)
(-2.4663e-05 4.84244e-05 0.11236)
(-4.21278e-05 4.61466e-05 0.112288)
(-2.63917e-05 3.43518e-05 0.112192)
(-4.74364e-05 4.68355e-05 0.112085)
(-1.96183e-05 2.19034e-05 0.111935)
(-6.50784e-05 3.88628e-05 0.111823)
(6.46677e-05 1.52046e-05 0.112624)
(-0.000112613 -7.02776e-05 0.113526)
(0.000344979 4.80046e-05 0.0877043)
(0.000439282 -0.00447278 0.0268457)
(0.000427734 -0.00252332 0.0166312)
(-7.80854e-06 1.93941e-05 0.112484)
(-4.37472e-06 1.92321e-05 0.112471)
(-1.86682e-05 2.17873e-05 0.112446)
(-1.4281e-05 2.00313e-05 0.112401)
(-2.84771e-05 2.49192e-05 0.112341)
(-2.19114e-05 2.12143e-05 0.112267)
(-3.52473e-05 2.57584e-05 0.112193)
(-2.25185e-05 2.14223e-05 0.112114)
(-3.04723e-05 2.43795e-05 0.112005)
(-2.95039e-05 5.17584e-05 0.112193)
(5.38963e-06 -5.22853e-05 0.114183)
(-0.000295193 0.000114722 0.112197)
(0.000331904 -0.000385701 0.0721492)
(0.00158013 -0.00269812 0.0314847)
(-9.95662e-06 4.42369e-05 0.112536)
(-8.9475e-06 4.2738e-05 0.112522)
(-2.75829e-05 4.25608e-05 0.112496)
(-2.14387e-05 3.68299e-05 0.112454)
(-4.0852e-05 3.99832e-05 0.112402)
(-2.55634e-05 2.74686e-05 0.112342)
(-4.71175e-05 4.10843e-05 0.112288)
(-2.15533e-05 1.34836e-05 0.112243)
(-4.03084e-05 5.09616e-05 0.1122)
(-1.40561e-05 -1.41298e-05 0.112178)
(2.89153e-05 0.000100549 0.113065)
(-8.36552e-05 -0.000175706 0.113998)
(0.000269087 0.000208308 0.0886953)
(-0.00017516 -0.00434432 0.0269643)
(-9.42886e-06 1.76601e-05 0.112584)
(-6.04384e-06 1.68527e-05 0.112569)
(-2.45414e-05 1.86771e-05 0.112542)
(-1.68507e-05 1.58218e-05 0.112502)
(-3.78441e-05 2.04027e-05 0.112455)
(-2.09113e-05 1.29398e-05 0.112402)
(-4.93033e-05 2.35762e-05 0.11236)
(-1.28134e-05 5.38307e-06 0.112328)
(-6.04411e-05 3.29043e-05 0.112319)
(1.44455e-05 -1.74856e-05 0.112284)
(-8.89013e-05 6.74409e-05 0.112563)
(9.87808e-05 -0.000126095 0.114659)
(-0.000400619 0.00017728 0.113441)
(0.000479698 -0.00035068 0.0753054)
(-0.00657865 -0.00230131 0.0221187)
(-1.08067e-05 2.81594e-05 0.112635)
(-7.91923e-06 2.67504e-05 0.112618)
(-2.86018e-05 2.73415e-05 0.112588)
(-1.97279e-05 2.31677e-05 0.112545)
(-4.37541e-05 2.62608e-05 0.112497)
(-2.2481e-05 1.72831e-05 0.112447)
(-5.47916e-05 2.7489e-05 0.112405)
(-1.22071e-05 7.99053e-06 0.112367)
(-6.36844e-05 3.32778e-05 0.11235)
(1.60928e-05 -8.54236e-06 0.112312)
(-7.83456e-05 4.73141e-05 0.11229)
(7.48808e-05 -3.42447e-05 0.113389)
(-0.000121511 4.55741e-05 0.116051)
(0.000151752 0.000116349 0.0939)
(-0.00668189 0.00299018 0.0250931)
(-1.08171e-05 6.20928e-06 0.112682)
(-6.86686e-06 5.55908e-06 0.112658)
(-2.81336e-05 6.59284e-06 0.11262)
(-1.79465e-05 4.76298e-06 0.112572)
(-4.37609e-05 7.56836e-06 0.112523)
(-1.97318e-05 3.05933e-06 0.112471)
(-5.87461e-05 9.96297e-06 0.112425)
(-6.88395e-06 -2.37563e-06 0.112372)
(-7.72079e-05 1.60325e-05 0.112323)
(2.89313e-05 -1.75363e-05 0.112235)
(-0.000121479 2.98301e-05 0.112093)
(0.000105335 -5.67133e-05 0.112499)
(-0.000241882 5.90272e-05 0.113225)
(0.000252959 -9.06971e-05 0.0890189)
(0.00153113 -0.00108479 0.032093)
(-1.1363e-05 1.0031e-05 0.112713)
(-7.53975e-06 9.65311e-06 0.112683)
(-2.94022e-05 9.47188e-06 0.112637)
(-1.87618e-05 8.23028e-06 0.112586)
(-4.54731e-05 8.77515e-06 0.112537)
(-2.00739e-05 6.36177e-06 0.112485)
(-6.03172e-05 8.28446e-06 0.112434)
(-5.89884e-06 4.70358e-06 0.11237)
(-7.91829e-05 9.32394e-06 0.112294)
(3.20844e-05 3.24212e-06 0.112154)
(-0.000121136 1.17493e-05 0.111941)
(0.000110772 4.75717e-06 0.112265)
(-0.000207271 1.45331e-05 0.112794)
(0.000242769 3.42575e-05 0.0883752)
(0.00148732 0.000151254 0.0293542)
(-6.71824e-07 -0.00498201 0.0217337)
(-0.000706588 -0.0046842 0.019756)
(-0.00150461 -0.00127532 0.0104519)
(-3.51986e-05 -0.000242122 0.0883771)
(8.89996e-05 -0.000252202 0.0890312)
(-0.000116912 -0.000152166 0.0939114)
(0.000350531 -0.000478803 0.0753093)
(0.00143582 -0.00589528 0.0290645)
(0.000471901 -0.00324744 0.0180724)
(-1.48681e-05 0.000209228 0.112805)
(-6.09544e-05 0.000241723 0.113247)
(-4.68809e-05 0.000124661 0.116068)
(-0.000182257 0.000399011 0.113452)
(-0.000214431 -0.000269033 0.088696)
(0.000386473 -0.000331031 0.0721475)
(0.00185271 -0.00882831 0.0309159)
(-0.00045685 -0.00451981 0.0193009)
(-8.35065e-06 -0.000108542 0.11227)
(5.56002e-05 -0.000103749 0.11251)
(3.22177e-05 -7.28713e-05 0.113402)
(0.000123187 -9.69971e-05 0.114664)
(0.000176767 8.71402e-05 0.114)
(-0.000118125 0.00029981 0.112194)
(-5.48529e-05 -0.000342379 0.0877026)
(0.000404431 -0.000388171 0.0738282)
(0.00061296 -0.00603803 0.0313853)
(-0.00185619 -0.00423502 0.0149409)
(-1.2679e-05 0.000124186 0.111947)
(-3.21073e-05 0.000126521 0.112102)
(-4.86222e-05 8.06272e-05 0.112298)
(-7.0824e-05 9.35934e-05 0.112568)
(-0.000104068 -2.68719e-05 0.113066)
(5.30336e-05 -3.56988e-06 0.11418)
(6.66612e-05 0.0001145 0.113517)
(-0.000183086 0.000355864 0.112417)
(-0.000253837 -0.000345144 0.0888034)
(0.000580745 -0.000458916 0.0705705)
(-0.0116503 0.00240948 0.0165036)
(-5.31668e-06 -2.848e-05 0.112156)
(1.55798e-05 -2.56276e-05 0.112238)
(6.17935e-06 -1.24793e-05 0.112316)
(1.44301e-05 -1.23564e-05 0.112286)
(1.2276e-05 1.8165e-05 0.112177)
(-5.52324e-05 3.17377e-05 0.112187)
(-1.51835e-05 -6.31715e-05 0.112614)
(-2.45e-05 -1.59393e-05 0.113707)
(0.000261204 8.66681e-05 0.113521)
(-0.000561674 0.00056186 0.112556)
(0.000457243 -0.000580995 0.0706059)
(-0.00861657 0.00417135 0.0189)
(-1.09693e-05 8.3306e-05 0.112297)
(-1.84006e-05 8.19049e-05 0.112327)
(-3.58396e-05 6.77127e-05 0.112354)
(-3.57177e-05 6.4574e-05 0.112322)
(-5.42239e-05 4.43888e-05 0.112199)
(-2.61167e-05 3.336e-05 0.112002)
(-4.33697e-05 6.87933e-05 0.111812)
(-0.000100897 1.9945e-05 0.111753)
(-7.6255e-05 7.51874e-05 0.112588)
(-8.73538e-05 -0.000261815 0.113533)
(0.000345019 0.000252112 0.0888005)
(-0.000617353 -0.00142041 0.0271428)
(-6.70187e-06 9.69493e-06 0.112372)
(2.88901e-07 1.06506e-05 0.112374)
(-1.09205e-05 1.61138e-05 0.112369)
(-8.33073e-06 1.61967e-05 0.112329)
(-1.64863e-05 2.49865e-05 0.112243)
(-2.51568e-05 2.49387e-05 0.11211)
(-2.4578e-05 2.13307e-05 0.11193)
(-1.53184e-05 1.44841e-05 0.111682)
(-2.04097e-05 9.96616e-05 0.111762)
(1.53878e-05 2.42027e-05 0.113722)
(-0.000357508 0.000182004 0.112426)
(0.000387237 -0.000404228 0.07383)
(0.00142215 -0.00215636 0.029649)
(-1.03068e-05 6.44188e-05 0.112437)
(-1.22354e-05 6.24662e-05 0.112428)
(-3.04251e-05 5.88442e-05 0.112408)
(-2.68168e-05 5.26614e-05 0.112362)
(-4.52407e-05 5.06836e-05 0.112289)
(-2.91685e-05 3.77609e-05 0.112193)
(-5.16596e-05 5.09983e-05 0.112086)
(-2.26072e-05 2.35979e-05 0.111935)
(-6.93552e-05 4.25175e-05 0.11182)
(6.26067e-05 1.39348e-05 0.112622)
(-0.000115635 -6.73486e-05 0.113521)
(0.000340938 5.43279e-05 0.0877025)
(0.000440242 -0.00447366 0.0268509)
(0.000427859 -0.00252358 0.0166327)
(-8.32839e-06 2.32988e-05 0.112485)
(-5.19444e-06 2.2959e-05 0.112473)
(-2.05539e-05 2.55287e-05 0.112448)
(-1.63296e-05 2.3507e-05 0.112403)
(-3.12734e-05 2.83994e-05 0.112343)
(-2.49578e-05 2.42457e-05 0.112268)
(-3.87666e-05 2.84304e-05 0.112194)
(-2.59903e-05 2.40723e-05 0.112113)
(-3.40833e-05 2.58729e-05 0.112006)
(-3.20578e-05 5.36343e-05 0.112189)
(2.48045e-06 -5.33741e-05 0.114181)
(-0.000301229 0.000117006 0.112191)
(0.000330263 -0.000386073 0.0721444)
(0.00158114 -0.00269839 0.0314883)
(-1.05605e-05 4.83756e-05 0.112539)
(-1.00169e-05 4.65298e-05 0.112525)
(-2.98096e-05 4.64118e-05 0.112498)
(-2.38299e-05 4.03e-05 0.112456)
(-4.43935e-05 4.34099e-05 0.112405)
(-2.91508e-05 3.02257e-05 0.112344)
(-5.17364e-05 4.41738e-05 0.11229)
(-2.57689e-05 1.55207e-05 0.112244)
(-4.54418e-05 5.36814e-05 0.1122)
(-1.88003e-05 -1.3066e-05 0.112177)
(2.62684e-05 0.000103156 0.113063)
(-8.80973e-05 -0.000177049 0.113995)
(0.000267404 0.000214077 0.088691)
(-0.00017379 -0.00434531 0.02697)
(-1.02313e-05 2.043e-05 0.112586)
(-7.14809e-06 1.96819e-05 0.112571)
(-2.67402e-05 2.14976e-05 0.112544)
(-1.93166e-05 1.83306e-05 0.112503)
(-4.13546e-05 2.27513e-05 0.112457)
(-2.43119e-05 1.51309e-05 0.112403)
(-5.35779e-05 2.57263e-05 0.112362)
(-1.67189e-05 7.35905e-06 0.112328)
(-6.51029e-05 3.48365e-05 0.11232)
(1.16864e-05 -1.49798e-05 0.112282)
(-9.4109e-05 6.9468e-05 0.112561)
(9.61728e-05 -0.000123772 0.114654)
(-0.000400445 0.000180935 0.113439)
(0.000476522 -0.000350112 0.0753005)
(-0.0065794 -0.00230055 0.0221225)
(-1.16064e-05 3.09457e-05 0.112637)
(-8.93255e-06 2.96429e-05 0.11262)
(-3.11453e-05 2.99971e-05 0.11259)
(-2.25938e-05 2.54459e-05 0.112547)
(-4.76218e-05 2.84702e-05 0.1125)
(-2.62899e-05 1.92259e-05 0.112448)
(-5.96624e-05 2.92345e-05 0.112407)
(-1.66858e-05 9.55592e-06 0.112368)
(-6.83417e-05 3.47519e-05 0.112351)
(1.13761e-05 -7.3748e-06 0.112311)
(-8.1206e-05 4.76836e-05 0.112289)
(7.20471e-05 -3.3155e-05 0.113388)
(-0.000125631 4.57663e-05 0.116047)
(0.000150442 0.000116319 0.0938957)
(-0.00668176 0.00299092 0.0250983)
(-1.15612e-05 7.59372e-06 0.112683)
(-8.10113e-06 6.98702e-06 0.11266)
(-3.09487e-05 7.96302e-06 0.112622)
(-2.08618e-05 5.8948e-06 0.112573)
(-4.76137e-05 8.70897e-06 0.112525)
(-2.36106e-05 4.00424e-06 0.112473)
(-6.34199e-05 1.091e-05 0.112427)
(-1.10723e-05 -1.32739e-06 0.112373)
(-8.22664e-05 1.70846e-05 0.112324)
(2.51093e-05 -1.67e-05 0.112234)
(-0.000126731 3.12373e-05 0.112093)
(0.000102884 -5.70219e-05 0.112496)
(-0.000242668 5.99982e-05 0.113223)
(0.000250864 -9.04009e-05 0.0890138)
(0.0015323 -0.00108461 0.0320988)
(-1.27294e-05 1.14518e-05 0.112715)
(-8.56732e-06 1.04104e-05 0.112684)
(-3.22436e-05 1.03099e-05 0.112639)
(-2.18616e-05 8.92856e-06 0.112588)
(-4.95326e-05 9.35492e-06 0.11254)
(-2.40806e-05 6.96214e-06 0.112486)
(-6.50914e-05 8.82476e-06 0.112437)
(-1.0261e-05 5.14337e-06 0.112372)
(-8.40237e-05 9.49746e-06 0.112296)
(2.78244e-05 3.89031e-06 0.112154)
(-0.000125068 1.16549e-05 0.111942)
(0.000107658 6.88182e-06 0.112263)
(-0.000210392 1.37811e-05 0.112793)
(0.000240451 3.39024e-05 0.0883692)
(0.00148864 0.000150683 0.0293598)
(-5.80614e-07 -0.0049824 0.0217365)
(-0.000706692 -0.00468473 0.0197586)
(-0.00150474 -0.00127555 0.0104548)
(-3.41571e-05 -0.000238687 0.0883713)
(9.0385e-05 -0.000249127 0.0890257)
(-0.000116579 -0.000149945 0.0939061)
(0.000349482 -0.00047403 0.0753041)
(0.00143589 -0.00589681 0.0290695)
(0.000471672 -0.00324802 0.018075)
(-1.51772e-05 0.000213914 0.112803)
(-6.3353e-05 0.000243488 0.113244)
(-4.55777e-05 0.000129652 0.116063)
(-0.000186742 0.000398251 0.113451)
(-0.000222889 -0.000266881 0.0886932)
(0.000386373 -0.000329136 0.0721428)
(0.00185346 -0.00882992 0.0309219)
(-0.000457321 -0.0045202 0.0193034)
(-1.0284e-05 -0.000106163 0.112267)
(5.69126e-05 -0.00010093 0.112508)
(3.00525e-05 -6.92264e-05 0.113399)
(0.000119917 -9.5803e-05 0.114659)
(0.000178224 9.23524e-05 0.113996)
(-0.000120084 0.000307056 0.112187)
(-6.06164e-05 -0.000338298 0.0876991)
(0.000402626 -0.000384868 0.073825)
(0.000613818 -0.00603952 0.0313905)
(-0.00185615 -0.00423553 0.0149438)
(-1.27064e-05 0.000127859 0.111948)
(-3.35354e-05 0.000131635 0.112102)
(-4.93646e-05 8.26829e-05 0.112298)
(-7.36802e-05 9.96283e-05 0.112568)
(-0.000107065 -2.37799e-05 0.113064)
(5.32921e-05 -8.54542e-08 0.114178)
(6.39961e-05 0.000117628 0.113513)
(-0.000187987 0.000366792 0.112414)
(-0.000257896 -0.000344256 0.0888007)
(0.00058019 -0.000456009 0.0705677)
(-0.0116513 0.00240854 0.0165102)
(-6.0283e-06 -2.48184e-05 0.112155)
(1.51568e-05 -2.22002e-05 0.112237)
(4.8582e-06 -8.25024e-06 0.112315)
(1.22515e-05 -9.55779e-06 0.112284)
(1.10766e-05 2.30484e-05 0.112177)
(-5.70017e-05 3.47987e-05 0.112184)
(-1.43804e-05 -6.1018e-05 0.112613)
(-3.01707e-05 -1.41884e-05 0.113702)
(0.000257952 9.13533e-05 0.113519)
(-0.000560534 0.000560397 0.112551)
(0.000454461 -0.000579208 0.0706034)
(-0.00861767 0.004172 0.0189039)
(-1.11845e-05 8.7816e-05 0.1123)
(-1.93855e-05 8.66809e-05 0.112329)
(-3.72637e-05 7.20768e-05 0.112356)
(-3.78434e-05 6.92762e-05 0.112323)
(-5.68443e-05 4.91071e-05 0.112201)
(-2.84572e-05 3.72366e-05 0.112003)
(-4.7302e-05 7.29483e-05 0.11181)
(-0.000103278 2.11836e-05 0.111752)
(-8.3387e-05 8.20644e-05 0.112588)
(-9.21361e-05 -0.000258658 0.113532)
(0.000343711 0.000256344 0.0887978)
(-0.000617925 -0.00142187 0.0271494)
(-7.16836e-06 1.3558e-05 0.112372)
(-3.07887e-07 1.4384e-05 0.112374)
(-1.23073e-05 2.00662e-05 0.112369)
(-1.00825e-05 1.94959e-05 0.112329)
(-1.83987e-05 2.90571e-05 0.112243)
(-2.73773e-05 2.77935e-05 0.11211)
(-2.63117e-05 2.48409e-05 0.111931)
(-1.81651e-05 1.71046e-05 0.111681)
(-2.1754e-05 0.000102066 0.111762)
(1.37095e-05 2.98553e-05 0.113718)
(-0.000368483 0.000186742 0.112422)
(0.000384297 -0.000402571 0.0738269)
(0.00142354 -0.0021562 0.0296534)
(-1.07324e-05 6.87234e-05 0.112438)
(-1.3146e-05 6.66192e-05 0.112429)
(-3.22696e-05 6.31167e-05 0.11241)
(-2.87671e-05 5.66059e-05 0.112364)
(-4.82193e-05 5.49987e-05 0.112291)
(-3.19909e-05 4.10133e-05 0.112195)
(-5.57768e-05 5.49521e-05 0.112087)
(-2.61034e-05 2.54361e-05 0.111935)
(-7.35632e-05 4.67695e-05 0.111819)
(6.02484e-05 1.30763e-05 0.112621)
(-0.00011896 -6.47952e-05 0.113517)
(0.000337103 5.99507e-05 0.0876991)
(0.00044141 -0.00447469 0.0268573)
(0.000428151 -0.00252428 0.0166348)
(-9.01789e-06 2.65404e-05 0.112485)
(-5.81412e-06 2.59624e-05 0.112472)
(-2.21209e-05 2.87462e-05 0.112448)
(-1.79924e-05 2.63025e-05 0.112403)
(-3.38335e-05 3.13848e-05 0.112344)
(-2.75227e-05 2.67129e-05 0.112268)
(-4.19185e-05 3.11799e-05 0.112196)
(-2.8598e-05 2.63718e-05 0.112113)
(-3.82249e-05 2.81607e-05 0.112006)
(-3.54625e-05 5.54441e-05 0.112187)
(-1.10607e-06 -5.36545e-05 0.114178)
(-0.000308415 0.000119024 0.112184)
(0.000328546 -0.000386183 0.0721399)
(0.00158185 -0.00269833 0.0314932)
(-1.13105e-05 5.18572e-05 0.112539)
(-1.0945e-05 4.9957e-05 0.112525)
(-3.18416e-05 4.99382e-05 0.112499)
(-2.59827e-05 4.3236e-05 0.112456)
(-4.76823e-05 4.65595e-05 0.112406)
(-3.22116e-05 3.27589e-05 0.112344)
(-5.60398e-05 4.71442e-05 0.112292)
(-2.98067e-05 1.71506e-05 0.112244)
(-5.02515e-05 5.57541e-05 0.112201)
(-2.38577e-05 -1.18329e-05 0.112176)
(2.29919e-05 0.000105882 0.113062)
(-9.34849e-05 -0.000178479 0.113991)
(0.000265214 0.0002224 0.0886884)
(-0.000172323 -0.00434573 0.0269764)
(-1.09337e-05 2.29419e-05 0.112583)
(-7.71737e-06 2.22322e-05 0.112568)
(-2.87866e-05 2.38646e-05 0.112543)
(-2.13469e-05 2.03543e-05 0.112502)
(-4.43192e-05 2.48698e-05 0.112457)
(-2.70758e-05 1.6946e-05 0.112403)
(-5.76731e-05 2.76164e-05 0.112363)
(-2.03065e-05 9.04256e-06 0.112328)
(-6.97524e-05 3.66011e-05 0.112322)
(8.81686e-06 -1.29215e-05 0.112281)
(-0.000100261 7.21434e-05 0.112561)
(9.51095e-05 -0.000120341 0.114649)
(-0.00039976 0.000185297 0.113438)
(0.000472348 -0.000349221 0.0752955)
(-0.0065797 -0.00230061 0.0221266)
(-1.23518e-05 3.4089e-05 0.112635)
(-9.99627e-06 3.24385e-05 0.112618)
(-3.3698e-05 3.2472e-05 0.112589)
(-2.49982e-05 2.75585e-05 0.112545)
(-5.11306e-05 3.05995e-05 0.1125)
(-2.96075e-05 2.09327e-05 0.112448)
(-6.41406e-05 3.10379e-05 0.112409)
(-2.09041e-05 1.12181e-05 0.112368)
(-7.2847e-05 3.61814e-05 0.112353)
(7.14838e-06 -6.00093e-06 0.112311)
(-8.31712e-05 4.85e-05 0.112289)
(6.83586e-05 -3.09684e-05 0.113385)
(-0.000130506 4.45322e-05 0.116043)
(0.000148536 0.000116277 0.0938911)
(-0.00668187 0.00299137 0.0251037)
(-1.2593e-05 9.07223e-06 0.112681)
(-9.33591e-06 8.26513e-06 0.112657)
(-3.36798e-05 9.07875e-06 0.11262)
(-2.32433e-05 6.76349e-06 0.112571)
(-5.09942e-05 9.63899e-06 0.112525)
(-2.67189e-05 4.82983e-06 0.112472)
(-6.7587e-05 1.19278e-05 0.112429)
(-1.50483e-05 -4.32841e-07 0.112373)
(-8.72098e-05 1.82038e-05 0.112326)
(2.16748e-05 -1.59577e-05 0.112233)
(-0.000132008 3.2595e-05 0.112094)
(0.000100159 -5.82532e-05 0.112493)
(-0.000244208 6.24536e-05 0.113221)
(0.00024801 -9.16463e-05 0.0890088)
(0.00153387 -0.00108486 0.0321056)
(-1.33539e-05 1.2066e-05 0.112713)
(-9.99415e-06 1.13188e-05 0.112682)
(-3.52095e-05 1.10849e-05 0.112638)
(-2.446e-05 9.62617e-06 0.112586)
(-5.30923e-05 9.89706e-06 0.112539)
(-2.73166e-05 7.53361e-06 0.112486)
(-6.95102e-05 9.36942e-06 0.112439)
(-1.43642e-05 5.53424e-06 0.112372)
(-8.86509e-05 1.00423e-05 0.112298)
(2.39595e-05 4.61516e-06 0.112153)
(-0.000128894 1.16355e-05 0.111943)
(0.000105328 8.96589e-06 0.11226)
(-0.000214924 1.41487e-05 0.112792)
(0.000237419 3.28994e-05 0.0883639)
(0.00149034 0.000150939 0.0293669)
(-4.31727e-07 -0.00498283 0.0217399)
(-0.00070676 -0.00468531 0.019762)
(-0.00150478 -0.00127573 0.0104581)
(-3.34637e-05 -0.000234874 0.0883678)
(9.20325e-05 -0.000245258 0.0890212)
(-0.000116324 -0.000147416 0.0939011)
(0.000348094 -0.000468039 0.075299)
(0.00143585 -0.00589842 0.0290758)
(0.000471331 -0.00324878 0.0180779)
(-1.50969e-05 0.000218102 0.112801)
(-6.59407e-05 0.000245541 0.113243)
(-4.33744e-05 0.000133791 0.116059)
(-0.000190132 0.00039773 0.113449)
(-0.000233215 -0.00026393 0.0886921)
(0.000385027 -0.00032715 0.0721398)
(0.00185429 -0.00883194 0.0309294)
(-0.00045767 -0.00452075 0.0193063)
(-1.172e-05 -0.000103256 0.112263)
(5.82292e-05 -9.80895e-05 0.112505)
(2.77387e-05 -6.50341e-05 0.113395)
(0.000117507 -9.52419e-05 0.114655)
(0.000178982 9.67771e-05 0.113993)
(-0.000121826 0.000315407 0.112181)
(-6.44876e-05 -0.00033352 0.0876969)
(0.000400209 -0.000381494 0.0738227)
(0.000614303 -0.00604134 0.0313971)
(-0.00185629 -0.00423647 0.0149469)
(-1.27474e-05 0.000131281 0.11195)
(-3.51987e-05 0.000136081 0.112105)
(-4.99437e-05 8.50809e-05 0.1123)
(-7.68539e-05 0.000105502 0.11257)
(-0.000110787 -2.05125e-05 0.113064)
(5.30278e-05 4.06151e-06 0.114176)
(6.11323e-05 0.000120951 0.11351)
(-0.000192055 0.000376097 0.11241)
(-0.000262001 -0.000341855 0.0887994)
(0.000577333 -0.000451796 0.0705654)
(-0.0116549 0.00241315 0.0165104)
(-6.61191e-06 -2.21896e-05 0.112154)
(1.53181e-05 -1.94766e-05 0.112236)
(3.879e-06 -4.50623e-06 0.112315)
(1.08084e-05 -7.45471e-06 0.112284)
(9.96485e-06 2.82142e-05 0.112178)
(-5.86319e-05 3.77173e-05 0.112183)
(-1.38272e-05 -5.85394e-05 0.112612)
(-3.51902e-05 -1.18219e-05 0.113699)
(0.000255596 9.65959e-05 0.113518)
(-0.00056006 0.00056048 0.112548)
(0.000450419 -0.000578163 0.0706008)
(-0.0086199 0.00417257 0.018908)
(-1.13726e-05 9.15874e-05 0.112302)
(-2.00809e-05 9.0779e-05 0.112332)
(-3.85324e-05 7.5493e-05 0.112358)
(-3.94859e-05 7.33053e-05 0.112326)
(-5.95888e-05 5.30611e-05 0.112203)
(-3.1244e-05 4.09944e-05 0.112004)
(-5.06264e-05 7.69282e-05 0.111812)
(-0.000104635 2.26872e-05 0.111753)
(-9.00514e-05 8.87651e-05 0.112589)
(-9.72571e-05 -0.000256322 0.113531)
(0.00034177 0.000259875 0.0887966)
(-0.000617737 -0.00142301 0.0271574)
(-7.52143e-06 1.61668e-05 0.112369)
(-5.33559e-07 1.67324e-05 0.112372)
(-1.33459e-05 2.2855e-05 0.112368)
(-1.08997e-05 2.16269e-05 0.112328)
(-1.9634e-05 3.20228e-05 0.112244)
(-2.88344e-05 3.00776e-05 0.11211)
(-2.78719e-05 2.82191e-05 0.111932)
(-2.03418e-05 1.92376e-05 0.11168)
(-2.32855e-05 0.000103284 0.111763)
(1.12925e-05 3.4693e-05 0.113714)
(-0.000377712 0.000190596 0.112418)
(0.000380875 -0.000400219 0.0738248)
(0.001424 -0.00215583 0.0296594)
(-1.10932e-05 7.18842e-05 0.112438)
(-1.36777e-05 6.9618e-05 0.112429)
(-3.37399e-05 6.65401e-05 0.11241)
(-3.01671e-05 5.95892e-05 0.112364)
(-5.07075e-05 5.83669e-05 0.112293)
(-3.42662e-05 4.33494e-05 0.112196)
(-5.91888e-05 5.82959e-05 0.112089)
(-2.96286e-05 2.69336e-05 0.111937)
(-7.76575e-05 4.99226e-05 0.11182)
(5.77613e-05 1.2429e-05 0.11262)
(-0.000122145 -6.19416e-05 0.113514)
(0.000332945 6.36538e-05 0.0876973)
(0.0004427 -0.00447596 0.0268644)
(0.00042827 -0.0025249 0.0166372)
(-9.62319e-06 2.82889e-05 0.112481)
(-5.76284e-06 2.76189e-05 0.112468)
(-2.3138e-05 3.06751e-05 0.112445)
(-1.88089e-05 2.76943e-05 0.1124)
(-3.56657e-05 3.33091e-05 0.112343)
(-2.89845e-05 2.8254e-05 0.112267)
(-4.43225e-05 3.34255e-05 0.112197)
(-3.10373e-05 2.76822e-05 0.112113)
(-4.20378e-05 3.07991e-05 0.112007)
(-3.82792e-05 5.71106e-05 0.112186)
(-5.32679e-06 -5.33723e-05 0.114177)
(-0.000316726 0.000120659 0.112179)
(0.000326723 -0.000385321 0.0721371)
(0.00158315 -0.00269821 0.0314988)
(-1.18238e-05 5.4593e-05 0.112534)
(-1.12852e-05 5.24584e-05 0.11252)
(-3.3548e-05 5.23976e-05 0.112495)
(-2.73499e-05 4.50693e-05 0.112453)
(-4.99991e-05 4.89498e-05 0.112405)
(-3.41695e-05 3.45906e-05 0.112343)
(-5.9705e-05 4.94547e-05 0.112293)
(-3.30371e-05 1.83689e-05 0.112244)
(-5.41293e-05 5.85563e-05 0.112203)
(-2.88637e-05 -1.08324e-05 0.112178)
(1.96975e-05 0.00010946 0.113062)
(-9.79e-05 -0.000179242 0.113988)
(0.000262475 0.000232589 0.0886877)
(-0.000170937 -0.00434688 0.0269846)
(-1.16818e-05 2.52356e-05 0.112576)
(-7.92961e-06 2.38984e-05 0.112562)
(-3.04532e-05 2.53406e-05 0.112537)
(-2.22195e-05 2.15061e-05 0.112497)
(-4.6155e-05 2.63023e-05 0.112454)
(-2.86418e-05 1.77287e-05 0.112401)
(-6.07371e-05 2.90641e-05 0.112363)
(-2.23531e-05 1.0334e-05 0.112328)
(-7.3922e-05 3.83133e-05 0.112324)
(6.62041e-06 -1.13357e-05 0.11228)
(-0.000106105 7.52466e-05 0.112563)
(9.45572e-05 -0.000117882 0.114646)
(-0.000399052 0.000188602 0.113437)
(0.000466656 -0.000347839 0.0752909)
(-0.00658028 -0.0022998 0.0221315)
(-1.32251e-05 3.71475e-05 0.112628)
(-1.11361e-05 3.50999e-05 0.112611)
(-3.59082e-05 3.46595e-05 0.112582)
(-2.64122e-05 2.92343e-05 0.11254)
(-5.38317e-05 3.22358e-05 0.112497)
(-3.15859e-05 2.21132e-05 0.112445)
(-6.73493e-05 3.2668e-05 0.112409)
(-2.39345e-05 1.22573e-05 0.112368)
(-7.65147e-05 3.73221e-05 0.112356)
(3.42779e-06 -4.83564e-06 0.112311)
(-8.56978e-05 4.89574e-05 0.112291)
(6.41349e-05 -2.86097e-05 0.113382)
(-0.000134544 4.24883e-05 0.11604)
(0.000146173 0.000115896 0.0938863)
(-0.00668202 0.00299249 0.0251106)
(-1.38414e-05 1.09858e-05 0.112671)
(-1.04116e-05 9.63827e-06 0.112648)
(-3.63341e-05 1.01675e-05 0.112612)
(-2.46771e-05 7.27411e-06 0.112565)
(-5.33412e-05 1.02088e-05 0.112521)
(-2.83165e-05 5.32449e-06 0.112468)
(-7.08282e-05 1.24971e-05 0.112429)
(-1.76018e-05 -1.60896e-07 0.112371)
(-9.12616e-05 1.89866e-05 0.112329)
(1.88651e-05 -1.60899e-05 0.112232)
(-0.00013657 3.40061e-05 0.112096)
(9.75667e-05 -5.93932e-05 0.112491)
(-0.000246224 6.49143e-05 0.11322)
(0.000244632 -9.30988e-05 0.0890044)
(0.00153549 -0.00108493 0.0321138)
(-1.47053e-05 1.34319e-05 0.112704)
(-1.19592e-05 1.25151e-05 0.112673)
(-3.82909e-05 1.20932e-05 0.112629)
(-2.64094e-05 1.04803e-05 0.112579)
(-5.58244e-05 1.05418e-05 0.112535)
(-2.93067e-05 8.00439e-06 0.112482)
(-7.29565e-05 9.74391e-06 0.112438)
(-1.7166e-05 5.98394e-06 0.11237)
(-9.26904e-05 1.0244e-05 0.112301)
(2.10129e-05 5.12215e-06 0.112152)
(-0.000132295 1.16794e-05 0.111946)
(0.000102504 1.04981e-05 0.112257)
(-0.000218879 1.4105e-05 0.11279)
(0.000234706 3.25159e-05 0.0883608)
(0.00149242 0.000151121 0.029375)
(-4.19444e-07 -0.00498383 0.0217446)
(-0.000706755 -0.004686 0.0197663)
(-0.00150478 -0.00127591 0.0104621)
(-3.36341e-05 -0.000230944 0.0883663)
(9.33684e-05 -0.0002407 0.0890187)
(-0.000116469 -0.0001447 0.0938976)
(0.000346164 -0.000460961 0.0752942)
(0.00143586 -0.00590017 0.0290834)
(0.000471146 -0.00324969 0.0180816)
(-1.40527e-05 0.000220209 0.1128)
(-6.83048e-05 0.000247024 0.113244)
(-4.11404e-05 0.000136504 0.116058)
(-0.000192961 0.00039717 0.113449)
(-0.000243339 -0.000260142 0.0886916)
(0.000382757 -0.000324838 0.0721391)
(0.00185421 -0.00883464 0.0309385)
(-0.000458028 -0.00452158 0.0193101)
(-1.26222e-05 -9.97395e-05 0.112262)
(5.97779e-05 -9.56168e-05 0.112504)
(2.53775e-05 -6.05491e-05 0.113394)
(0.000116436 -9.46842e-05 0.114653)
(0.000180204 0.000100841 0.113992)
(-0.000122904 0.000322415 0.112179)
(-6.69535e-05 -0.000328168 0.0876973)
(0.000397266 -0.00037749 0.0738201)
(0.000614959 -0.00604355 0.0314049)
(-0.00185658 -0.00423732 0.0149509)
(-1.28616e-05 0.000133711 0.111955)
(-3.70478e-05 0.000139146 0.112109)
(-5.02059e-05 8.73443e-05 0.112303)
(-8.00897e-05 0.000110733 0.112574)
(-0.000115751 -1.75328e-05 0.113067)
(5.23306e-05 8.34405e-06 0.114176)
(5.89114e-05 0.000123258 0.11351)
(-0.000194682 0.000383805 0.112409)
(-0.000265655 -0.000338607 0.088801)
(0.000576248 -0.000446697 0.0705629)
(-0.0116554 0.00240974 0.0165231)
(-6.95212e-06 -2.09315e-05 0.112152)
(1.65444e-05 -1.83416e-05 0.112235)
(3.57343e-06 -2.26575e-06 0.112316)
(1.06063e-05 -7.06621e-06 0.112283)
(1.0168e-05 3.22036e-05 0.112181)
(-6.0396e-05 4.01576e-05 0.112185)
(-1.36984e-05 -5.54925e-05 0.112613)
(-3.89753e-05 -9.38275e-06 0.113698)
(0.000254716 0.000102021 0.113518)
(-0.000560898 0.000560595 0.112547)
(0.000445213 -0.000574237 0.0705991)
(-0.00862152 0.00417383 0.0189129)
(-1.16784e-05 9.3418e-05 0.112304)
(-2.11294e-05 9.26004e-05 0.112334)
(-3.96403e-05 7.72105e-05 0.112361)
(-4.08391e-05 7.56872e-05 0.112329)
(-6.2271e-05 5.49458e-05 0.112205)
(-3.26624e-05 4.31951e-05 0.112006)
(-5.2744e-05 8.06242e-05 0.111817)
(-0.000104966 2.39121e-05 0.111756)
(-9.64138e-05 9.48607e-05 0.112593)
(-0.000102726 -0.000255469 0.113531)
(0.000338589 0.00026415 0.0887985)
(-0.000617839 -0.00142498 0.0271661)
(-7.84076e-06 1.55473e-05 0.112367)
(5.48216e-07 1.61999e-05 0.11237)
(-1.30795e-05 2.32201e-05 0.112368)
(-1.08363e-05 2.13255e-05 0.112327)
(-1.94393e-05 3.34379e-05 0.112245)
(-2.85978e-05 3.09901e-05 0.11211)
(-2.85318e-05 3.04208e-05 0.111935)
(-2.15886e-05 2.02188e-05 0.111681)
(-2.45511e-05 0.000103262 0.111766)
(9.03359e-06 3.83413e-05 0.113713)
(-0.000385377 0.00019327 0.112418)
(0.000376817 -0.00039721 0.0738222)
(0.00142461 -0.00215584 0.0296672)
(-1.14213e-05 7.3544e-05 0.112433)
(-1.37619e-05 7.13581e-05 0.112425)
(-3.45962e-05 6.75584e-05 0.112407)
(-3.03919e-05 6.04278e-05 0.112362)
(-5.20558e-05 5.99382e-05 0.112293)
(-3.47862e-05 4.37449e-05 0.112196)
(-6.1158e-05 6.02647e-05 0.112092)
(-3.21899e-05 2.74802e-05 0.111939)
(-8.1494e-05 5.22093e-05 0.111826)
(5.50648e-05 1.23205e-05 0.112621)
(-0.00012424 -5.96646e-05 0.113515)
(0.000327577 6.59687e-05 0.087698)
(0.000444396 -0.00447823 0.0268734)
(0.000428264 -0.00252603 0.0166403)
(-9.94294e-06 2.75856e-05 0.112473)
(-5.29879e-06 2.69008e-05 0.112461)
(-2.37222e-05 3.02627e-05 0.112439)
(-1.81228e-05 2.67749e-05 0.112396)
(-3.58544e-05 3.32326e-05 0.11234)
(-2.83255e-05 2.78059e-05 0.112266)
(-4.48385e-05 3.38845e-05 0.112197)
(-3.20575e-05 2.75038e-05 0.112113)
(-4.41334e-05 3.26156e-05 0.112009)
(-4.06456e-05 5.90158e-05 0.112188)
(-9.81577e-06 -5.26744e-05 0.114177)
(-0.00032368 0.000121714 0.112176)
(0.000324682 -0.000383134 0.0721368)
(0.00158338 -0.00269787 0.0315063)
(-1.23747e-05 5.68291e-05 0.112521)
(-1.10567e-05 5.442e-05 0.112509)
(-3.45647e-05 5.39517e-05 0.112486)
(-2.7191e-05 4.65753e-05 0.112446)