/*--------------------------------*- C++ -*----------------------------------*\
| =========                 |                                                 |
| \\      /  F ield         | OpenFOAM: The Open Source CFD Toolbox           |
|  \\    /   O peration     | Version:  2.1.1                                 |
|   \\  /    A nd           | Web:      www.OpenFOAM.org                      |
|    \\/     M anipulation  |                                                 |
\*---------------------------------------------------------------------------*/
FoamFile
{
    version     2.0;
    format      ascii;
    class       volVectorField;
    location    "0.0045";
    object      U;
}
// * * * * * * * * * * * * * * * * * * * * * * * * * * * * * * * * * * * * * //

dimensions      [0 1 -1 0 0 0 0];

internalField   nonuniform List<vector> 
10343
(
(-0.0131538 0.0049662 0.0631328)
(-0.00132456 0.000561816 0.0725044)
(0.00230775 -0.00721587 0.0533664)
(-0.00454826 -0.00688555 0.0628911)
(0.00247834 -0.00536586 0.0795895)
(-0.002127 -0.00768109 0.0804151)
(-0.00428196 0.0140188 0.0813691)
(-0.00133407 0.0160799 0.0804738)
(0.000959315 -0.00404325 0.0557908)
(-0.0012769 -0.00886174 0.0774778)
(0.00696745 0.00411028 0.0800565)
(0.00250176 0.00534926 0.0777876)
(0.0020469 0.00297932 0.0805666)
(-1.27313e-07 0.00202064 0.0831802)
(-0.000114156 0.00508113 0.0838955)
(6.83057e-05 0.00662485 0.0840052)
(-0.00495729 -0.000175164 0.0621041)
(0.00197506 0.00769346 0.0821435)
(0.00157464 0.00806274 0.0786317)
(0.00443238 0.00603451 0.080249)
(0.00311327 0.00429936 0.082338)
(0.00225295 0.00297106 0.0837397)
(0.000666216 0.00233349 0.0845149)
(0.000230159 0.00265893 0.084761)
(6.30868e-05 0.00298079 0.0847695)
(-0.0009684 0.00284607 0.0771248)
(0.00224933 0.00937443 0.0812489)
(0.00317453 0.00698376 0.0808948)
(0.00308182 0.005382 0.0825585)
(0.00291924 0.00388451 0.0834846)
(0.00187494 0.00272175 0.0839801)
(0.00122875 0.00197901 0.0842746)
(0.000454858 0.00148136 0.0845429)
(0.000198426 0.00129819 0.0846863)
(2.21307e-05 0.0012676 0.0847404)
(0.00285182 -0.000961941 0.0771112)
(0.00390838 0.00390378 0.0843243)
(0.00379197 0.00515426 0.0838244)
(0.00246116 0.00378395 0.0840704)
(0.00179946 0.00287448 0.0841593)
(0.00155056 0.00217641 0.0842074)
(0.00104592 0.00176429 0.0843249)
(0.000742635 0.00144867 0.0844567)
(0.000354536 0.00127451 0.0846126)
(0.000186368 0.00115384 0.0847158)
(2.93883e-05 0.00111629 0.0847917)
(-0.000171722 -0.00495609 0.0620989)
(0.00938243 0.00225476 0.0812449)
(0.00514911 0.00380181 0.0838173)
(0.00236744 0.00237421 0.084582)
(0.00159726 0.00187792 0.0843154)
(0.00116012 0.00159169 0.0842898)
(0.000997532 0.00133448 0.0843445)
(0.000700562 0.00119202 0.0844538)
(0.000532902 0.00105426 0.0845884)
(0.000291186 0.000953681 0.0847142)
(0.000166744 0.000871244 0.0848111)
(2.86411e-05 0.000834734 0.0848878)
(-0.00404354 0.000956707 0.0557896)
(0.00769472 0.0019725 0.0821425)
(0.00698701 0.00317338 0.0808921)
(0.00378156 0.00246512 0.0840664)
(0.00187485 0.00159957 0.0843148)
(0.0012484 0.00124953 0.0843033)
(0.000922688 0.00111821 0.0843693)
(0.000773711 0.000997052 0.0844774)
(0.000564961 0.000927076 0.0846)
(0.00043509 0.000850111 0.0847175)
(0.000261838 0.000799467 0.0848213)
(0.000151176 0.000754035 0.0849063)
(2.77053e-05 0.00073273 0.084981)
(-0.00886034 -0.00127812 0.0774774)
(0.00806391 0.00157361 0.0786309)
(0.00538312 0.0030816 0.0825565)
(0.00287369 0.00180119 0.0841573)
(0.00159112 0.00116206 0.0842896)
(0.0011177 0.000923695 0.0843689)
(0.000826071 0.000826655 0.0844893)
(0.000674032 0.000753716 0.0846124)
(0.000498508 0.000705947 0.0847215)
(0.000381513 0.000656562 0.0848217)
(0.000239825 0.000621388 0.0849106)
(0.000137903 0.000590433 0.0849899)
(2.52061e-05 0.000573862 0.0850622)
(-0.00721584 0.00230812 0.0533665)
(0.00411038 0.00696698 0.0800562)
(0.00603535 0.00443139 0.0802481)
(0.00388481 0.00291892 0.0834828)
(0.00217682 0.00155086 0.0842061)
(0.00133458 0.00099809 0.0843436)
(0.000997005 0.000774052 0.0844769)
(0.000753453 0.000674217 0.0846122)
(0.000608237 0.000608238 0.0847257)
(0.000456259 0.000567952 0.0848229)
(0.000347145 0.000532538 0.0849122)
(0.000224746 0.000508791 0.0849935)
(0.000127915 0.000488587 0.0850679)
(2.35702e-05 0.000476921 0.0851375)
(-0.00688565 -0.00454846 0.0628911)
(0.0053494 0.00250163 0.0777876)
(0.00429979 0.00311299 0.0823373)
(0.00272217 0.00187503 0.0839792)
(0.00176475 0.0010463 0.0843241)
(0.00119225 0.000700967 0.084453)
(0.000927146 0.000565267 0.0845995)
(0.000705761 0.000498707 0.0847213)
(0.000567928 0.000456146 0.0848228)
(0.000428845 0.000428745 0.0849115)
(0.000324632 0.000405395 0.0849938)
(0.000213357 0.000388384 0.0850691)
(0.000119991 0.000373869 0.0851393)
(2.21331e-05 0.000364882 0.0852062)
(-0.00536603 0.00247845 0.0795894)
(0.00297972 0.00204683 0.0805664)
(0.0029714 0.0022526 0.0837391)
(0.00197935 0.00122857 0.0842739)
(0.00144902 0.000742566 0.0844561)
(0.00105444 0.000532904 0.0845878)
(0.000850216 0.000435112 0.0847171)
(0.000656422 0.000381583 0.0848215)
(0.000532361 0.000347324 0.084912)
(0.000405262 0.00032423 0.0849935)
(0.000306278 0.0003055 0.0850695)
(0.000203523 0.000292928 0.0851402)
(0.000114026 0.000282832 0.0852073)
(2.05958e-05 0.000276514 0.0852716)
(-0.00768114 -0.00212721 0.080415)
(0.00202102 -1.86575e-07 0.08318)
(0.00233378 0.000666111 0.0845145)
(0.00148158 0.00045475 0.0845424)
(0.00127478 0.000354458 0.0846123)
(0.000953826 0.000291223 0.0847138)
(0.000799561 0.000261931 0.0848209)
(0.000621355 0.000239977 0.0849104)
(0.000508698 0.000224894 0.0849934)
(0.000388138 0.000213672 0.0850689)
(0.000293028 0.000203619 0.0851399)
(0.000195511 0.00019519 0.0852068)
(0.000109461 0.000188595 0.0852711)
(1.99359e-05 0.00018419 0.0853339)
(0.00496618 -0.0131539 0.0631328)
(0.0140188 -0.00428218 0.081369)
(0.00508151 -0.000114368 0.0838953)
(0.00265923 0.00022992 0.0847608)
(0.00129837 0.000198206 0.084686)
(0.00115402 0.00018622 0.0847156)
(0.000871352 0.000166626 0.0848108)
(0.000754107 0.000151104 0.084906)
(0.000590416 0.000137877 0.0849896)
(0.000488541 0.000127938 0.0850676)
(0.000373794 0.000120119 0.0851392)
(0.000282932 0.000114196 0.0852072)
(0.000188779 0.00010955 0.0852711)
(0.000105005 0.000105237 0.0853334)
(1.89419e-05 0.000102053 0.0853947)
(0.000561799 -0.00132456 0.0725044)
(0.0160798 -0.00133412 0.0804739)
(0.00662527 6.81479e-05 0.084005)
(0.00298117 6.29356e-05 0.0847694)
(0.00126787 2.20168e-05 0.0847403)
(0.00111645 2.93446e-05 0.0847916)
(0.000834797 2.86123e-05 0.0848875)
(0.00073277 2.7704e-05 0.0849808)
(0.000573832 2.52522e-05 0.085062)
(0.000476881 2.3666e-05 0.0851373)
(0.000364842 2.22675e-05 0.085206)
(0.000276547 2.07272e-05 0.0852714)
(0.000184189 2.00164e-05 0.0853338)
(0.000101979 1.89825e-05 0.0853948)
(1.66425e-05 1.66854e-05 0.0854552)
(-0.00588721 -0.00476301 0.0402494)
(-0.00215607 -0.00593335 0.0572108)
(0.00247353 -0.00505872 0.0343903)
(-0.00543865 -0.00582828 0.0588831)
(0.021432 0.0246171 0.11653)
(0.00446044 0.0384787 0.13632)
(-0.000896292 0.0468492 0.123302)
(-0.00074013 0.0517958 0.121798)
(-0.000779985 -0.00662948 0.0369095)
(-0.00455613 -0.0100695 0.0785953)
(0.0258195 0.0366544 0.105913)
(0.0133005 0.0341779 0.122266)
(0.0111674 0.0217111 0.152392)
(-0.000604482 0.018952 0.152517)
(-0.00040181 0.0204883 0.146382)
(-0.000515909 0.0229366 0.14434)
(-0.0113785 -0.00248759 0.0535651)
(0.0233674 0.0406854 0.113375)
(0.0121571 0.0387944 0.122963)
(0.0160537 0.0293243 0.149782)
(0.00897134 0.0226807 0.148674)
(0.00755296 0.0132116 0.147326)
(0.00224528 0.0143042 0.142983)
(0.00137458 0.0149068 0.140769)
(-2.11282e-05 0.0158497 0.139739)
(0.019983 0.0248172 0.118885)
(0.00842912 0.0362287 0.124053)
(0.0152382 0.0298701 0.151177)
(0.00862611 0.0243974 0.14868)
(0.00910859 0.015128 0.146316)
(0.00605934 0.013349 0.140717)
(0.00469626 0.0095465 0.137581)
(0.00198694 0.00965499 0.135511)
(0.00147618 0.00924391 0.13514)
(0.000175143 0.00949906 0.13474)
(0.0247985 0.0199667 0.11881)
(0.0167096 0.0166777 0.154809)
(0.00901385 0.020864 0.149295)
(0.00891025 0.0141331 0.14606)
(0.0068134 0.0135203 0.140816)
(0.00627855 0.00999688 0.137298)
(0.00464586 0.00985264 0.135316)
(0.0038211 0.00808225 0.134801)
(0.00221245 0.0083218 0.134441)
(0.0014785 0.00789563 0.134494)
(0.000303889 0.00795972 0.134341)
(-0.00249 -0.0113779 0.0535539)
(0.0362009 0.00845245 0.124005)
(0.0208318 0.00901953 0.149271)
(0.0110674 0.0110801 0.142816)
(0.0083319 0.00897937 0.137549)
(0.00613126 0.00918076 0.135237)
(0.00518143 0.00755187 0.134447)
(0.00384926 0.00740484 0.134038)
(0.00300426 0.00630825 0.134086)
(0.00183113 0.0061605 0.133877)
(0.00119188 0.00573859 0.133876)
(0.00028358 0.00570034 0.133764)
(-0.00662994 -0.000777105 0.0369094)
(0.0406779 0.0233467 0.113358)
(0.0298564 0.0152207 0.151144)
(0.0141153 0.00890876 0.146041)
(0.00897176 0.00833767 0.13754)
(0.00685558 0.00685806 0.134818)
(0.00535374 0.0068903 0.134183)
(0.00435444 0.00591362 0.134072)
(0.00328181 0.00572135 0.133892)
(0.00253991 0.00505365 0.133902)
(0.00165596 0.00495943 0.133778)
(0.00104621 0.00469539 0.133784)
(0.000283808 0.00466789 0.133732)
(-0.0100694 -0.00455594 0.0785946)
(0.0387921 0.0121491 0.122953)
(0.0243873 0.0086201 0.148665)
(0.0135085 0.00681301 0.140808)
(0.00917363 0.0061358 0.135233)
(0.0068852 0.00535622 0.134182)
(0.00512564 0.00512939 0.133888)
(0.00397135 0.00450177 0.133814)
(0.00295564 0.00430469 0.133648)
(0.00222876 0.00389069 0.133639)
(0.0014757 0.00377782 0.133547)
(0.000910012 0.00358963 0.133549)
(0.00026321 0.00355325 0.133516)
(-0.00505911 0.0024744 0.0343906)
(0.0366536 0.0258143 0.105909)
(0.0293235 0.0160436 0.149775)
(0.0151237 0.00910098 0.146308)
(0.00999137 0.00627525 0.137292)
(0.00754783 0.00518127 0.134443)
(0.00591065 0.00435468 0.13407)
(0.00449933 0.00397315 0.133812)
(0.00352117 0.00352249 0.133718)
(0.00266077 0.00334808 0.133585)
(0.00200875 0.00308686 0.133574)
(0.00135743 0.00300537 0.133517)
(0.00082668 0.00288718 0.133519)
(0.000251141 0.00286183 0.133501)
(-0.00582839 -0.00543852 0.0588835)
(0.034179 0.0132984 0.122263)
(0.0226804 0.00896682 0.148671)
(0.0133464 0.00605619 0.140714)
(0.00984879 0.00464429 0.135313)
(0.00740152 0.00384969 0.134036)
(0.00571836 0.00328228 0.133891)
(0.0043021 0.00295703 0.133647)
(0.0033463 0.00266182 0.133585)
(0.00251734 0.00251845 0.133485)
(0.0018848 0.00234754 0.133479)
(0.00127739 0.00227847 0.133436)
(0.000768654 0.00219785 0.133437)
(0.000239397 0.00217585 0.133424)
(0.0246166 0.0214317 0.11653)
(0.0217115 0.0111647 0.15239)
(0.0132113 0.00754954 0.147323)
(0.00954507 0.00469351 0.137578)
(0.00808007 0.00381941 0.134798)
(0.00630622 0.00300383 0.134084)
(0.0050517 0.00253986 0.1339)
(0.00388892 0.0022295 0.133638)
(0.00308537 0.00200951 0.133574)
(0.00234647 0.00188571 0.133479)
(0.00176874 0.00176932 0.133469)
(0.0012089 0.00171621 0.133431)
(0.000725434 0.00166412 0.13343)
(0.000229816 0.00164847 0.13342)
(0.0384786 0.00446007 0.13632)
(0.018952 -0.000605259 0.152516)
(0.0143042 0.00224392 0.142982)
(0.00965388 0.00198587 0.13551)
(0.00832019 0.00221175 0.13444)
(0.00615875 0.00183107 0.133876)
(0.00495761 0.00165603 0.133778)
(0.00377607 0.00147623 0.133547)
(0.00300381 0.00135792 0.133517)
(0.00227719 0.00127821 0.133436)
(0.00171531 0.00120943 0.133432)
(0.00117262 0.00117327 0.133401)
(0.000701566 0.0011411 0.1334)
(0.00022383 0.00113021 0.133392)
(-0.00476305 -0.00588733 0.0402495)
(0.0468487 -0.000896712 0.123302)
(0.020488 -0.000402 0.14638)
(0.0149063 0.00137404 0.140767)
(0.00924305 0.00147575 0.135139)
(0.0078944 0.00147827 0.134493)
(0.00573729 0.001192 0.133874)
(0.00469402 0.00104642 0.133783)
(0.00358829 0.000910506 0.133548)
(0.00288598 0.000827158 0.133519)
(0.00219686 0.000769336 0.133436)
(0.00166338 0.000725981 0.133429)
(0.00114057 0.000702175 0.1334)
(0.000682679 0.000683132 0.133398)
(0.000219095 0.000675258 0.133392)
(-0.00593335 -0.00215625 0.0572109)
(0.0517957 -0.000739695 0.121798)
(0.0229364 -0.000515671 0.144339)
(0.0158494 -2.10492e-05 0.139739)
(0.00949829 0.000175113 0.134739)
(0.0079586 0.000303775 0.13434)
(0.005699 0.000283571 0.133763)
(0.00466642 0.000283698 0.133731)
(0.00355177 0.000263241 0.133515)
(0.00286046 0.000251085 0.133501)
(0.00217465 0.000239516 0.133424)
(0.0016475 0.000229814 0.13342)
(0.00112945 0.00022403 0.133392)
(0.000674641 0.000219143 0.133392)
(0.000216841 0.000217229 0.133385)
(-0.000462785 -0.00580381 0.0188005)
(-0.000783508 -0.00585889 0.0293746)
(0.00146583 -0.00384209 0.0180481)
(-0.00574932 -0.00567334 0.0287351)
(0.00401395 0.00572246 0.0810239)
(0.00187187 0.0107132 0.102603)
(0.00213515 0.0101452 0.0926006)
(-8.37781e-05 0.011392 0.0929507)
(0.000286541 -0.00472198 0.0187383)
(-0.00586898 -0.0066423 0.0381941)
(0.00714498 0.00970869 0.0790755)
(-0.00136947 0.00646475 0.0993897)
(0.000205036 0.00399598 0.126327)
(-0.00099336 0.00453419 0.130382)
(0.00114336 0.00277125 0.124823)
(-0.000367428 0.00359524 0.124661)
(-0.00578358 -0.00575982 0.0245421)
(0.00789334 0.0106994 0.0827519)
(-0.000330799 0.00762877 0.0999709)
(0.00395066 0.00596562 0.12626)
(0.00316261 0.0065454 0.124856)
(0.00373671 0.00611773 0.116425)
(0.00274673 0.00893417 0.1115)
(0.00244998 0.00848873 0.10849)
(0.000290328 0.00910425 0.108315)
(0.00766994 0.00476324 0.078113)
(-0.00019227 0.00787673 0.0998514)
(0.00419801 0.00677739 0.126556)
(0.00396946 0.00646767 0.125485)
(0.00492797 0.00634031 0.117145)
(0.00420786 0.00775038 0.110078)
(0.00338609 0.00742764 0.103184)
(0.00210112 0.00800336 0.101286)
(0.00174239 0.00713086 0.100344)
(0.00024867 0.00718639 0.100219)
(0.00474456 0.00764625 0.0780881)
(0.00449035 0.00446907 0.127489)
(0.00494742 0.00596817 0.124358)
(0.00576808 0.00634778 0.116521)
(0.00566503 0.00768308 0.110019)
(0.00505655 0.00751429 0.102943)
(0.0041251 0.00814733 0.10044)
(0.00339501 0.00753406 0.0980543)
(0.00234309 0.00795881 0.0975365)
(0.0016544 0.00750857 0.0969706)
(0.000367688 0.00759691 0.0967795)
(-0.00576181 -0.00578344 0.0245395)
(0.00784996 -0.00017375 0.0998036)
(0.0059487 0.00495578 0.12433)
(0.00685513 0.00685488 0.114253)
(0.00632669 0.00696072 0.104316)
(0.00558529 0.00740561 0.100975)
(0.00476057 0.00693705 0.0980847)
(0.00379573 0.00702348 0.097187)
(0.00299964 0.00647109 0.0960392)
(0.00201494 0.00646854 0.0955815)
(0.00135136 0.00609728 0.0950994)
(0.000336299 0.00608536 0.0949044)
(-0.00472231 0.000288416 0.0187389)
(0.0106935 0.00788316 0.08274)
(0.006768 0.00419587 0.126526)
(0.00633173 0.00577896 0.116499)
(0.00695573 0.00633367 0.104304)
(0.00623644 0.00623848 0.0990925)
(0.00539362 0.00642446 0.0976374)
(0.00450923 0.00603256 0.0961187)
(0.00360486 0.00604251 0.0953544)
(0.00284751 0.00567619 0.0944938)
(0.00196922 0.0057092 0.0940526)
(0.00126311 0.00550766 0.0936851)
(0.000355809 0.00551371 0.093539)
(-0.00664313 -0.00586911 0.0381941)
(0.00762811 -0.000333366 0.0999533)
(0.00646113 0.00396807 0.125465)
(0.00767336 0.00566788 0.110007)
(0.00739806 0.00559097 0.100968)
(0.00641795 0.00539654 0.0976362)
(0.00530678 0.00531145 0.0961885)
(0.00437629 0.00501005 0.0948535)
(0.00345567 0.00494991 0.094058)
(0.00268036 0.00469468 0.0933892)
(0.00184667 0.00465437 0.0930152)
(0.00115203 0.00450278 0.0927494)
(0.000341932 0.00448411 0.0926376)
(-0.00384242 0.00146666 0.0180486)
(0.00970852 0.00714126 0.0790743)
(0.00596636 0.00394358 0.126251)
(0.00633772 0.0049222 0.117137)
(0.00750901 0.00505423 0.102937)
(0.00693224 0.0047604 0.0980806)
(0.00602851 0.00450973 0.0961172)
(0.00500672 0.00437874 0.0948529)
(0.00415661 0.00415864 0.0937876)
(0.0032967 0.00409245 0.0931244)
(0.00255527 0.00392166 0.0926241)
(0.0017764 0.00388933 0.0923262)
(0.00109131 0.00379471 0.0921259)
(0.000337567 0.00378198 0.0920379)
(-0.00567351 -0.0057495 0.0287354)
(0.00646639 -0.0013712 0.0993864)
(0.00654625 0.00315884 0.12485)
(0.00774846 0.00420513 0.110074)
(0.00814344 0.00412371 0.100437)
(0.00701942 0.00379618 0.0971848)
(0.00603845 0.00360543 0.0953533)
(0.0049465 0.00345746 0.0940576)
(0.00408992 0.00329821 0.0931246)
(0.00321896 0.00322083 0.0925359)
(0.00247693 0.00309868 0.0921248)
(0.00171849 0.00305573 0.0918669)
(0.00104368 0.00298721 0.091704)
(0.000329309 0.00297181 0.0916295)
(0.00572231 0.00401302 0.0810232)
(0.00399694 0.000202819 0.126324)
(0.00611768 0.00373341 0.116421)
(0.00742665 0.00338336 0.103181)
(0.00753173 0.00339321 0.098052)
(0.00646853 0.00299904 0.0960375)
(0.00567353 0.00284745 0.0944928)
(0.00469224 0.00268129 0.0933886)
(0.00391968 0.00255623 0.0926238)
(0.00309714 0.00247829 0.0921248)
(0.00239002 0.00239114 0.0917824)
(0.00166442 0.00235448 0.0915604)
(0.00100698 0.00230911 0.0914242)
(0.000322128 0.00229733 0.0913606)
(0.0107136 0.00187135 0.102602)
(0.00453476 -0.000994326 0.13038)
(0.00893396 0.00274555 0.111498)
(0.00800248 0.0021001 0.101285)
(0.00795701 0.00234231 0.0975354)
(0.00646633 0.00201482 0.0955806)
(0.00570673 0.00196926 0.0940522)
(0.00465198 0.00184731 0.0930149)
(0.00388722 0.00177701 0.0923262)
(0.003054 0.00171945 0.091867)
(0.00235312 0.00166517 0.0915606)
(0.00163621 0.00163718 0.0913593)
(0.000986324 0.00160823 0.0912386)
(0.000317268 0.00159909 0.0911819)
(-0.00580388 -0.000462977 0.0188008)
(0.0101448 0.00213521 0.0925991)
(0.00277145 0.0011432 0.124821)
(0.00848829 0.00244981 0.108488)
(0.00713016 0.00174226 0.100343)
(0.00750721 0.00165435 0.0969693)
(0.00609561 0.00135162 0.0950984)
(0.00550578 0.00126343 0.0936844)
(0.00450092 0.00115269 0.0927489)
(0.00379303 0.00109193 0.0921257)
(0.00298581 0.00104451 0.0917039)
(0.002308 0.00100762 0.0914242)
(0.00160747 0.000987138 0.0912386)
(0.000968862 0.000969428 0.0911284)
(0.00031288 0.000962354 0.0910763)
(-0.00585894 -0.000783596 0.0293749)
(0.0113923 -8.31791e-05 0.0929505)
(0.00359551 -0.00036698 0.12466)
(0.00910407 0.000290671 0.108315)
(0.00718566 0.000248918 0.100219)
(0.00759554 0.000367762 0.0967791)
(0.00608355 0.000336448 0.0949042)
(0.00551165 0.000355782 0.093539)
(0.00448202 0.000342056 0.0926377)
(0.00378003 0.00033754 0.0920381)
(0.00297011 0.000329477 0.0916297)
(0.00229594 0.000322129 0.0913608)
(0.00159804 0.000317558 0.0911819)
(0.000961539 0.00031296 0.0910763)
(0.000310689 0.000311197 0.0910258)
(0.000174848 -0.00397229 0.0150805)
(-1.71738e-05 -0.00509565 0.0224916)
(0.00094697 -0.00201801 0.0147093)
(-0.0041438 -0.00417597 0.0230982)
(-0.00232713 -0.00165856 0.0757227)
(0.000988243 -0.00148395 0.0965199)
(0.00127697 -0.0022115 0.089217)
(-0.000317207 -0.00230993 0.0891765)
(0.00092731 -0.00315377 0.0149461)
(-0.00484004 -0.00526301 0.0293994)
(-0.00134239 -0.00104017 0.0732046)
(-0.00107416 -0.00215416 0.0930727)
(-0.00014456 0.00146317 0.11887)
(0.000620275 0.00274316 0.123136)
(0.00144927 0.00181759 0.11879)
(-0.00017765 0.00232807 0.119162)
(-0.0030729 -0.00506806 0.0188911)
(-0.00125921 -0.00115962 0.0756934)
(-0.000127466 -0.00201607 0.09206)
(0.00206701 0.00114451 0.11855)
(0.00315124 0.00411337 0.119053)
(0.00308305 0.00597337 0.115147)
(0.00274901 0.00777099 0.112592)
(0.00192963 0.00731215 0.110356)
(0.000202753 0.00765388 0.110329)
(-0.000546006 -0.00155797 0.0724664)
(0.000320721 -0.0016276 0.0926231)
(0.00191231 0.00166958 0.119132)
(0.00376442 0.00357316 0.11921)
(0.00381391 0.00575012 0.115641)
(0.00384964 0.00679888 0.112496)
(0.00293268 0.00708659 0.109634)
(0.00190821 0.00713967 0.109337)
(0.00134709 0.00650962 0.108746)
(0.000169466 0.00658407 0.108691)
(-0.00156208 -0.000546305 0.0724389)
(0.00207908 0.00208323 0.120258)
(0.00392609 0.00296912 0.118783)
(0.00452947 0.00539864 0.115514)
(0.00491802 0.00643602 0.11218)
(0.00424663 0.00699478 0.109248)
(0.00360208 0.00711614 0.108748)
(0.00283108 0.00662923 0.107982)
(0.00197122 0.00675033 0.107951)
(0.0013096 0.00643155 0.10744)
(0.000284362 0.006532 0.107252)
(-0.00507114 -0.00307082 0.0188865)
(-0.0016283 0.000331908 0.0925968)
(0.00295521 0.00393022 0.118773)
(0.00531335 0.00531238 0.113784)
(0.00516993 0.00613807 0.109831)
(0.00470125 0.00631722 0.108962)
(0.00394736 0.00609697 0.107975)
(0.00324494 0.00595155 0.107808)
(0.00253392 0.0055614 0.107227)
(0.00171666 0.00551665 0.106985)
(0.00112438 0.00527108 0.106575)
(0.000275769 0.00528474 0.106425)
(-0.00315434 0.000928123 0.0149471)
(-0.00116057 -0.00126041 0.0756859)
(0.00166631 0.00191213 0.119116)
(0.00538238 0.00453102 0.115502)
(0.00613451 0.00517189 0.109825)
(0.00534752 0.00534139 0.108328)
(0.00458395 0.00537684 0.108001)
(0.00383585 0.00516876 0.107234)
(0.00311373 0.00513738 0.106768)
(0.00245133 0.00488708 0.10617)
(0.0017028 0.00491521 0.105861)
(0.00108226 0.00477406 0.105558)
(0.000302981 0.00479081 0.105448)
(-0.00526366 -0.00484007 0.0293998)
(-0.00201422 -0.00012789 0.0920468)
(0.00357166 0.00376338 0.119197)
(0.0064293 0.00492077 0.112171)
(0.00631145 0.0047111 0.108956)
(0.00537355 0.00458548 0.107998)
(0.0044927 0.00449637 0.107316)
(0.0037403 0.00430938 0.106433)
(0.00299058 0.00425153 0.105887)
(0.0023226 0.00406517 0.1054)
(0.00160336 0.00403289 0.105137)
(0.000998424 0.00391664 0.104926)
(0.000293902 0.00390596 0.104843)
(-0.00201827 0.000947384 0.0147097)
(-0.0010401 -0.00134385 0.0732025)
(0.00114562 0.00206337 0.118543)
(0.00574883 0.0038102 0.115635)
(0.00699028 0.00424475 0.109243)
(0.00609377 0.00394855 0.10797)
(0.00516668 0.00383542 0.107231)
(0.00430714 0.00374206 0.106432)
(0.00359933 0.00360054 0.105673)
(0.0028695 0.00354634 0.105201)
(0.0022286 0.00341498 0.104822)
(0.00155073 0.00339231 0.104596)
(0.000953862 0.0033184 0.104429)
(0.000293362 0.00331197 0.104358)
(-0.00417608 -0.00414391 0.0230987)
(-0.00215285 -0.00107551 0.0930691)
(0.00411434 0.00314865 0.119047)
(0.00679776 0.00384777 0.112491)
(0.00711291 0.00360129 0.108744)
(0.00594881 0.00324629 0.107805)
(0.00513465 0.0031141 0.106766)
(0.00424906 0.00299212 0.105886)
(0.00354447 0.00287056 0.105201)
(0.00280221 0.0028037 0.104768)
(0.00216562 0.00270622 0.104439)
(0.00150485 0.00267459 0.104231)
(0.000917219 0.00262131 0.104089)
(0.000288104 0.00261148 0.104024)
(-0.00165902 -0.0023279 0.0757211)
(0.00146376 -0.000145998 0.118867)
(0.00597346 0.00308105 0.115142)
(0.00708621 0.0029308 0.10963)
(0.00662742 0.00283001 0.107979)
(0.0055599 0.00253396 0.107224)
(0.00488546 0.00245134 0.106168)
(0.00406357 0.00232346 0.105398)
(0.00341364 0.00222932 0.104821)
(0.00270513 0.00216677 0.104438)
(0.00209892 0.00209979 0.10415)
(0.00146525 0.00207529 0.10396)
(0.000890401 0.00204119 0.103835)
(0.000283943 0.00203412 0.103776)
(-0.00148356 0.000987904 0.0965176)
(0.00274366 0.000619884 0.123133)
(0.00777088 0.00274869 0.112589)
(0.00713921 0.00190762 0.109334)
(0.006749 0.00197089 0.107949)
(0.00551519 0.00171692 0.106983)
(0.00491346 0.00170291 0.105859)
(0.00403115 0.00160397 0.105136)
(0.00339069 0.00155118 0.104595)
(0.00267322 0.00150562 0.10423)
(0.00207413 0.00146578 0.10396)
(0.00144603 0.00144685 0.10378)
(0.000875864 0.00142509 0.103665)
(0.000281111 0.00141927 0.10361)
(-0.00397232 0.000174536 0.0150807)
(-0.002212 0.0012777 0.0892149)
(0.00181796 0.0014497 0.118787)
(0.00731187 0.00193018 0.110353)
(0.00650928 0.00134742 0.108744)
(0.00643066 0.00130999 0.107438)
(0.00527007 0.00112499 0.106573)
(0.00477284 0.00108277 0.105556)
(0.0039154 0.000999189 0.104925)
(0.00331721 0.000954453 0.104429)
(0.00262029 0.000918 0.104088)
(0.00204035 0.000890939 0.103835)
(0.00142456 0.000876607 0.103665)
(0.000862777 0.000863212 0.103556)
(0.000277829 0.000858667 0.103504)
(-0.00509555 -1.72681e-05 0.0224918)
(-0.00230944 -0.000316387 0.0891756)
(0.00232825 -0.000177092 0.119161)
(0.00765376 0.000203185 0.110328)
(0.00658356 0.000169743 0.10869)
(0.00653097 0.000284459 0.107251)
(0.0052834 0.000275955 0.106424)
(0.00478923 0.000302938 0.105447)
(0.0039043 0.000294017 0.104842)
(0.00331037 0.000293269 0.104358)
(0.00261005 0.00028823 0.104024)
(0.00203292 0.000283854 0.103776)
(0.00141836 0.000281354 0.103609)
(0.000857923 0.000277805 0.103504)
(0.000277398 0.000277871 0.103453)
(0.000581899 -0.00404527 0.0150294)
(0.000134356 -0.00515921 0.0220543)
(0.000788343 -0.00173042 0.0148639)
(-0.00393192 -0.00445588 0.0224735)
(-0.000921743 -0.000785792 0.0788855)
(0.00083527 -0.000748365 0.0989111)
(0.000484895 -0.000681069 0.0927684)
(-0.000208151 -0.000792259 0.0925218)
(0.0009799 -0.00293299 0.0150508)
(-0.00463135 -0.00515666 0.0278057)
(-0.000701248 -0.000494061 0.075944)
(0.000546183 -0.00053249 0.094605)
(0.000692652 0.00216059 0.119706)
(0.000692744 0.00276892 0.122758)
(0.000796251 0.00274382 0.118801)
(-0.000120064 0.00311673 0.118702)
(-0.00254381 -0.00525682 0.0184374)
(-0.000792371 -0.000676133 0.0782936)
(0.000985469 -0.00055715 0.0931809)
(0.00171857 0.0018778 0.118709)
(0.00211472 0.0032982 0.119459)
(0.00176947 0.00399116 0.118158)
(0.00151547 0.00472035 0.116149)
(0.000911992 0.00457553 0.11425)
(5.37814e-05 0.004796 0.114008)
(-0.000673706 -0.000772523 0.0749979)
(0.00107496 -0.000606481 0.0942091)
(0.00159598 0.00206944 0.119375)
(0.00245969 0.00296322 0.119254)
(0.00211145 0.00401773 0.118055)
(0.00222496 0.0041814 0.116048)
(0.0016104 0.00425844 0.114409)
(0.00101951 0.00419409 0.114017)
(0.000707108 0.00400228 0.113264)
(6.145e-05 0.00411566 0.113019)
(-0.000770579 -0.000684048 0.0749513)
(0.00200458 0.00201069 0.119762)
(0.0022241 0.00221021 0.119209)
(0.00261379 0.00358833 0.117943)
(0.00282549 0.00389375 0.115534)
(0.00243797 0.00424806 0.113777)
(0.00212022 0.00424613 0.113211)
(0.00169656 0.00405792 0.112442)
(0.00124131 0.00423898 0.112069)
(0.000833032 0.00418338 0.111377)
(0.000183974 0.00430712 0.111092)
(-0.0052654 -0.00253988 0.0184321)
(-0.00060556 0.00107626 0.0941806)
(0.00220553 0.00222574 0.119197)
(0.00304374 0.00304405 0.11642)
(0.00297006 0.00358397 0.114142)
(0.00276338 0.00371109 0.113329)
(0.00241968 0.00374613 0.112351)
(0.00213304 0.00379708 0.111805)
(0.00172618 0.00377168 0.110996)
(0.00121455 0.00385855 0.110548)
(0.000804796 0.00379576 0.110051)
(0.000199052 0.0038372 0.10987)
(-0.00293331 0.000980487 0.015051)
(-0.000676971 -0.000791741 0.0782831)
(0.0020662 0.00159603 0.119359)
(0.00358236 0.00261432 0.117935)
(0.00358248 0.00297071 0.114146)
(0.0031906 0.00318645 0.11286)
(0.00293318 0.00336126 0.112053)
(0.00261938 0.00347028 0.110988)
(0.00223026 0.00360538 0.110253)
(0.00180154 0.0035774 0.10952)
(0.00128212 0.00367085 0.109117)
(0.000820202 0.00362275 0.108766)
(0.000231777 0.0036539 0.108638)
(-0.00515746 -0.00463113 0.0278057)
(-0.000556541 0.000985216 0.093168)
(0.00296213 0.0024591 0.11924)
(0.00389124 0.00282813 0.115524)
(0.00370729 0.00276825 0.113326)
(0.00335863 0.0029334 0.11205)
(0.00306585 0.00306684 0.110925)
(0.00269853 0.00311037 0.109826)
(0.00224536 0.00316921 0.10915)
(0.00178271 0.00312522 0.108579)
(0.00125365 0.0031462 0.108262)
(0.000786804 0.00309445 0.108012)
(0.000232124 0.0030995 0.107913)
(-0.00173066 0.000788629 0.0148643)
(-0.000494293 -0.000701767 0.0759406)
(0.00187783 0.00171738 0.118702)
(0.00401637 0.00210939 0.118047)
(0.0042453 0.00243756 0.113771)
(0.00374448 0.00242026 0.112347)
(0.00346934 0.0026202 0.110986)
(0.00310957 0.0026998 0.109826)
(0.00272058 0.00272128 0.108897)
(0.0022338 0.00274972 0.108328)
(0.00176865 0.00270979 0.107871)
(0.0012476 0.00272442 0.107597)
(0.00077317 0.00269017 0.107393)
(0.000238071 0.00269499 0.107307)
(-0.00445611 -0.00393196 0.022474)
(-0.0005317 0.000545577 0.0946007)
(0.00329788 0.00211355 0.119453)
(0.00418025 0.0022239 0.116041)
(0.00424456 0.00212034 0.113205)
(0.00379563 0.0021344 0.111801)
(0.00360379 0.00223091 0.110251)
(0.00316781 0.0022465 0.109149)
(0.00274838 0.00223445 0.108328)
(0.00222977 0.00223086 0.107813)
(0.00175457 0.00219417 0.10741)
(0.00123319 0.00219036 0.107158)
(0.000757328 0.00216307 0.106982)
(0.000237582 0.00216134 0.106904)
(-0.000786371 -0.000922125 0.0788833)
(0.00216101 0.000692031 0.119702)
(0.00399061 0.00176872 0.118154)
(0.00425812 0.00161008 0.114404)
(0.00405717 0.00169661 0.112438)
(0.00377082 0.00172672 0.110993)
(0.00357654 0.00180191 0.109518)
(0.00312438 0.00178352 0.108577)
(0.00270898 0.0017692 0.10787)
(0.0021935 0.00175552 0.107409)
(0.00172784 0.00172845 0.107051)
(0.00121636 0.00172303 0.106819)
(0.000744086 0.00170465 0.106662)
(0.000236728 0.00170291 0.10659)
(-0.000747912 0.000835221 0.0989082)
(0.00276936 0.000692522 0.122755)
(0.00472008 0.00151536 0.116145)
(0.00419385 0.00101959 0.114013)
(0.00423834 0.00124114 0.112067)
(0.0038576 0.00121496 0.110545)
(0.00366967 0.00128232 0.109115)
(0.003145 0.00125421 0.108261)
(0.0027232 0.0012479 0.107596)
(0.0021893 0.00123381 0.107158)
(0.00172207 0.00121669 0.106819)
(0.0012093 0.00120997 0.106598)
(0.000737127 0.0011976 0.106452)
(0.000235986 0.00119549 0.106384)
(-0.00404532 0.000581473 0.0150296)
(-0.000681647 0.000486164 0.0927655)
(0.00274404 0.000797558 0.118797)
(0.00457534 0.000913352 0.114246)
(0.00400215 0.000708417 0.11326)
(0.00418295 0.000833983 0.111374)
(0.00379521 0.000805848 0.110048)
(0.00362204 0.000820983 0.108764)
(0.00309372 0.000787706 0.10801)
(0.00268941 0.000773782 0.107392)
(0.00216242 0.000758107 0.106982)
(0.00170409 0.000744556 0.106662)
(0.00119726 0.000737828 0.106451)
(0.000729573 0.000729907 0.106312)
(0.000234319 0.000727802 0.106247)
(-0.00515914 0.000134271 0.0220545)
(-0.000791507 -0.000207056 0.0925206)
(0.00311705 -0.000119137 0.118701)
(0.0047958 5.44568e-05 0.114007)
(0.00411515 6.20019e-05 0.113017)
(0.00430621 0.000184168 0.111091)
(0.00383604 0.000199317 0.109868)
(0.00365256 0.000231754 0.108636)
(0.00309813 0.000232245 0.107912)
(0.00269364 0.000237934 0.107306)
(0.00216013 0.000237685 0.106904)
(0.00170187 0.000236572 0.10659)
(0.00119468 0.000236209 0.106384)
(0.000727099 0.000234219 0.106247)
(0.000234753 0.000235207 0.106183)
(0.000616441 -0.00398274 0.0149975)
(0.000173251 -0.00502827 0.0218951)
(0.000665287 -0.00171853 0.0147167)
(-0.00378979 -0.0043559 0.0222073)
(-0.000487054 -0.000659802 0.0772729)
(0.000535929 -0.000378139 0.096599)
(0.000245383 -0.000319117 0.0910684)
(-6.38482e-05 -0.000401294 0.0905541)
(0.000944564 -0.00292016 0.0149263)
(-0.00446383 -0.00502717 0.027263)
(-0.000515002 -0.00041401 0.0743583)
(0.000374825 -0.000327246 0.0918843)