/*--------------------------------*- C++ -*----------------------------------*\
| =========                 |                                                 |
| \\      /  F ield         | OpenFOAM: The Open Source CFD Toolbox           |
|  \\    /   O peration     | Version:  2.1.1                                 |
|   \\  /    A nd           | Web:      www.OpenFOAM.org                      |
|    \\/     M anipulation  |                                                 |
\*---------------------------------------------------------------------------*/
FoamFile
{
    version     2.0;
    format      ascii;
    class       volScalarField;
    location    "0.0025";
    object      Th;
}
// * * * * * * * * * * * * * * * * * * * * * * * * * * * * * * * * * * * * * //

dimensions      [0 0 0 0 0 0 0];

internalField   nonuniform List<scalar> 
10260
(
3.08138e-13
3.45787e-13
1.01485e-14
1.04713e-14
1e-14
1.09549e-14
1.90417e-14
2.12739e-13
1.00002e-14
1.00009e-14
1e-14
1.00066e-14
1.0012e-14
1.07365e-14
1.06308e-14
1e-14
1.00001e-14
1e-14
1e-14
1e-14
1e-14
1.0001e-14
1.00111e-14
1.11986e-14
1.35773e-14
6.7672e-13
1.00001e-14
1.00001e-14
1e-14
1e-14
1e-14
1e-14
1e-14
1.00009e-14
1.00297e-14
1e-14
4.6326e-13
1.00001e-14
1e-14
1e-14
1e-14
1e-14
1e-14
1e-14
1e-14
1e-14
1.00319e-14
1.00023e-14
4.34958e-13
1.00002e-14
1e-14
1e-14
1e-14
1e-14
1e-14
1e-14
1e-14
1.00001e-14
1.00001e-14
1.00298e-14
1.14228e-14
1.00002e-14
1e-14
1e-14
1e-14
1e-14
1e-14
1e-14
1e-14
1e-14
1e-14
1.00009e-14
1.1199e-14
1.09393e-14
1.00002e-14
1e-14
1e-14
1e-14
1.00001e-14
1.00001e-14
1e-14
1e-14
1e-14
1e-14
1e-14
1.00112e-14
1e-14
1.5649e-13
1.00001e-14
1e-14
1e-14
1e-14
1.00001e-14
1.00001e-14
1e-14
1.00001e-14
1e-14
1e-14
1e-14
1.00011e-14
1.0744e-14
1.33956e-14
1e-14
1e-14
1e-14
1.00001e-14
1.00001e-14
1e-14
1e-14
1.00001e-14
1e-14
1e-14
1e-14
1e-14
1.00123e-14
1.01026e-14
8.56326e-13
1e-14
1e-14
1.00001e-14
1.00001e-14
1e-14
1e-14
1e-14
1.00001e-14
1.00001e-14
1e-14
1e-14
1.00001e-14
1.00069e-14
1e-14
1e-14
1.00001e-14
1e-14
1e-14
1e-14
1.00001e-14
1.00001e-14
1e-14
1.00001e-14
1.00001e-14
1e-14
1e-14
1e-14
1e-14
1e-14
1e-14
1.00003e-14
1e-14
1e-14
1e-14
1.00001e-14
1e-14
1e-14
1e-14
1e-14
1e-14
1e-14
1e-14
1.00009e-14
1.04772e-14
1.07058e-14
1.00001e-14
1e-14
1.00002e-14
1.00002e-14
1e-14
1.00001e-14
1.00001e-14
1e-14
1e-14
1e-14
1e-14
1e-14
1.00005e-14
1.01565e-14
1.30985e-14
3.10152e-13
3.4895e-13
1.01343e-14
1.04314e-14
1e-14
1.09066e-14
1.92324e-14
2.14366e-13
1.00001e-14
1.00004e-14
1e-14
1.00058e-14
1.00103e-14
1.06901e-14
1.05825e-14
1e-14
1.00001e-14
1e-14
1e-14
1e-14
1e-14
1.00005e-14
1.00099e-14
1.11227e-14
1.35382e-14
6.77693e-13
1.00002e-14
1e-14
1e-14
1e-14
1e-14
1e-14
1e-14
1.00005e-14
1.00257e-14
1e-14
4.73287e-13
1.00002e-14
1e-14
1e-14
1e-14
1e-14
1e-14
1e-14
1e-14
1e-14
1.00282e-14
1e-14
4.44746e-13
1.00002e-14
1e-14
1e-14
1e-14
1e-14
1e-14
1e-14
1e-14
1e-14
1e-14
1.00258e-14
1.13691e-14
1.00002e-14
1e-14
1e-14
1e-14
1e-14
1e-14
1e-14
1e-14
1e-14
1e-14
1.00005e-14
1.11232e-14
1.12534e-14
1.00002e-14
1e-14
1e-14
1e-14
1e-14
1e-14
1e-14
1e-14
1e-14
1e-14
1e-14
1.00099e-14
1e-14
1.60423e-13
1e-14
1e-14
1e-14
1e-14
1e-14
1.00001e-14
1e-14
1e-14
1e-14
1e-14
1e-14
1.00005e-14
1.0691e-14
1.36894e-14
1e-14
1e-14
1e-14
1e-14
1e-14
1e-14
1e-14
1.00001e-14
1e-14
1e-14
1e-14
1e-14
1.00104e-14
1.01049e-14
8.5348e-13
1e-14
1e-14
1e-14
1e-14
1e-14
1e-14
1e-14
1.00001e-14
1e-14
1e-14
1e-14
1e-14
1.00059e-14
1e-14
1e-14
1e-14
1e-14
1e-14
1e-14
1e-14
1e-14
1e-14
1.00001e-14
1e-14
1e-14
1e-14
1e-14
1e-14
1e-14
1e-14
1.00002e-14
1e-14
1e-14
1e-14
1e-14
1e-14
1e-14
1e-14
1e-14
1e-14
1e-14
1e-14
1.00004e-14
1.04323e-14
1.07975e-14
1.00002e-14
1e-14
1.00001e-14
1.00001e-14
1e-14
1e-14
1.00001e-14
1e-14
1e-14
1e-14
1e-14
1e-14
1.00002e-14
1.01355e-14
1.30941e-14
3.10386e-13
3.49234e-13
1.01311e-14
1.04223e-14
1e-14
1.09132e-14
1.93659e-14
2.14465e-13
1e-14
1e-14
1e-14
1.00056e-14
1.00103e-14
1.06802e-14
1.05893e-14
1e-14
1.00001e-14
1e-14
1e-14
1e-14
1e-14
1.00001e-14
1.00095e-14
1.11092e-14
1.3563e-14
6.77479e-13
1.00001e-14
1e-14
1e-14
1e-14
1e-14
1e-14
1e-14
1.00002e-14
1.00251e-14
1e-14
4.73394e-13
1.00001e-14
1e-14
1e-14
1e-14
1e-14
1e-14
1e-14
1e-14
1e-14
1.00276e-14
1e-14
4.44696e-13
1e-14
1e-14
1e-14
1e-14
1e-14
1e-14
1e-14
1e-14
1e-14
1e-14
1.00251e-14
1.13672e-14
1.00001e-14
1e-14
1e-14
1e-14
1e-14
1e-14
1e-14
1e-14
1e-14
1e-14
1.00002e-14
1.11097e-14
1.13138e-14
1.00001e-14
1e-14
1e-14
1e-14
1e-14
1e-14
1e-14
1e-14
1e-14
1e-14
1e-14
1.00096e-14
1e-14
1.60265e-13
1.00001e-14
1e-14
1e-14
1e-14
1e-14
1e-14
1e-14
1e-14
1e-14
1e-14
1e-14
1.00002e-14
1.06808e-14
1.37447e-14
1e-14
1e-14
1e-14
1e-14
1e-14
1e-14
1e-14
1.00001e-14
1e-14
1e-14
1e-14
1e-14
1.00102e-14
1.01067e-14
8.52302e-13
1e-14
1e-14
1e-14
1e-14
1e-14
1e-14
1e-14
1e-14
1e-14
1e-14
1e-14
1.00001e-14
1.00057e-14
1e-14
1e-14
1e-14
1e-14
1e-14
1e-14
1e-14
1e-14
1e-14
1e-14
1e-14
1e-14
1e-14
1e-14
1e-14
1e-14
1e-14
1.00001e-14
1e-14
1e-14
1e-14
1e-14
1e-14
1e-14
1e-14
1e-14
1e-14
1e-14
1e-14
1e-14
1.04227e-14
1.08095e-14
1.00002e-14
1e-14
1.00001e-14
1.00001e-14
1e-14
1e-14
1e-14
1.00001e-14
1.00001e-14
1.00001e-14
1.00001e-14
1e-14
1e-14
1.01313e-14
1.31255e-14
3.1036e-13
3.49174e-13
1.01302e-14
1.04227e-14
1e-14
1.09137e-14
1.94051e-14
2.14522e-13
1e-14
1e-14
1e-14
1.00055e-14
1.00103e-14
1.06795e-14
1.05944e-14
1e-14
1e-14
1e-14
1e-14
1e-14
1e-14
1e-14
1.00093e-14
1.11077e-14
1.35694e-14
6.77488e-13
1.00001e-14
1e-14
1e-14
1e-14
1e-14
1e-14
1e-14
1e-14
1.00249e-14
1e-14
4.73235e-13
1e-14
1e-14
1e-14
1e-14
1e-14
1e-14
1e-14
1e-14
1e-14
1.00276e-14
1e-14
4.44521e-13
1e-14
1e-14
1e-14
1e-14
1e-14
1e-14
1e-14
1e-14
1e-14
1e-14
1.00249e-14
1.13649e-14
1.00001e-14
1.00001e-14
1e-14
1e-14
1e-14
1e-14
1e-14
1e-14
1e-14
1e-14
1e-14
1.1108e-14
1.12862e-14
1.00002e-14
1e-14
1e-14
1e-14
1e-14
1e-14
1e-14
1e-14
1e-14
1e-14
1e-14
1.00094e-14
1e-14
1.60003e-13
1.00001e-14
1e-14
1e-14
1e-14
1e-14
1e-14
1e-14
1e-14
1e-14
1e-14
1e-14
1e-14
1.06798e-14
1.36945e-14
1e-14
1e-14
1e-14
1e-14
1e-14
1e-14
1e-14
1e-14
1e-14
1e-14
1e-14
1e-14
1.00103e-14
1.01064e-14
8.51948e-13
1e-14
1e-14
1e-14
1e-14
1e-14
1e-14
1e-14
1e-14
1e-14
1e-14
1.00001e-14
1e-14
1.00056e-14
1e-14
1e-14
1.00001e-14
1e-14
1e-14
1e-14
1e-14
1e-14
1e-14
1e-14
1e-14
1e-14
1e-14
1e-14
1e-14
1e-14
1e-14
1.00001e-14
1e-14
1e-14
1e-14
1e-14
1e-14
1e-14
1e-14
1e-14
1.00001e-14
1e-14
1e-14
1e-14
1.04228e-14
1.07888e-14
1.00001e-14
1e-14
1e-14
1e-14
1e-14
1e-14
1e-14
1.00001e-14
1.00001e-14
1.00001e-14
1e-14
1e-14
1e-14
1.01302e-14
1.31309e-14
3.09996e-13
3.48687e-13
1.01405e-14
1.04399e-14
1e-14
1.09188e-14
1.9492e-14
2.14559e-13
1e-14
1e-14
1e-14
1.00055e-14
1.00111e-14
1.0685e-14
1.06016e-14
1e-14
1e-14
1e-14
1e-14
1e-14
1e-14
1e-14
1.0009e-14
1.10831e-14
1.35617e-14
6.77426e-13
1e-14
1e-14
1e-14
1e-14
1e-14
1e-14
1e-14
1e-14
1.00246e-14
1e-14
4.73118e-13
1e-14
1e-14
1e-14
1e-14
1e-14
1e-14
1e-14
1e-14
1e-14
1.00276e-14
1e-14
4.44372e-13
1.00001e-14
1e-14
1e-14
1e-14
1e-14
1e-14
1e-14
1e-14
1e-14
1e-14
1.00247e-14
1.13611e-14
1.00001e-14
1e-14
1e-14
1e-14
1e-14
1e-14
1e-14
1e-14
1e-14
1e-14
1e-14
1.10833e-14
1.1221e-14
1.00001e-14
1e-14
1e-14
1e-14
1e-14
1e-14
1e-14
1e-14
1e-14
1e-14
1e-14
1.00091e-14
1e-14
1.59407e-13
1.00001e-14
1e-14
1e-14
1e-14
1e-14
1e-14
1e-14
1e-14
1e-14
1e-14
1e-14
1e-14
1.06852e-14
1.35902e-14
1e-14
1e-14
1e-14
1e-14
1e-14
1.00001e-14
1e-14
1e-14
1e-14
1e-14
1.00001e-14
1e-14
1.00112e-14
1.01052e-14
8.51372e-13
1e-14
1e-14
1e-14
1e-14
1e-14
1e-14
1e-14
1e-14
1e-14
1.00001e-14
1.00001e-14
1e-14
1.00055e-14
1e-14
1e-14
1.00001e-14
1e-14
1e-14
1e-14
1e-14
1e-14
1e-14
1e-14
1.00001e-14
1.00001e-14
1e-14
1e-14
1e-14
1e-14
1e-14
1e-14
1e-14
1e-14
1e-14
1e-14
1e-14
1e-14
1.00001e-14
1.00001e-14
1e-14
1e-14
1e-14
1e-14
1.04399e-14
1.07649e-14
1.00002e-14
1e-14
1e-14
1e-14
1e-14
1e-14
1.00001e-14
1.00001e-14
1e-14
1e-14
1e-14
1e-14
1e-14
1.01405e-14
1.31336e-14
3.08698e-13
3.46959e-13
1.01051e-14
1.04265e-14
1e-14
1.09452e-14
1.98039e-14
2.14441e-13
1e-14
1e-14
1e-14
1.00052e-14
1.00088e-14
1.06714e-14
1.06091e-14
1e-14
1e-14
1e-14
1e-14
1e-14
1e-14
1e-14
1.00077e-14
1.11874e-14
1.35017e-14
6.76928e-13
1e-14
1e-14
1e-14
1e-14
1e-14
1e-14
1e-14
1e-14
1.00293e-14
1e-14
4.72577e-13
1e-14
1e-14
1e-14
1e-14
1e-14
1e-14
1e-14
1e-14
1e-14
1.00298e-14
1e-14
4.43722e-13
1.00001e-14
1e-14
1e-14
1e-14
1e-14
1e-14
1e-14
1e-14
1e-14
1e-14
1.00293e-14
1.13458e-14
1.00001e-14
1e-14
1e-14
1e-14
1e-14
1e-14
1e-14
1e-14
1e-14
1e-14
1e-14
1.11877e-14
1.10477e-14
1e-14
1e-14
1e-14
1e-14
1e-14
1e-14
1e-14
1e-14
1e-14
1e-14
1e-14
1.00077e-14
1e-14
1.57589e-13
1e-14
1e-14
1e-14
1e-14
1e-14
1e-14
1e-14
1e-14
1e-14
1.00001e-14
1.00001e-14
1e-14
1.06715e-14
1.33927e-14
1e-14
1e-14
1e-14
1e-14
1.00001e-14
1e-14
1e-14
1e-14
1e-14
1.00001e-14
1.00001e-14
1e-14
1.00087e-14
1.01016e-14
8.49501e-13
1e-14
1e-14
1e-14
1e-14
1e-14
1e-14
1e-14
1e-14
1.00001e-14
1e-14
1e-14
1e-14
1.00053e-14
1e-14
1e-14
1e-14
1e-14
1e-14
1e-14
1e-14
1e-14
1e-14
1.00001e-14
1e-14
1e-14
1e-14
1e-14
1e-14
1e-14
1e-14
1e-14
1e-14
1e-14
1e-14
1e-14
1e-14
1.00001e-14
1e-14
1e-14
1e-14
1e-14
1e-14
1e-14
1.04266e-14
1.07196e-14
1.00002e-14
1e-14
1e-14
1e-14
1.00001e-14
1.00001e-14
1.00001e-14
1e-14
1e-14
1e-14
1e-14
1e-14
1e-14
1.01049e-14
1.30804e-14
3.00655e-13
3.38665e-13
1.03244e-14
1.07542e-14
1e-14
1.06904e-14
1.95939e-14
2.12695e-13
1e-14
1e-14
1e-14
1.00065e-14
1.00258e-14
1.08656e-14
1.06982e-14
1e-14
1e-14
1e-14
1e-14
1e-14
1e-14
1e-14
1.0008e-14
1.10149e-14
1.39131e-14
6.7481e-13
1e-14
1e-14
1e-14
1e-14
1e-14
1e-14
1e-14
1e-14
1.00018e-14
1e-14
4.71777e-13
1e-14
1e-14
1e-14
1e-14
1e-14
1e-14
1e-14
1e-14
1e-14
1.00145e-14
1.00196e-14
4.41316e-13
1e-14
1e-14
1e-14
1e-14
1e-14
1e-14
1e-14
1e-14
1e-14
1e-14
1.00019e-14
1.14941e-14
1e-14
1e-14
1e-14
1e-14
1e-14
1e-14
1e-14
1e-14
1e-14
1e-14
1e-14
1.1015e-14
1.38929e-14
1e-14
1e-14
1e-14
1e-14
1e-14
1e-14
1e-14
1e-14
1e-14
1e-14
1e-14
1.0008e-14
1e-14
1.46707e-13
1e-14
1e-14
1e-14
1e-14
1e-14
1e-14
1e-14
1e-14
1e-14
1.00001e-14
1e-14
1e-14
1.08659e-14
1.30334e-14
1e-14
1e-14
1e-14
1e-14
1e-14
1e-14
1e-14
1e-14
1e-14
1e-14
1e-14
1e-14
1.00259e-14
1.00745e-14
8.50451e-13
1e-14
1e-14
1e-14
1e-14
1e-14
1e-14
1e-14
1e-14
1e-14
1e-14
1e-14
1e-14
1.00065e-14
1e-14
1e-14
1e-14
1e-14
1e-14
1e-14
1e-14
1e-14
1.00001e-14
1e-14
1e-14
1e-14
1e-14
1e-14
1e-14
1e-14
1e-14
1e-14
1e-14
1e-14
1e-14
1e-14
1.00001e-14
1.00001e-14
1e-14
1e-14
1e-14
1.00001e-14
1e-14
1e-14
1.07532e-14
1.05478e-14
1e-14
1e-14
1e-14
1e-14
1.00001e-14
1e-14
1e-14
1e-14
1e-14
1.00001e-14
1.00001e-14
1e-14
1e-14
1.03245e-14
1.16999e-14
3.42465e-14
2.92757e-14
1.00774e-14
1.01254e-14
1e-14
1.03991e-14
1.32268e-14
3.12257e-14
1e-14
1e-14
1e-14
1.0001e-14
1.00052e-14
1.00996e-14
1.02471e-14
2.09312e-14
1e-14
1e-14
1e-14
1e-14
1e-14
1e-14
1.00011e-14
1.01031e-14
1.12284e-14
1e-14
1e-14
1e-14
1e-14
1e-14
1e-14
1e-14
1e-14
1e-14
1.00003e-14
1e-14
1e-14
1e-14
1e-14
1e-14
1e-14
1e-14
1e-14
1e-14
1.00001e-14
1e-14
1.00012e-14
1e-14
1e-14
1.00001e-14
1e-14
1e-14
1e-14
1e-14
1e-14
1e-14
1e-14
1e-14
1e-14
1.00003e-14
1e-14
1e-14
1e-14
1e-14
1e-14
1e-14
1e-14
1e-14
1e-14
1e-14
1e-14
1e-14
1.01031e-14
1.27799e-14
1e-14
1e-14
1e-14
1e-14
1e-14
1e-14
1e-14
1e-14
1e-14
1e-14
1e-14
1.00011e-14
1.00109e-14
1e-14
1e-14
1e-14
1e-14
1e-14
1e-14
1e-14
1e-14
1e-14
1.00001e-14
1e-14
1e-14
1e-14
1.00997e-14
1.31775e-14
1e-14
1e-14
1e-14
1e-14
1e-14
1e-14
1e-14
1.00001e-14
1e-14
1e-14
1e-14
1e-14
1.00052e-14
1e-14
1e-14
1e-14
1e-14
1e-14
1e-14
1e-14
1e-14
1.00001e-14
1e-14
1e-14
1e-14
1e-14
1e-14
1.0001e-14
1.00107e-14
3.76329e-14
1e-14
1e-14
1e-14
1e-14
1e-14
1e-14
1e-14
1e-14
1e-14
1e-14
1e-14
1.00001e-14
1.00001e-14
1e-14
1.19404e-14
1e-14
1e-14
1e-14
1e-14
1e-14
1.00001e-14
1e-14
1e-14
1e-14
1e-14
1.00001e-14
1e-14
1e-14
1.01252e-14
1.22779e-14
1e-14
1e-14
1.00001e-14
1.00001e-14
1.00001e-14
1e-14
1e-14
1e-14
1e-14
1.00001e-14
1.00001e-14
1e-14
1e-14
1.00775e-14
1e-14
1.02516e-14
1.01115e-14
1.00043e-14
1.00142e-14
1.00218e-14
1e-14
1.00002e-14
1.00303e-14
1.01302e-14
1e-14
1e-14
1e-14
1.00002e-14
1.00009e-14
1.00144e-14
1.00042e-14
1.0033e-14
1e-14
1e-14
1e-14
1e-14
1e-14
1e-14
1.00002e-14
1.00128e-14
1.00222e-14
1.00006e-14
1e-14
1e-14
1e-14
1e-14
1e-14
1e-14
1e-14
1e-14
1e-14
1e-14
1.00001e-14
1e-14
1e-14
1e-14
1e-14
1e-14
1e-14
1e-14
1e-14
1e-14
1.00001e-14
1e-14
1.00003e-14
1e-14
1e-14
1e-14
1e-14
1e-14
1e-14
1e-14
1e-14
1e-14
1e-14
1.00001e-14
1e-14
1e-14
1e-14
1e-14
1e-14
1e-14
1e-14
1e-14
1e-14
1e-14
1e-14
1e-14
1.00128e-14
1.00302e-14
1e-14
1e-14
1e-14
1e-14
1e-14
1e-14
1e-14
1e-14
1e-14
1e-14
1e-14
1.00002e-14
1e-14
1.00001e-14
1e-14
1e-14
1e-14
1e-14
1e-14
1e-14
1e-14
1e-14
1e-14
1e-14
1e-14
1e-14
1.00144e-14
1.00435e-14
1e-14
1e-14
1e-14
1e-14
1e-14
1e-14
1e-14
1e-14
1e-14
1e-14
1e-14
1e-14
1.0001e-14
1e-14
1e-14
1e-14
1e-14
1e-14
1e-14
1e-14
1e-14
1e-14
1e-14
1e-14
1e-14
1.00001e-14
1.00002e-14
1.00003e-14
1.01606e-14
1e-14
1e-14
1e-14
1e-14
1e-14
1e-14
1e-14
1e-14
1e-14
1e-14
1.00001e-14
1.00001e-14
1.00001e-14
1e-14
1.00142e-14
1e-14
1e-14
1e-14
1e-14
1e-14
1e-14
1e-14
1e-14
1e-14
1e-14
1e-14
1e-14
1e-14
1.00218e-14
1.00428e-14
1.00001e-14
1e-14
1e-14
1e-14
1.00001e-14
1e-14
1e-14
1e-14
1e-14
1.00001e-14
1e-14
1e-14
1e-14
1.00143e-14
1e-14
1.00022e-14
1.00006e-14
1e-14
1.00022e-14
1.00034e-14
1e-14
1e-14
1.00002e-14
1.00006e-14
1e-14
1e-14
1e-14
1e-14
1.00001e-14
1.00018e-14
1.00001e-14
1.00001e-14
1e-14
1e-14
1e-14
1e-14
1e-14
1e-14
1e-14
1.00015e-14
1.00002e-14
1e-14
1e-14
1e-14
1e-14
1e-14
1e-14
1e-14
1e-14
1e-14
1e-14
1e-14
1e-14
1e-14
1e-14
1e-14
1e-14
1e-14
1e-14
1e-14
1e-14
1e-14
1e-14
1.00001e-14
1e-14
1e-14
1e-14
1e-14
1e-14
1e-14
1e-14
1e-14
1e-14
1e-14
1e-14
1e-14
1.00001e-14
1e-14
1e-14
1e-14
1e-14
1e-14
1e-14
1e-14
1e-14
1e-14
1e-14
1e-14
1.00015e-14
1.00002e-14
1e-14
1e-14
1e-14
1e-14
1e-14
1e-14
1e-14
1e-14
1e-14
1e-14
1e-14
1.00001e-14
1e-14
1e-14
1e-14
1e-14
1e-14
1e-14
1e-14
1e-14
1e-14
1e-14
1e-14
1e-14
1e-14
1e-14
1.00018e-14
1.00004e-14
1e-14
1e-14
1e-14
1e-14
1e-14
1e-14
1e-14
1e-14
1e-14
1e-14
1e-14
1e-14
1.00001e-14
1e-14
1e-14
1e-14
1e-14
1e-14
1e-14
1e-14
1e-14
1e-14
1e-14
1e-14
1e-14
1e-14
1e-14
1e-14
1.0001e-14
1e-14
1e-14
1e-14
1e-14
1e-14
1e-14
1e-14
1e-14
1e-14
1e-14
1e-14
1e-14
1e-14
1e-14
1.00001e-14
1e-14
1e-14
1e-14
1e-14
1e-14
1e-14
1e-14
1e-14
1e-14
1e-14
1e-14
1e-14
1e-14
1.00034e-14
1.00005e-14
1.00002e-14
1e-14
1e-14
1e-14
1e-14
1e-14
1e-14
1e-14
1e-14
1e-14
1e-14
1e-14
1e-14
1.00023e-14
1.00001e-14
1.00004e-14
1.00001e-14
1e-14
1.00003e-14
1.00005e-14
1e-14
1e-14
1e-14
1e-14
1e-14
1e-14
1e-14
1e-14
1e-14
1.00002e-14
1e-14
1e-14
1e-14
1e-14
1e-14
1e-14
1e-14
1e-14
1e-14
1.00002e-14
1e-14
1e-14
1e-14
1e-14
1e-14
1e-14
1e-14
1e-14
1e-14
1e-14
1e-14
1e-14
1e-14
1e-14
1e-14
1e-14
1e-14
1e-14
1e-14
1e-14
1e-14
1e-14
1e-14
1.00001e-14
1e-14
1e-14
1e-14
1e-14
1e-14
1e-14
1e-14
1e-14
1e-14
1e-14
1e-14
1e-14
1.00001e-14
1e-14
1e-14
1e-14
1e-14
1e-14
1e-14
1e-14
1e-14
1e-14
1e-14
1e-14
1.00002e-14
1e-14
1e-14
1e-14
1e-14
1e-14
1e-14
1e-14
1e-14
1e-14
1e-14
1e-14
1e-14
1e-14
1e-14
1e-14
1e-14
1e-14
1e-14
1e-14
1e-14
1e-14
1e-14
1e-14
1e-14
1e-14
1e-14
1e-14
1.00002e-14
1e-14
1e-14
1e-14
1e-14
1e-14
1e-14
1e-14
1e-14
1e-14
1e-14
1e-14
1e-14
1e-14
1e-14
1e-14
1e-14
1e-14
1e-14
1e-14
1e-14
1e-14
1e-14
1e-14
1e-14
1e-14
1e-14
1e-14
1e-14
1e-14
1e-14
1e-14
1e-14
1e-14
1e-14
1e-14
1e-14
1e-14
1e-14
1e-14
1e-14
1e-14
1e-14
1e-14
1e-14
1e-14
1.00001e-14
1e-14
1e-14
1e-14
1e-14
1e-14
1e-14
1e-14
1e-14
1e-14
1e-14
1e-14
1e-14
1.00005e-14
1e-14
1.00001e-14
1e-14
1.00001e-14
1.00001e-14
1e-14
1e-14
1e-14
1e-14
1e-14
1e-14
1e-14
1e-14
1e-14
1.00004e-14
1e-14
1e-14
1e-14
1e-14
1.00001e-14
1.00001e-14
1e-14
1e-14
1e-14
1e-14
1e-14
1e-14
1e-14
1e-14
1e-14
1e-14
1.00001e-14
1.00001e-14
1e-14
1e-14
1e-14
1e-14
1e-14
1e-14
1e-14
1e-14
1e-14
1e-14
1e-14
1e-14
1e-14
1e-14
1e-14
1e-14
1.00001e-14
1e-14
1e-14
1e-14
1e-14
1e-14
1e-14
1e-14
1e-14
1e-14
1e-14
1.00001e-14
1e-14
1e-14
1e-14
1e-14
1e-14
1e-14
1e-14
1e-14
1e-14
1e-14
1e-14
1e-14
1e-14
1e-14
1e-14
1e-14
1e-14
1e-14
1e-14
1e-14
1e-14
1e-14
1e-14
1e-14
1e-14
1e-14
1e-14
1e-14
1.00001e-14
1e-14
1e-14
1e-14
1e-14
1e-14
1e-14
1e-14
1e-14
1e-14
1e-14
1e-14
1e-14
1e-14
1e-14
1e-14
1e-14
1e-14
1e-14
1e-14
1e-14
1e-14
1e-14
1e-14
1e-14
1e-14
1e-14
1e-14
1e-14
1e-14
1e-14
1e-14
1e-14
1e-14
1e-14
1e-14
1e-14
1e-14
1e-14
1e-14
1e-14
1e-14
1e-14
1e-14
1e-14
1.00001e-14
1e-14
1e-14
1e-14
1e-14
1e-14
1e-14
1e-14
1e-14
1e-14
1e-14
1e-14
1e-14
1e-14
1.00001e-14
1.00001e-14
1e-14
1e-14
1e-14
1e-14
1e-14
1e-14
1e-14
1e-14
1e-14
1e-14
1e-14
1e-14
1.00001e-14
1.00001e-14
1e-14
1e-14
1e-14
1e-14
1e-14
1e-14
1e-14
1e-14
1e-14
1e-14
1e-14
1e-14
1.00001e-14
1e-14
1.00002e-14
1.00001e-14
1.00001e-14
1e-14
1e-14
1e-14
1e-14
1e-14
1e-14
1e-14
1e-14
1e-14
1e-14
1e-14
1e-14
1e-14
1e-14
1e-14
1e-14
1e-14
1e-14
1e-14
1e-14
1e-14
1e-14
1e-14
1e-14
1e-14
1e-14
1e-14
1e-14
1e-14
1e-14
1e-14
1e-14
1e-14
1e-14
1e-14
1e-14
1e-14
1e-14
1e-14
1e-14
1e-14
1e-14
1e-14
1e-14
1.00001e-14
1e-14
1e-14
1e-14
1e-14
1e-14
1.00001e-14
1e-14
1e-14
1e-14
1.00001e-14
1.00001e-14
1e-14
1e-14
1e-14
1e-14
1.00001e-14
1e-14
1.00001e-14
1e-14
1e-14
1e-14
1e-14
1e-14
1e-14
1e-14
1e-14
1e-14
1e-14
1e-14
1.00001e-14
1e-14
1e-14
1e-14
1e-14
1e-14
1e-14
1e-14
1e-14
1e-14
1e-14
1e-14
1.00001e-14
1e-14
1e-14
1e-14
1e-14
1e-14
1e-14
1e-14
1e-14
1e-14
1e-14
1e-14
1e-14
1.00001e-14
1.00001e-14
1.00001e-14
1e-14
1e-14
1e-14
1e-14
1e-14
1e-14
1e-14
1e-14
1e-14
1e-14
1e-14
1e-14
1e-14
1.00001e-14
1.00001e-14
1.00001e-14
1e-14
1e-14
1e-14
1e-14
1e-14
1e-14
1e-14
1e-14
1e-14
1e-14
1e-14
1.00001e-14
1e-14
1e-14
1e-14
1e-14
1e-14
1e-14
1e-14
1e-14
1e-14
1e-14
1e-14
1e-14
1e-14
1e-14
1.00001e-14
1e-14
1e-14
1e-14
1e-14
1e-14
1e-14
1e-14
1e-14
1e-14
1e-14
1e-14
1e-14
1e-14
1.00001e-14
1.00001e-14
1e-14
1e-14
1e-14
1e-14
1e-14
1e-14
1e-14
1e-14
1e-14
1e-14
1e-14
1.00001e-14
1e-14
1e-14
1.00003e-14
1.00001e-14
1.00001e-14
1e-14
1e-14
1e-14
1e-14
1e-14
1e-14
1.00001e-14
1.00001e-14
1.00001e-14
1e-14
1e-14
1e-14
1e-14
1e-14
1e-14
1e-14
1e-14
1e-14
1e-14
1e-14
1e-14
1.00001e-14
1e-14
1e-14
1e-14
1e-14
1e-14
1.00001e-14
1e-14
1.00001e-14
1e-14
1e-14
1e-14
1e-14
1.00001e-14
1e-14
1e-14
1e-14
1e-14
1.00001e-14
1e-14
1e-14
1e-14
1.00001e-14
1.00001e-14
1e-14
1e-14
1e-14
1e-14
1e-14
1.00001e-14
1e-14
1e-14
1e-14
1.00001e-14
1e-14
1e-14
1e-14
1e-14
1e-14
1e-14
1e-14
1.00001e-14
1e-14
1e-14
1e-14
1e-14
1e-14
1e-14
1.00001e-14
1.00001e-14
1e-14
1.00001e-14
1e-14
1e-14
1e-14
1e-14
1e-14
1e-14
1e-14
1e-14
1.00001e-14
1.00001e-14
1.00001e-14
1e-14
1e-14
1e-14
1e-14
1e-14
1e-14
1e-14
1e-14
1e-14
1.00001e-14
1.00001e-14
1.00001e-14
1e-14
1e-14
1e-14
1e-14
1.00001e-14
1.00001e-14
1e-14
1e-14
1e-14
1e-14
1e-14
1e-14
1e-14
1e-14
1e-14
1e-14
1e-14
1e-14
1e-14
1.00001e-14
1e-14
1e-14
1e-14
1e-14
1e-14
1e-14
1e-14
1e-14
1e-14
1e-14
1e-14
1e-14
1e-14
1e-14
1e-14
1e-14
1e-14
1e-14
1e-14
1e-14
1e-14
1e-14
1e-14
1e-14
1e-14
1e-14
1e-14
1e-14
1e-14
1e-14
1e-14
1e-14
1e-14
1e-14
1e-14
1e-14
1e-14
1e-14
1e-14
1e-14
1e-14
1e-14
1e-14
1.00001e-14
1e-14
1e-14
1e-14
1e-14
1e-14
1e-14
1e-14
1e-14
1e-14
1.00001e-14
1.00001e-14
1e-14
1e-14
1e-14
1.00004e-14
1.00001e-14
1.00001e-14
1.00001e-14
1e-14
1e-14
1e-14
1e-14
1e-14
1.00001e-14
1e-14
1e-14
1e-14
1e-14
1e-14
1.00002e-14
1e-14
1e-14
1e-14
1e-14
1e-14
1e-14
1.00001e-14
1e-14
1.00001e-14
1e-14
1e-14
1e-14
1e-14
1e-14
1e-14
1e-14
1e-14
1e-14
1e-14
1e-14
1e-14
1.00001e-14
1e-14
1e-14
1e-14
1e-14
1e-14
1e-14
1e-14
1e-14
1.00001e-14
1e-14
1e-14
1e-14
1e-14
1e-14
1e-14
1e-14
1e-14
1e-14
1e-14
1.00001e-14
1e-14
1e-14
1e-14
1.00001e-14
1.00001e-14
1.00001e-14
1.00001e-14
1e-14
1e-14
1e-14
1e-14
1e-14
1e-14
1.00001e-14
1.00001e-14
1e-14
1e-14
1e-14
1e-14
1e-14
1e-14
1e-14
1e-14
1e-14
1e-14
1e-14
1e-14
1e-14
1e-14
1e-14
1e-14
1e-14
1.00001e-14
1e-14
1e-14
1e-14
1e-14
1e-14
1e-14
1e-14
1e-14
1e-14
1e-14
1e-14
1e-14
1e-14
1.00001e-14
1e-14
1e-14
1e-14
1e-14
1e-14
1e-14
1e-14
1e-14
1e-14
1e-14
1e-14
1e-14
1e-14
1e-14
1e-14
1e-14
1e-14
1e-14
1e-14
1e-14
1e-14
1e-14
1e-14
1e-14
1e-14
1e-14
1e-14
1e-14
1e-14
1e-14
1e-14
1e-14
1e-14
1e-14
1e-14
1e-14
1e-14
1e-14
1e-14
1e-14
1e-14
1e-14
1e-14
1e-14
1.00001e-14
1e-14
1e-14
1e-14
1e-14
1e-14
1e-14
1e-14
1e-14
1e-14
1e-14
1e-14
1e-14
1e-14
1e-14
1.00001e-14
1e-14
1e-14
1e-14
1e-14
1e-14
1e-14
1e-14
1e-14
1e-14
1e-14
1e-14
1e-14
1.00004e-14
1.00001e-14
1.00001e-14
1.00001e-14
1e-14
1e-14
1e-14
1e-14
1e-14
1e-14
1e-14
1e-14
1e-14
1e-14
1.00001e-14
3.8985e-13
4.15845e-13
1.57899e-14
1.66165e-14
4.41113e-13
1.837e-14
2.42251e-14
4.17122e-14
1.15715e-14
1.04061e-14
5.91311e-14
7.79644e-14
9.33814e-13
2.6611e-14
3.41719e-14
1.08129e-14
1.00886e-14
2.65198e-13
1.4538e-14
3.66949e-14
1.15747e-14
3.60852e-13
7.96402e-13
1.27306e-14
2.82903e-14
1.00563e-14
1.06643e-14
8.46328e-14
1.22711e-14
5.71748e-14
1e-14
2.06787e-14
3.40852e-13
1.01644e-14
1.25759e-14
8.18227e-13
4.32229e-14
8.70342e-13
8.72159e-13
3.85662e-14
8.75314e-13
8.71926e-13
4.32755e-14
8.18299e-13
1.25794e-14
3.4084e-13
1.01661e-14
2.06805e-14
1e-14
5.71805e-14
1.22766e-14
8.49352e-14
7.95499e-13
1.0668e-14
2.84017e-14
1.00617e-14
1.28988e-14
3.60726e-13
1.17985e-14
3.59448e-14
1.46134e-14
2.65777e-13
1.0103e-14
3.40979e-14
1.07852e-14
2.61478e-14
9.33618e-13
7.16111e-14
5.80696e-14
1.02677e-14
1.16576e-14
4.18546e-14
2.39554e-14
1.8363e-14
4.42607e-13
1.66229e-14
4.16988e-13
1.57474e-14
3.90628e-13
3.23428e-13
1.26075e-14
1.30627e-14
3.85724e-13
4.12167e-13
1.4921e-14
1.57218e-14
1.48882e-14
1.06094e-14
4.37753e-13
1.7184e-14
2.17815e-14
1.50513e-14
1e-14
3.66856e-14
1.12711e-14
1.00799e-14
1e-14
1.0291e-14
5.39289e-14
1e-14
8.52365e-13
6.75171e-14
9.28934e-13
1e-14
1e-14
1.01017e-14
2.35076e-14
3.22532e-14
1.05232e-14
1.00966e-14
1.27904e-14
1.32494e-14
2.63825e-13
1.39291e-14
3.26047e-14
1e-14
1.55453e-13
1.19184e-14
3.58705e-13
6.4168e-13
7.918e-13
1.86217e-14
1.00217e-14
1e-14
1.23985e-14
2.59172e-14
1.0036e-14
1.05246e-14
1.16799e-14
1.09433e-14
8.06958e-14
1.1957e-14
5.09109e-14
1.24912e-14
1e-14
2.68773e-13
1e-14
1.14212e-14
1.97438e-14
3.36582e-13
1.01154e-14
1.20778e-14
1.00203e-14
4.34667e-13
8.11772e-13
3.78872e-14
8.70995e-13
1e-14
4.64618e-13
8.71398e-13
3.36039e-14
8.74659e-13
1.00203e-14
6.7671e-13
8.72489e-13
3.79285e-14
8.11767e-13
2.68742e-13
1e-14
1.35775e-14
1.20805e-14
3.36584e-13
1.01158e-14
1.97433e-14
1.24866e-14
1e-14
1.16772e-14
1e-14
5.09201e-14
1.19559e-14
8.05683e-14
6.41822e-13
7.91864e-13
1.87359e-14
1.00223e-14
1.06438e-14
1.05302e-14
2.59926e-14
1.00371e-14
1.24214e-14
1e-14
3.58829e-13
1.19242e-14
1.28339e-14
2.1361e-13
3.28156e-14
1.39833e-14
2.63991e-13
1e-14
1e-14
1.93766e-14
1.00956e-14
3.22774e-14
1.05383e-14
2.37566e-14
1e-14
9.29126e-13
6.80663e-14
1.00894e-14
5.43332e-14
1.02855e-14
1.58216e-14
1.12915e-14
3.69944e-14
1.4912e-14
3.48009e-13
2.18882e-14
1.72386e-14
4.37947e-13
3.25442e-13
1.26403e-14
3.10132e-13
1.57685e-14
4.12359e-13
1.49764e-14
3.86212e-13
3.25808e-13
1.26283e-14
1.30822e-14
3.85747e-13
4.12095e-13
1.48925e-14
1.56928e-14
1.47989e-14
1.07835e-14
4.37964e-13
1.71659e-14
2.15036e-14
1.69432e-14
1e-14
3.61217e-14
1.1253e-14
1.00757e-14
1e-14
1.02642e-14
5.41278e-14
1e-14
8.5354e-13
6.80838e-14
9.28938e-13
1e-14
1e-14
1.01044e-14
2.34528e-14
3.17503e-14
1.04948e-14
1.00921e-14
1.27561e-14
1.36426e-14
2.64077e-13
1.39251e-14
3.25278e-14
1e-14
1.60491e-13
1.21066e-14
3.57962e-13
6.44818e-13
7.92382e-13
1.90813e-14
1.00205e-14
1e-14
1.24243e-14
2.58918e-14
1.00349e-14
1.04886e-14
1.16171e-14
1.1251e-14
8.17903e-14
1.19272e-14
4.98449e-14
1.39998e-14
1e-14
2.69499e-13
1.00018e-14
1.13679e-14
1.98266e-14
3.3692e-13
1.01143e-14
1.20048e-14
1.02328e-14
4.44424e-13
8.12603e-13
3.65238e-14
8.69323e-13
1e-14
4.74655e-13
8.69831e-13
3.24869e-14
8.73065e-13
1.02324e-14
6.77668e-13
8.70802e-13
3.65589e-14
8.12585e-13
2.69495e-13
1.00018e-14
1.35384e-14
1.20077e-14
3.36923e-13
1.01146e-14
1.9825e-14
1.3999e-14
1e-14
1.16178e-14
1e-14
4.98572e-14
1.19285e-14
8.17632e-14
6.44855e-13
7.92523e-13
1.91067e-14
1.00205e-14
1.0587e-14
1.04893e-14
2.58998e-14
1.00355e-14
1.24276e-14
1e-14
3.57994e-13
1.2107e-14
1.2772e-14
2.14335e-13
3.25501e-14
1.39317e-14
2.64076e-13
1e-14
1e-14
1.93039e-14
1.00919e-14
3.17391e-14
1.0496e-14
2.34837e-14
1e-14
9.29189e-13
6.81354e-14
1.0078e-14
5.41713e-14
1.02652e-14
1.70187e-14
1.12588e-14
3.61549e-14
1.48132e-14
3.48977e-13
2.15155e-14
1.71704e-14
4.379e-13
3.25877e-13
1.26434e-14
3.10417e-13
1.56927e-14
4.12099e-13
1.49011e-14
3.8599e-13
3.26072e-13
1.267e-14
1.31257e-14
3.85816e-13
4.12118e-13
1.49037e-14
1.57083e-14
1.48369e-14
1.08046e-14
4.37996e-13
1.71903e-14
2.14778e-14
1.73132e-14
1e-14
3.61284e-14
1.12511e-14
1.00768e-14
1e-14
1.0263e-14
5.411e-14
1e-14
8.52345e-13
6.8228e-14
9.28976e-13
1e-14
1e-14
1.01065e-14
2.34728e-14
3.16452e-14
1.04903e-14
1.00914e-14
1.27864e-14
1.37393e-14
2.64223e-13
1.39396e-14
3.25163e-14
1e-14
1.60295e-13
1.21535e-14
3.57612e-13
6.45286e-13
7.92677e-13
1.92394e-14
1.00197e-14
1e-14
1.24374e-14
2.59049e-14
1.00335e-14
1.04796e-14
1.16154e-14
1.13115e-14
8.24633e-14
1.19213e-14
4.96984e-14
1.43263e-14
1e-14
2.69665e-13
1.00021e-14
1.13658e-14
1.98501e-14
3.37038e-13
1.01107e-14
1.19974e-14
1.02958e-14
4.44429e-13
8.12736e-13
3.62955e-14
8.69037e-13
1.00017e-14
4.74724e-13
8.69515e-13
3.2295e-14
8.72758e-13
1.02948e-14
6.7746e-13
8.70539e-13
3.6328e-14
8.12772e-13
2.69649e-13
1.0002e-14
1.3562e-14
1.20004e-14
3.37035e-13
1.0111e-14
1.98509e-14
1.43255e-14
1e-14
1.16158e-14
1e-14
4.97063e-14
1.19224e-14
8.24543e-14
6.45388e-13
7.92708e-13
1.92455e-14
1.00198e-14
1.05904e-14
1.048e-14
2.59087e-14
1.0034e-14
1.24388e-14
1e-14
3.57618e-13
1.21521e-14
1.27881e-14
2.14465e-13
3.25263e-14
1.39412e-14
2.6422e-13
1e-14
1e-14
1.93761e-14
1.00913e-14
3.16411e-14
1.04908e-14
2.34797e-14
1e-14
9.29043e-13
6.82365e-14
1.00794e-14
5.41232e-14
1.02615e-14
1.73264e-14
1.12518e-14
3.61374e-14
1.48395e-14
3.49279e-13
2.14858e-14
1.71894e-14
4.37986e-13
3.26079e-13
1.26727e-14
3.10629e-13
1.57032e-14
4.12101e-13
1.49081e-14
3.85979e-13
3.25965e-13
1.26746e-14
1.31329e-14
3.85793e-13
4.12216e-13
1.49252e-14
1.57385e-14
1.48484e-14
1.07882e-14
4.38131e-13
1.72431e-14
2.15747e-14
1.74174e-14
1e-14
3.63058e-14
1.12498e-14
1.00771e-14
1e-14
1.02668e-14
5.40508e-14
1e-14
8.51938e-13
6.82933e-14
9.28899e-13
1e-14
1e-14
1.01064e-14
2.35123e-14
3.14908e-14
1.04883e-14
1.00911e-14
1.27899e-14
1.36883e-14
2.64434e-13
1.39493e-14
3.25329e-14
1e-14
1.60012e-13
1.21887e-14
3.57286e-13
6.45505e-13
7.92799e-13
1.9233e-14
1.0019e-14
1e-14
1.24436e-14
2.58896e-14
1.00317e-14
1.04715e-14
1.16071e-14
1.12846e-14
8.30705e-14
1.19111e-14
4.96025e-14
1.43549e-14
1e-14
2.69733e-13
1.00018e-14
1.13633e-14
1.98472e-14
3.37034e-13
1.01084e-14
1.19926e-14
1.0297e-14
4.44225e-13
8.12722e-13
3.62797e-14
8.69032e-13
1.00018e-14
4.74585e-13
8.69444e-13
3.22882e-14
8.72684e-13
1.02973e-14
6.7746e-13
8.70527e-13
3.63178e-14
8.12755e-13
2.69718e-13
1.00018e-14
1.35692e-14
1.19958e-14
3.37043e-13
1.01085e-14
1.98478e-14
1.43574e-14
1e-14
1.16073e-14
1e-14
4.9608e-14
1.19119e-14
8.30691e-14
6.45426e-13
7.92804e-13
1.92358e-14
1.0019e-14
1.05948e-14
1.04715e-14
2.58947e-14
1.00318e-14
1.24443e-14
1e-14
3.57284e-13
1.21883e-14
1.27906e-14
2.1452e-13
3.25377e-14
1.39501e-14
2.64443e-13
1e-14
1e-14
1.94073e-14
1.00911e-14
3.14937e-14
1.04882e-14
2.35124e-14
1e-14
9.28863e-13
6.82766e-14
1.00768e-14
5.40487e-14
1.02666e-14
1.74145e-14
1.12512e-14
3.63101e-14
1.48475e-14
3.49215e-13
2.15778e-14
1.72402e-14
4.38072e-13
3.26007e-13
1.26762e-14
3.10562e-13
1.57315e-14
4.12183e-13
1.49282e-14
3.86036e-13
3.2567e-13
1.26712e-14
1.31364e-14
3.85866e-13
4.12459e-13
1.49701e-14
1.58119e-14
1.48659e-14
1.07644e-14
4.38164e-13
1.73999e-14
2.19336e-14
1.75768e-14
1e-14
3.66758e-14
1.12783e-14
1.00737e-14
1e-14
1.03045e-14
5.40818e-14
1e-14
8.51345e-13
6.86881e-14
9.28713e-13
1e-14
1e-14
1.01051e-14
2.36789e-14
3.11218e-14
1.04846e-14
1.00914e-14
1.27867e-14
1.35888e-14
2.65027e-13
1.39692e-14
3.26301e-14
1e-14
1.59419e-13
1.22446e-14
3.56926e-13
6.45567e-13
7.92915e-13
1.92009e-14
1.0018e-14
1e-14
1.24551e-14
2.59287e-14
1.00297e-14
1.04633e-14
1.15885e-14
1.12191e-14
8.39293e-14
1.19075e-14
4.96326e-14
1.43807e-14
1e-14
2.69823e-13
1.00009e-14
1.13598e-14
1.98567e-14
3.37006e-13
1.01084e-14
1.19978e-14
1.02928e-14
4.44128e-13
8.1273e-13
3.64813e-14
8.68962e-13
1.00016e-14
4.74471e-13
8.69352e-13
3.24073e-14
8.72584e-13
1.02927e-14
6.77405e-13
8.70455e-13
3.65183e-14
8.12704e-13
2.69811e-13
1.00009e-14
1.3562e-14
1.20011e-14
3.37027e-13
1.01083e-14
1.98565e-14
1.43793e-14
1e-14
1.15887e-14
1e-14
4.9636e-14
1.19081e-14
8.39236e-14
6.45529e-13
7.92943e-13
1.92042e-14
1.00179e-14
1.06015e-14
1.04634e-14
2.59337e-14
1.00296e-14
1.24557e-14
1e-14
3.56947e-13
1.22442e-14
1.27876e-14
2.14549e-13
3.26324e-14
1.39693e-14
2.65034e-13
1e-14
1e-14
1.9492e-14
1.00913e-14
3.11224e-14
1.04848e-14
2.36829e-14
1e-14
9.28746e-13
6.87001e-14
1.00748e-14
5.40906e-14
1.03036e-14
1.75751e-14
1.1279e-14
3.66773e-14
1.48643e-14
3.48725e-13
2.19358e-14
1.73954e-14
4.38134e-13
3.25672e-13
1.26721e-14
3.10228e-13
1.58033e-14
4.12414e-13
1.49734e-14
3.86124e-13
3.24483e-13
1.26111e-14
1.30834e-14
3.86514e-13
4.13632e-13
1.51995e-14
1.61618e-14
1.48942e-14
1.07193e-14
4.38952e-13
1.7887e-14
2.3058e-14
1.83089e-14
1e-14
3.7342e-14
1.14939e-14
1.0066e-14
1e-14
1.04475e-14
5.56993e-14
1e-14
8.49511e-13
7.01759e-14
9.29416e-13
1e-14
1e-14
1.01014e-14
2.45668e-14
3.16526e-14
1.04843e-14
1.01037e-14
1.27492e-14
1.33918e-14
2.66866e-13
1.4074e-14
3.3038e-14
1e-14
1.57616e-13
1.22989e-14
3.56055e-13
6.45389e-13
7.94418e-13
1.91981e-14
1.00158e-14
1e-14
1.24902e-14
2.63148e-14
1.0027e-14
1.04639e-14
1.15396e-14
1.10471e-14
8.75789e-14
1.19809e-14
5.14033e-14
1.44191e-14
1e-14
2.69857e-13
1.00035e-14
1.13449e-14
2.01066e-14
3.38657e-13
1.00978e-14
1.20646e-14
1.02924e-14
4.43467e-13
8.13271e-13
3.75871e-14
8.68582e-13
1.00018e-14
4.73961e-13
8.69295e-13
3.28345e-14
8.72425e-13
1.02919e-14
6.76906e-13
8.70048e-13
3.76109e-14
8.13289e-13
2.69822e-13
1.00035e-14
1.3502e-14
1.20682e-14
3.38685e-13