/*--------------------------------*- C++ -*----------------------------------*\
| =========                 |                                                 |
| \\      /  F ield         | OpenFOAM: The Open Source CFD Toolbox           |
|  \\    /   O peration     | Version:  2.1.1                                 |
|   \\  /    A nd           | Web:      www.OpenFOAM.org                      |
|    \\/     M anipulation  |                                                 |
\*---------------------------------------------------------------------------*/
FoamFile
{
    version     2.0;
    format      ascii;
    class       volScalarField;
    location    "0.002";
    object      Th;
}
// * * * * * * * * * * * * * * * * * * * * * * * * * * * * * * * * * * * * * //

dimensions      [0 0 0 0 0 0 0];

internalField   nonuniform List<scalar> 
10260
(
2.55864e-13
1.00579e-14
1e-14
1.00001e-14
1.00001e-14
1.00001e-14
1.00002e-14
1.00002e-14
1.00002e-14
1e-14
1e-14
1e-14
1.00001e-14
1.00002e-14
1.00001e-14
2.87656e-13
1.01944e-14
1.00002e-14
1e-14
1.00001e-14
1e-14
1e-14
1e-14
1e-14
1e-14
1e-14
1e-14
1e-14
1e-14
1e-14
1e-14
1e-14
1e-14
1e-14
1e-14
1e-14
1e-14
1e-14
1e-14
1e-14
1e-14
1e-14
1e-14
1.00002e-14
1.04878e-14
1.00021e-14
1e-14
1e-14
1e-14
1e-14
1e-14
1e-14
1e-14
1e-14
1.00001e-14
1e-14
1e-14
1.00001e-14
1.40075e-14
1.00037e-14
1e-14
1e-14
1e-14
1e-14
1e-14
1e-14
1.00001e-14
1e-14
1e-14
1.00001e-14
1e-14
1e-14
1.7697e-13
1.03259e-14
1.00003e-14
1e-14
1e-14
1e-14
1e-14
1e-14
1.00001e-14
1e-14
1e-14
1.00001e-14
1e-14
1.00001e-14
1.03815e-14
1.00035e-14
1e-14
1e-14
1e-14
1e-14
1e-14
1e-14
1e-14
1e-14
1e-14
1e-14
1.00001e-14
1e-14
1.04456e-14
1.00002e-14
1e-14
1e-14
1e-14
1e-14
1.00001e-14
1.00001e-14
1.00001e-14
1.00001e-14
1e-14
1e-14
1.18919e-14
1.00035e-14
1e-14
1.00001e-14
1e-14
1e-14
1e-14
1e-14
1.00001e-14
1.00001e-14
1e-14
1e-14
5.56034e-13
1.00331e-14
1.00038e-14
1.00001e-14
1e-14
1e-14
1e-14
1e-14
1e-14
1e-14
1e-14
1e-14
4.34762e-13
1.00362e-14
1.00034e-14
1.00003e-14
1e-14
1e-14
1e-14
1e-14
1e-14
1e-14
1e-14
4.16976e-13
1.07705e-14
1.04456e-14
1.00036e-14
1.00003e-14
1e-14
1.00001e-14
1e-14
1e-14
1e-14
1e-14
1e-14
1.03295e-14
1.00038e-14
1.00023e-14
1.00001e-14
1.00003e-14
1.00002e-14
1.52906e-13
1.0866e-14
1.00502e-14
1e-14
1e-14
1.01973e-14
1.0061e-14
6.93654e-13
1e-14
1e-14
1.00644e-14
1.16666e-14
2.57152e-13
1.00527e-14
1e-14
1.00001e-14
1.00001e-14
1.00001e-14
1.00001e-14
1.00002e-14
1.00001e-14
1e-14
1e-14
1e-14
1e-14
1.00002e-14
1.00002e-14
2.89683e-13
1.01786e-14
1.00001e-14
1e-14
1e-14
1e-14
1e-14
1e-14
1e-14
1e-14
1e-14
1e-14
1e-14
1e-14
1e-14
1e-14
1e-14
1e-14
1e-14
1e-14
1e-14
1e-14
1e-14
1e-14
1e-14
1e-14
1e-14
1e-14
1.00001e-14
1.04665e-14
1.00019e-14
1e-14
1e-14
1e-14
1e-14
1e-14
1e-14
1e-14
1e-14
1e-14
1e-14
1e-14
1.00001e-14
1.42535e-14
1.00032e-14
1e-14
1e-14
1e-14
1e-14
1e-14
1e-14
1e-14
1e-14
1e-14
1e-14
1e-14
1e-14
1.78016e-13
1.03062e-14
1.00001e-14
1e-14
1e-14
1e-14
1e-14
1e-14
1e-14
1e-14
1e-14
1e-14
1e-14
1e-14
1.03589e-14
1.00031e-14
1e-14
1e-14
1e-14
1e-14
1e-14
1e-14
1e-14
1e-14
1e-14
1e-14
1e-14
1e-14
1.04148e-14
1.00001e-14
1e-14
1e-14
1e-14
1e-14
1e-14
1e-14
1e-14
1e-14
1e-14
1e-14
1.18844e-14
1.00029e-14
1e-14
1e-14
1e-14
1e-14
1e-14
1e-14
1e-14
1e-14
1e-14
1e-14
5.56658e-13
1.00222e-14
1.00032e-14
1e-14
1e-14
1e-14
1e-14
1e-14
1e-14
1e-14
1e-14
1e-14
4.40852e-13
1.00259e-14
1.00029e-14
1.00001e-14
1e-14
1e-14
1e-14
1e-14
1e-14
1e-14
1e-14
4.22928e-13
1.07483e-14
1.0415e-14
1.00032e-14
1.00001e-14
1e-14
1e-14
1e-14
1e-14
1e-14
1e-14
1e-14
1.03066e-14
1.00032e-14
1.0002e-14
1.00001e-14
1.00001e-14
1.00001e-14
1.55348e-13
1.10743e-14
1.00512e-14
1e-14
1e-14
1.01789e-14
1.00532e-14
6.91877e-13
1e-14
1e-14
1.01119e-14
1.16728e-14
2.57312e-13
1.00517e-14
1e-14
1.00001e-14
1.00001e-14
1e-14
1e-14
1.00001e-14
1.00001e-14
1.00001e-14
1e-14
1e-14
1e-14
1.00001e-14
1.00001e-14
2.89866e-13
1.01753e-14
1e-14
1e-14
1e-14
1e-14
1e-14
1e-14
1e-14
1e-14
1e-14
1e-14
1e-14
1e-14
1e-14
1e-14
1.00001e-14
1e-14
1e-14
1e-14
1e-14
1e-14
1e-14
1e-14
1e-14
1e-14
1e-14
1e-14
1.00001e-14
1.04701e-14
1.00019e-14
1e-14
1e-14
1e-14
1e-14
1e-14
1e-14
1e-14
1e-14
1e-14
1e-14
1e-14
1.00001e-14
1.43295e-14
1.00032e-14
1e-14
1e-14
1e-14
1e-14
1e-14
1e-14
1e-14
1e-14
1e-14
1e-14
1e-14
1e-14
1.78083e-13
1.03027e-14
1e-14
1e-14
1e-14
1e-14
1e-14
1e-14
1e-14
1e-14
1e-14
1e-14
1e-14
1e-14
1.0362e-14
1.0003e-14
1e-14
1e-14
1e-14
1e-14
1e-14
1e-14
1e-14
1e-14
1e-14
1e-14
1e-14
1e-14
1.04104e-14
1e-14
1e-14
1e-14
1e-14
1e-14
1e-14
1e-14
1e-14
1e-14
1e-14
1.00001e-14
1.18967e-14
1.00028e-14
1e-14
1e-14
1e-14
1e-14
1e-14
1e-14
1e-14
1e-14
1e-14
1.00001e-14
5.56521e-13
1.00187e-14
1.00032e-14
1e-14
1e-14
1e-14
1e-14
1e-14
1e-14
1e-14
1e-14
1.00001e-14
4.40914e-13
1.00233e-14
1.00028e-14
1e-14
1e-14
1e-14
1e-14
1e-14
1e-14
1e-14
1.00001e-14
4.22917e-13
1.07489e-14
1.04104e-14
1.00031e-14
1.00001e-14
1e-14
1e-14
1e-14
1e-14
1e-14
1e-14
1e-14
1.0303e-14
1.00032e-14
1.0002e-14
1.00001e-14
1e-14
1e-14
1.55254e-13
1.10961e-14
1.00521e-14
1e-14
1e-14
1.01753e-14
1.00518e-14
6.91135e-13
1e-14
1e-14
1.01177e-14
1.16896e-14
2.57299e-13
1.00518e-14
1e-14
1e-14
1e-14
1e-14
1e-14
1.00001e-14
1.00002e-14
1.00001e-14
1e-14
1e-14
1.00001e-14
1e-14
1e-14
2.89832e-13
1.01759e-14
1e-14
1e-14
1e-14
1e-14
1e-14
1.00001e-14
1e-14
1e-14
1e-14
1e-14
1e-14
1e-14
1e-14
1e-14
1e-14
1e-14
1e-14
1e-14
1e-14
1e-14
1e-14
1e-14
1e-14
1e-14
1e-14
1e-14
1e-14
1.04701e-14
1.00019e-14
1e-14
1e-14
1e-14
1e-14
1e-14
1e-14
1e-14
1e-14
1e-14
1e-14
1e-14
1e-14
1.43461e-14
1.00033e-14
1e-14
1e-14
1e-14
1e-14
1e-14
1e-14
1e-14
1e-14
1e-14
1e-14
1e-14
1e-14
1.78126e-13
1.03025e-14
1e-14
1e-14
1e-14
1e-14
1e-14
1e-14
1e-14
1e-14
1e-14
1e-14
1e-14
1e-14
1.03638e-14
1.00029e-14
1e-14
1e-14
1e-14
1e-14
1e-14
1e-14
1e-14
1e-14
1e-14
1e-14
1e-14
1e-14
1.04092e-14
1e-14
1e-14
1e-14
1e-14
1e-14
1e-14
1e-14
1e-14
1e-14
1e-14
1.00001e-14
1.18998e-14
1.00027e-14
1e-14
1e-14
1e-14
1e-14
1e-14
1e-14
1e-14
1e-14
1e-14
1e-14
5.56527e-13
1.00182e-14
1.00032e-14
1e-14
1e-14
1e-14
1e-14
1e-14
1e-14
1e-14
1e-14
1e-14
4.40813e-13
1.0023e-14
1.00027e-14
1e-14
1e-14
1e-14
1e-14
1.00001e-14
1e-14
1e-14
1e-14
4.22822e-13
1.07477e-14
1.04092e-14
1.0003e-14
1e-14
1e-14
1e-14
1e-14
1e-14
1e-14
1e-14
1e-14
1.03027e-14
1.00033e-14
1.00019e-14
1e-14
1e-14
1e-14
1.55077e-13
1.10685e-14
1.00519e-14
1e-14
1e-14
1.01757e-14
1.00518e-14
6.90915e-13
1e-14
1e-14
1.01112e-14
1.16916e-14
2.57067e-13
1.00548e-14
1e-14
1e-14
1e-14
1e-14
1e-14
1.00001e-14
1.00001e-14
1e-14
1e-14
1e-14
1e-14
1e-14
1.00002e-14
2.89527e-13
1.01824e-14
1e-14
1e-14
1e-14
1e-14
1e-14
1e-14
1e-14
1e-14
1e-14
1e-14
1e-14
1e-14
1e-14
1e-14
1e-14
1e-14
1e-14
1e-14
1e-14
1e-14
1e-14
1e-14
1e-14
1e-14
1e-14
1e-14
1e-14
1.04727e-14
1.00018e-14
1e-14
1e-14
1e-14
1e-14
1e-14
1e-14
1e-14
1e-14
1e-14
1e-14
1e-14
1e-14
1.43818e-14
1.00035e-14
1e-14
1e-14
1e-14
1e-14
1e-14
1e-14
1e-14
1e-14
1e-14
1e-14
1e-14
1e-14
1.78163e-13
1.03039e-14
1e-14
1e-14
1e-14
1e-14
1e-14
1e-14
1e-14
1e-14
1e-14
1e-14
1e-14
1e-14
1.03666e-14
1.00029e-14
1e-14
1e-14
1e-14
1e-14
1e-14
1e-14
1e-14
1e-14
1e-14
1e-14
1.00001e-14
1e-14
1.04014e-14
1e-14
1e-14
1e-14
1e-14
1e-14
1e-14
1e-14
1e-14
1e-14
1e-14
1e-14
1.18968e-14
1.00027e-14
1e-14
1e-14
1e-14
1e-14
1e-14
1e-14
1e-14
1.00001e-14
1e-14
1e-14
5.56487e-13
1.00176e-14
1.00032e-14
1e-14
1e-14
1e-14
1e-14
1e-14
1.00001e-14
1e-14
1e-14
1e-14
4.40734e-13
1.00229e-14
1.00027e-14
1e-14
1e-14
1e-14
1.00001e-14
1e-14
1e-14
1e-14
1e-14
4.2274e-13
1.07461e-14
1.04012e-14
1.00029e-14
1e-14
1e-14
1e-14
1e-14
1e-14
1e-14
1e-14
1e-14
1.03039e-14
1.00035e-14
1.00019e-14
1e-14
1e-14
1e-14
1.54685e-13
1.10154e-14
1.00515e-14
1e-14
1e-14
1.01824e-14
1.00548e-14
6.90558e-13
1e-14
1e-14
1.01067e-14
1.16946e-14
2.5625e-13
1.00444e-14
1e-14
1e-14
1e-14
1e-14
1.00001e-14
1.00001e-14
1e-14
1e-14
1e-14
1e-14
1e-14
1e-14
1.00001e-14
2.88436e-13
1.01852e-14
1e-14
1e-14
1e-14
1e-14
1e-14
1e-14
1e-14
1e-14
1e-14
1e-14
1e-14
1e-14
1e-14
1e-14
1e-14
1e-14
1e-14
1e-14
1e-14
1e-14
1e-14
1e-14
1e-14
1e-14
1e-14
1e-14
1e-14
1.04881e-14
1.00018e-14
1e-14
1e-14
1e-14
1e-14
1e-14
1e-14
1e-14
1e-14
1e-14
1e-14
1e-14
1e-14
1.4523e-14
1.0003e-14
1e-14
1e-14
1e-14
1e-14
1e-14
1e-14
1e-14
1e-14
1e-14
1e-14
1e-14
1.00001e-14
1.78134e-13
1.03036e-14
1e-14
1e-14
1e-14
1e-14
1e-14
1e-14
1e-14
1e-14
1e-14
1e-14
1e-14
1.00001e-14
1.03702e-14
1.00025e-14
1e-14
1e-14
1e-14
1e-14
1e-14
1e-14
1e-14
1e-14
1e-14
1.00001e-14
1.00001e-14
1e-14
1.04481e-14
1e-14
1e-14
1e-14
1e-14
1e-14
1e-14
1e-14
1e-14
1.00001e-14
1e-14
1e-14
1.18714e-14
1.00034e-14
1e-14
1e-14
1e-14
1e-14
1e-14
1e-14
1e-14
1e-14
1e-14
1e-14
5.5617e-13
1.00156e-14
1.00035e-14
1e-14
1e-14
1e-14
1.00001e-14
1e-14
1e-14
1e-14
1e-14
1e-14
4.40401e-13
1.00222e-14
1.00034e-14
1e-14
1e-14
1e-14
1e-14
1e-14
1e-14
1e-14
1e-14
4.2234e-13
1.07405e-14
1.0448e-14
1.00025e-14
1e-14
1e-14
1e-14
1e-14
1e-14
1e-14
1e-14
1e-14
1.03036e-14
1.00029e-14
1.00018e-14
1e-14
1e-14
1e-14
1.53515e-13
1.09194e-14
1.00506e-14
1e-14
1e-14
1.01853e-14
1.00445e-14
6.89405e-13
1e-14
1e-14
1.01051e-14
1.16804e-14
2.51084e-13
1.0129e-14
1e-14
1e-14
1e-14
1e-14
1e-14
1e-14
1e-14
1e-14
1e-14
1e-14
1e-14
1e-14
1e-14
2.83163e-13
1.03128e-14
1e-14
1e-14
1e-14
1e-14
1e-14
1e-14
1e-14
1e-14
1e-14
1e-14
1e-14
1e-14
1e-14
1e-14
1e-14
1e-14
1e-14
1e-14
1e-14
1e-14
1e-14
1e-14
1e-14
1e-14
1e-14
1e-14
1e-14
1.03879e-14
1.00021e-14
1e-14
1e-14
1e-14
1e-14
1e-14
1e-14
1e-14
1e-14
1e-14
1e-14
1e-14
1e-14
1.44576e-14
1.00084e-14
1e-14
1e-14
1e-14
1e-14
1e-14
1e-14
1e-14
1e-14
1e-14
1e-14
1e-14
1.00001e-14
1.77175e-13
1.03624e-14
1e-14
1e-14
1e-14
1e-14
1e-14
1e-14
1e-14
1e-14
1e-14
1e-14
1.00001e-14
1e-14
1.04096e-14
1.00028e-14
1e-14
1e-14
1e-14
1e-14
1e-14
1e-14
1e-14
1e-14
1e-14
1e-14
1e-14
1e-14
1.03395e-14
1e-14
1e-14
1e-14
1e-14
1e-14
1e-14
1e-14
1e-14
1e-14
1e-14
1e-14
1.21887e-14
1e-14
1e-14
1e-14
1e-14
1e-14
1e-14
1e-14
1e-14
1e-14
1e-14
1e-14
5.54657e-13
1.00308e-14
1.00008e-14
1e-14
1e-14
1e-14
1e-14
1e-14
1e-14
1e-14
1e-14
1.00001e-14
4.39911e-13
1.00377e-14
1e-14
1e-14
1e-14
1e-14
1e-14
1e-14
1e-14
1.00001e-14
1.00001e-14
4.20909e-13
1.07932e-14
1.03395e-14
1.00028e-14
1e-14
1e-14
1e-14
1e-14
1e-14
1e-14
1e-14
1e-14
1.03624e-14
1.00084e-14
1.00021e-14
1e-14
1e-14
1e-14
1.46684e-13
1.07852e-14
1.0039e-14
1e-14
1e-14
1.03129e-14
1.01291e-14
6.8985e-13
1e-14
1e-14
1.00667e-14
1.1051e-14
2.48904e-14
1.00253e-14
1e-14
1e-14
1e-14
1e-14
1e-14
1e-14
1e-14
1e-14
1e-14
1e-14
1e-14
1e-14
1e-14
2.16779e-14
1.00405e-14
1e-14
1e-14
1e-14
1e-14
1e-14
1e-14
1e-14
1e-14
1e-14
1e-14
1e-14
1e-14
1e-14
1e-14
1e-14
1e-14
1e-14
1e-14
1e-14
1e-14
1e-14
1e-14
1e-14
1e-14
1e-14
1e-14
1e-14
1.01694e-14
1.00002e-14
1e-14
1e-14
1e-14
1e-14
1e-14
1e-14
1e-14
1e-14
1e-14
1e-14
1e-14
1.00001e-14
1.13285e-14
1.00013e-14
1e-14
1e-14
1e-14
1e-14
1e-14
1e-14
1e-14
1e-14
1e-14
1e-14
1e-14
1.00001e-14
2.28603e-14
1.0032e-14
1e-14
1e-14
1e-14
1e-14
1e-14
1e-14
1e-14
1e-14
1e-14
1e-14
1e-14
1e-14
1.0104e-14
1.00003e-14
1e-14
1e-14
1e-14
1e-14
1e-14
1e-14
1e-14
1e-14
1e-14
1e-14
1e-14
1.61808e-14
1.00239e-14
1e-14
1e-14
1e-14
1e-14
1e-14
1e-14
1.00001e-14
1e-14
1e-14
1e-14
1e-14
1.05293e-14
1.00001e-14
1e-14
1e-14
1e-14
1e-14
1e-14
1e-14
1e-14
1e-14
1e-14
1e-14
1e-14
1e-14
1e-14
1e-14
1e-14
1e-14
1e-14
1e-14
1e-14
1e-14
1e-14
1.00001e-14
1e-14
1e-14
1.00001e-14
1e-14
1e-14
1e-14
1e-14
1e-14
1e-14
1e-14
1e-14
1e-14
1e-14
1.00239e-14
1.00003e-14
1e-14
1e-14
1e-14
1.00001e-14
1e-14
1e-14
1.09035e-14
1.00033e-14
1.00321e-14
1.00014e-14
1.00003e-14
1e-14
1e-14
1e-14
1e-14
1.13179e-14
1e-14
1.00041e-14
1e-14
1.00406e-14
1.00254e-14
1e-14
2.68822e-14
1.0963e-14
1.09834e-14
1e-14
1.00975e-14
1.00038e-14
1e-14
1e-14
1e-14
1e-14
1e-14
1e-14
1e-14
1e-14
1e-14
1e-14
1e-14
1e-14
1.00001e-14
1.00417e-14
1.00057e-14
1e-14
1e-14
1e-14
1e-14
1e-14
1e-14
1e-14
1e-14
1e-14
1e-14
1e-14
1e-14
1e-14
1.00011e-14
1e-14
1e-14
1e-14
1e-14
1e-14
1e-14
1e-14
1e-14
1e-14
1e-14
1e-14
1e-14
1e-14
1e-14
1e-14
1e-14
1e-14
1e-14
1e-14
1e-14
1e-14
1e-14
1e-14
1e-14
1e-14
1e-14
1e-14
1e-14
1.00077e-14
1.00002e-14
1e-14
1e-14
1e-14
1e-14
1e-14
1e-14
1e-14
1e-14
1e-14
1e-14
1e-14
1e-14
1.00487e-14
1.00037e-14
1e-14
1e-14
1e-14
1e-14
1e-14
1e-14
1e-14
1e-14
1e-14
1e-14
1e-14
1e-14
1.00011e-14
1.00001e-14
1e-14
1e-14
1e-14
1e-14
1e-14
1e-14
1e-14
1e-14
1e-14
1e-14
1e-14
1.00111e-14
1.00025e-14
1e-14
1e-14
1e-14
1e-14
1e-14
1e-14
1e-14
1e-14
1e-14
1e-14
1e-14
1.00061e-14
1e-14
1e-14
1e-14
1e-14
1e-14
1e-14
1e-14
1e-14
1e-14
1e-14
1e-14
1.00001e-14
1e-14
1e-14
1e-14
1e-14
1e-14
1e-14
1e-14
1e-14
1e-14
1e-14
1.00001e-14
1e-14
1e-14
1e-14
1e-14
1e-14
1e-14
1e-14
1e-14
1e-14
1e-14
1e-14
1e-14
1e-14
1.00025e-14
1e-14
1e-14
1e-14
1e-14
1e-14
1e-14
1e-14
1.0006e-14
1e-14
1.00037e-14
1.00002e-14
1e-14
1e-14
1e-14
1e-14
1e-14
1.00111e-14
1e-14
1.00001e-14
1e-14
1.00057e-14
1.00038e-14
1.00604e-14
1.00043e-14
1.00114e-14
1e-14
1.00007e-14
1.00005e-14
1e-14
1e-14
1e-14
1e-14
1e-14
1e-14
1e-14
1e-14
1e-14
1e-14
1e-14
1e-14
1.00001e-14
1.00001e-14
1.00007e-14
1e-14
1e-14
1e-14
1e-14
1e-14
1e-14
1e-14
1e-14
1e-14
1e-14
1e-14
1e-14
1e-14
1e-14
1e-14
1e-14
1e-14
1e-14
1e-14
1e-14
1e-14
1e-14
1e-14
1e-14
1e-14
1e-14
1e-14
1e-14
1e-14
1e-14
1e-14
1e-14
1e-14
1e-14
1e-14
1e-14
1e-14
1e-14
1e-14
1e-14
1e-14
1e-14
1e-14
1e-14
1e-14
1e-14
1e-14
1e-14
1e-14
1e-14
1e-14
1e-14
1e-14
1e-14
1e-14
1e-14
1.00001e-14
1.00004e-14
1e-14
1e-14
1e-14
1e-14
1e-14
1e-14
1e-14
1e-14
1e-14
1e-14
1e-14
1e-14
1e-14
1e-14
1e-14
1e-14
1e-14
1e-14
1e-14
1e-14
1e-14
1e-14
1e-14
1e-14
1e-14
1e-14
1.00003e-14
1e-14
1e-14
1e-14
1e-14
1e-14
1e-14
1e-14
1e-14
1e-14
1e-14
1e-14
1e-14
1e-14
1e-14
1e-14
1e-14
1e-14
1e-14
1e-14
1e-14
1e-14
1e-14
1e-14
1e-14
1e-14
1e-14
1e-14
1e-14
1e-14
1e-14
1e-14
1e-14
1e-14
1e-14
1e-14
1e-14
1e-14
1e-14
1e-14
1e-14
1e-14
1e-14
1e-14
1e-14
1e-14
1e-14
1e-14
1.00001e-14
1.00003e-14
1e-14
1e-14
1e-14
1e-14
1e-14
1e-14
1e-14
1e-14
1e-14
1.00004e-14
1e-14
1e-14
1e-14
1e-14
1e-14
1e-14
1e-14
1e-14
1e-14
1e-14
1.00007e-14
1.00005e-14
1.00002e-14
1e-14
1.00001e-14
1e-14
1.00003e-14
1.00001e-14
1e-14
1e-14
1e-14
1e-14
1e-14
1e-14
1e-14
1e-14
1e-14
1e-14
1e-14
1.00001e-14
1.00001e-14
1.00001e-14
1.00001e-14
1e-14
1e-14
1e-14
1e-14
1e-14
1e-14
1e-14
1e-14
1e-14
1e-14
1e-14
1e-14
1e-14
1e-14
1e-14
1e-14
1e-14
1e-14
1e-14
1e-14
1e-14
1e-14
1e-14
1e-14
1e-14
1e-14
1e-14
1.00001e-14
1e-14
1e-14
1e-14
1e-14
1e-14
1e-14
1e-14
1e-14
1e-14
1e-14
1e-14
1e-14
1e-14
1.00001e-14
1e-14
1e-14
1e-14
1e-14
1e-14
1e-14
1e-14
1e-14
1e-14
1e-14
1e-14
1e-14
1e-14
1e-14
1e-14
1.00001e-14
1e-14
1e-14
1e-14
1e-14
1e-14
1e-14
1e-14
1e-14
1e-14
1e-14
1e-14
1e-14
1e-14
1e-14
1e-14
1e-14
1e-14
1e-14
1e-14
1e-14
1e-14
1e-14
1e-14
1e-14
1e-14
1e-14
1e-14
1e-14
1e-14
1e-14
1e-14
1e-14
1e-14
1e-14
1e-14
1e-14
1e-14
1e-14
1e-14
1e-14
1e-14
1e-14
1e-14
1e-14
1e-14
1e-14
1e-14
1e-14
1e-14
1e-14
1e-14
1e-14
1e-14
1e-14
1e-14
1e-14
1e-14
1e-14
1e-14
1e-14
1e-14
1e-14
1e-14
1e-14
1e-14
1e-14
1e-14
1e-14
1e-14
1e-14
1e-14
1e-14
1e-14
1e-14
1e-14
1.00001e-14
1e-14
1e-14
1e-14
1e-14
1e-14
1e-14
1e-14
1e-14
1e-14
1e-14
1e-14
1e-14
1e-14
1e-14
1e-14
1e-14
1e-14
1e-14
1e-14
1e-14
1.00001e-14
1.00001e-14
1e-14
1e-14
1e-14
1e-14
1e-14
1e-14
1e-14
1e-14
1e-14
1e-14
1e-14
1e-14
1e-14
1e-14
1e-14
1e-14
1.00001e-14
1.00001e-14
1.00001e-14
1e-14
1e-14
1e-14
1e-14
1e-14
1e-14
1e-14
1e-14
1e-14
1e-14
1e-14
1.00001e-14
1.00001e-14
1e-14
1.00001e-14
1e-14
1e-14
1e-14
1e-14
1e-14
1e-14
1e-14
1e-14
1e-14
1e-14
1e-14
1e-14
1e-14
1e-14
1.00001e-14
1e-14
1e-14
1e-14
1e-14
1e-14
1e-14
1e-14
1e-14
1e-14
1e-14
1e-14
1e-14
1e-14
1e-14
1e-14
1e-14
1e-14
1e-14
1e-14
1e-14
1e-14
1e-14
1e-14
1e-14
1e-14
1e-14
1e-14
1e-14
1e-14
1e-14
1e-14
1e-14
1e-14
1e-14
1e-14
1e-14
1e-14
1e-14
1e-14
1e-14
1e-14
1e-14
1e-14
1e-14
1.00001e-14
1e-14
1e-14
1e-14
1e-14
1e-14
1e-14
1e-14
1e-14
1e-14
1e-14
1.00001e-14
1e-14
1e-14
1e-14
1e-14
1e-14
1e-14
1e-14
1e-14
1e-14
1e-14
1e-14
1e-14
1e-14
1e-14
1e-14
1e-14
1e-14
1e-14
1e-14
1e-14
1e-14
1e-14
1e-14
1e-14
1e-14
1e-14
1e-14
1e-14
1e-14
1e-14
1e-14
1e-14
1e-14
1e-14
1e-14
1e-14
1e-14
1e-14
1e-14
1e-14
1e-14
1e-14
1e-14
1e-14
1e-14
1e-14
1e-14
1e-14
1e-14
1e-14
1e-14
1e-14
1e-14
1e-14
1e-14
1e-14
1e-14
1e-14
1e-14
1e-14
1e-14
1e-14
1e-14
1e-14
1e-14
1e-14
1e-14
1e-14
1e-14
1e-14
1e-14
1e-14
1e-14
1.00001e-14
1e-14
1e-14
1e-14
1e-14
1e-14
1e-14
1e-14
1.00001e-14
1.00001e-14
1.00001e-14
1e-14
1.00001e-14
1.00001e-14
1.00001e-14
1.00001e-14
1.00001e-14
1.00003e-14
1e-14
1e-14
1e-14
1e-14
1e-14
1e-14
1e-14
1e-14
1e-14
1e-14
1.00001e-14
1e-14
1e-14
1e-14
1.00001e-14
1e-14
1e-14
1e-14
1e-14
1e-14
1e-14
1e-14
1e-14
1e-14
1e-14
1e-14
1e-14
1e-14
1e-14
1e-14
1e-14
1e-14
1e-14
1e-14
1e-14
1e-14
1e-14
1e-14
1e-14
1e-14
1e-14
1e-14
1e-14
1e-14
1e-14
1e-14
1e-14
1e-14
1.00001e-14
1e-14
1e-14
1e-14
1e-14
1e-14
1e-14
1e-14
1e-14
1e-14
1e-14
1e-14
1e-14
1.00001e-14
1e-14
1e-14
1e-14
1e-14
1e-14
1e-14
1e-14
1e-14
1e-14
1e-14
1e-14
1e-14
1e-14
1e-14
1e-14
1e-14
1e-14
1e-14
1e-14
1e-14
1e-14
1e-14
1e-14
1e-14
1e-14
1e-14
1e-14
1e-14
1e-14
1e-14
1e-14
1e-14
1e-14
1e-14
1e-14
1e-14
1e-14
1e-14
1e-14
1e-14
1e-14
1e-14
1e-14
1e-14
1e-14
1e-14
1e-14
1e-14
1e-14
1e-14
1e-14
1e-14
1e-14
1e-14
1e-14
1e-14
1e-14
1e-14
1e-14
1.00001e-14
1e-14
1e-14
1e-14
1e-14
1e-14
1e-14
1e-14
1e-14
1e-14
1e-14
1.00001e-14
1e-14
1e-14
1e-14
1e-14
1e-14
1e-14
1e-14
1e-14
1e-14
1e-14
1e-14
1.00001e-14
1e-14
1e-14
1e-14
1e-14
1e-14
1e-14
1e-14
1e-14
1e-14
1e-14
1e-14
1e-14
1e-14
1e-14
1.00001e-14
1e-14
1e-14
1e-14
1e-14
1.00001e-14
1.00001e-14
1e-14
1.00001e-14
1e-14
1e-14
1e-14
1.00001e-14
1.00001e-14
1e-14
1e-14
1e-14
1.00003e-14
1e-14
1e-14
1e-14
1e-14
1e-14
1e-14
1e-14
1e-14
1e-14
1e-14
1e-14
1e-14
1e-14
1e-14
1.00001e-14
1e-14
1e-14
1e-14
1e-14
1e-14
1e-14
1e-14
1e-14
1e-14
1e-14
1e-14
1e-14
1e-14
1e-14
1.00001e-14
1e-14
1e-14
1e-14
1e-14
1e-14
1e-14
1e-14
1e-14
1e-14
1e-14
1e-14
1e-14
1e-14
1.00001e-14
1e-14
1e-14
1e-14
1e-14
1.00001e-14
1e-14
1e-14
1e-14
1e-14
1e-14
1e-14
1e-14
1e-14
1e-14
1e-14
1e-14
1e-14
1e-14
1e-14
1e-14
1e-14
1e-14
1e-14
1e-14
1e-14
1e-14
1e-14
1e-14
1.00001e-14
1e-14
1e-14
1e-14
1e-14
1e-14
1e-14
1e-14
1e-14
1e-14
1e-14
1e-14
1e-14
1e-14
1e-14
1e-14
1e-14
1e-14
1e-14
1e-14
1e-14
1e-14
1e-14
1e-14
1e-14
1e-14
1e-14
1e-14
1e-14
1e-14
1e-14
1e-14
1e-14
1e-14
1e-14
1e-14
1e-14
1e-14
1e-14
1e-14
1e-14
1e-14
1e-14
1e-14
1e-14
1e-14
1e-14
1e-14
1e-14
1.00001e-14
1.00001e-14
1e-14
1.00001e-14
1e-14
1e-14
1e-14
1e-14
1e-14
1e-14
1e-14
1e-14
1e-14
1e-14
1e-14
1e-14
1e-14
1e-14
1e-14
1e-14
1e-14
1e-14
1e-14
1e-14
1e-14
1e-14
1e-14
1e-14
1e-14
1e-14
1e-14
1e-14
1e-14
1e-14
1e-14
1e-14
1e-14
1e-14
1e-14
1e-14
1e-14
1.00001e-14
1e-14
1.00001e-14
1e-14
1e-14
1e-14
1e-14
1e-14
1.00001e-14
1.00001e-14
1e-14
1e-14
1e-14
1e-14
1.00003e-14
1e-14
1e-14
1e-14
1e-14
1e-14
1e-14
1e-14
1e-14
1e-14
1e-14
1e-14
1e-14
1e-14
1e-14
1.00001e-14
1e-14
1e-14
1e-14
1e-14
1e-14
1e-14
1e-14
1e-14
1e-14
1e-14
1e-14
1e-14
1e-14
1.00001e-14
1.00001e-14
1e-14
1e-14
1e-14
1e-14
1e-14
1e-14
1e-14
1e-14
1e-14
1e-14
1e-14
1e-14
1e-14
1.00001e-14
1e-14
1e-14
1e-14
1.00001e-14
1e-14
1e-14
1e-14
1e-14
1e-14
1e-14
1e-14
1e-14
1e-14
1e-14
1e-14
1e-14
1e-14
1e-14
1e-14
1e-14
1e-14
1e-14
1e-14
1e-14
1e-14
1e-14
1e-14
1e-14
1e-14
1e-14
1e-14
1e-14
1e-14
1e-14
1e-14
1e-14
1e-14
1e-14
1e-14
1e-14
1e-14
1e-14
1e-14
1e-14
1e-14
1e-14
1e-14
1e-14
1e-14
1e-14
1e-14
1e-14
1e-14
1e-14
1e-14
1e-14
1e-14
1e-14
1e-14
1e-14
1e-14
1e-14
1e-14
1e-14
1e-14
1e-14
1e-14
1e-14
1e-14
1e-14
1e-14
1e-14
1e-14
1e-14
1e-14
1e-14
1e-14
1e-14
1.00001e-14
1e-14
1e-14
1e-14
1e-14
1e-14
1e-14
1e-14
1e-14
1e-14
1e-14
1.00001e-14
1e-14
1e-14
1e-14
1e-14
1e-14
1e-14
1e-14
1e-14
1e-14
1e-14
1e-14
1e-14
1e-14
1e-14
1e-14
1e-14
1.00001e-14
1e-14
1e-14
1e-14
1e-14
1e-14
1e-14
1.00001e-14
1e-14
1e-14
1e-14
1e-14
3.08779e-13
1.3031e-14
3.28741e-13
1.34455e-14
3.49159e-13
1.43271e-14
1.76633e-14
2.86711e-14
1.08436e-14
1.01968e-14
4.24183e-14
5.43387e-14
7.43348e-13
1.86597e-14
1.03342e-14
2.62571e-14
1.00494e-14
2.10791e-13
1.23785e-14
2.48973e-14
1.11885e-14
2.87365e-13
1.13731e-14
1.00245e-14
1.9651e-14
1.02759e-14
6.30751e-13
5.99694e-14
1.11186e-14
3.43876e-14
1e-14
1.58762e-14
1.00796e-14
2.71342e-13
1.10867e-14
6.46323e-13
2.50274e-14
7.05206e-13
7.04144e-13
2.22312e-14
7.01614e-13
7.03901e-13
2.49916e-14
6.46334e-13
1.10848e-14
1.00807e-14
2.71337e-13
1.58769e-14
1e-14
3.43789e-14
1.11201e-14
6.01755e-14
1.02772e-14
1.0027e-14
1.97013e-14
1.14654e-14
6.29995e-13
2.87229e-13
1.12989e-14
2.45442e-14
1.24316e-14
2.11176e-13
1.00558e-14
1.03242e-14
2.62003e-14
1.84476e-14
7.43154e-13
5.02342e-14
4.17354e-14
1.01265e-14
1.089e-14
2.87829e-14
1.75372e-14
1.43502e-14
3.50216e-13
1.34734e-14
1.30162e-14
3.2954e-13
3.08808e-13
1.13978e-14
2.69057e-13
1.1642e-14
3.05881e-13
1.25618e-14
3.26317e-13
1.29676e-14
1.25662e-14
1.00348e-14
3.46963e-13
1.37009e-14
1.6292e-14
1.14761e-14
1e-14
2.55283e-14
1.06842e-14
1.00403e-14
1e-14
1.01366e-14
3.89692e-14
1e-14
6.91201e-13
4.74101e-14
7.40097e-13
1e-14
1e-14
1.00498e-14
1.6902e-14
1.02098e-14
2.50153e-14
1.00511e-14
1.14877e-14
1.07646e-14
2.09903e-13
1.20545e-14
2.24343e-14
1e-14
1.52269e-13
1.13143e-14
2.85304e-13
1.00044e-14
1.3676e-14
1e-14
1.12075e-14
1.00163e-14
1.82492e-14
1.02128e-14
5.31367e-13
6.27489e-13
1.08708e-14
1e-14
5.7317e-14
1.09471e-14
3.04123e-14
1.39741e-14
1e-14
1e-14
2.24616e-13
1.07704e-14
1.53392e-14
1.00583e-14
2.68542e-13
1.08784e-14
1e-14
4.17233e-13
6.42174e-13
2.19259e-14
7.0407e-13
1e-14
4.33478e-13
7.0237e-13
1.94502e-14
6.99758e-13
1e-14
5.56044e-13
7.02782e-13
2.18999e-14
6.42138e-13
1e-14
2.24593e-13
1.18922e-14
1.08771e-14
1.00582e-14
2.68539e-13
1.53381e-14
1.39764e-14
1e-14
1.0869e-14
1e-14
3.0412e-14
1.09468e-14
5.72371e-14
1.00047e-14
1.37507e-14
1.0388e-14
1.02153e-14
1.00168e-14
1.8293e-14
1.12192e-14
5.31366e-13
6.27481e-13
1e-14
2.85374e-13
1.1321e-14
1.15129e-14
1.77509e-13
2.25505e-14
1.20825e-14
2.10004e-13
1e-14
1e-14
1.42539e-14
1.00508e-14
1.02161e-14
2.50313e-14
1.70407e-14
1e-14
7.40217e-13
4.77802e-14
1.00433e-14
3.9237e-14
1.01341e-14
1.19224e-14
1.06952e-14
2.56816e-14
1.25863e-14
2.88992e-13
1.63394e-14
1.37344e-14
3.47135e-13
1.14179e-14
2.70262e-13
2.56822e-13
1.30012e-14
1.259e-14
3.26491e-13
3.05919e-13
1.14194e-14
2.70598e-13
1.1664e-14
3.05914e-13
1.25469e-14
3.26288e-13
1.29527e-14
1.25421e-14
1.01081e-14
3.47132e-13
1.36938e-14
1.60823e-14
1.26749e-14
1e-14
2.50511e-14
1.06757e-14
1.00378e-14
1e-14
1.01233e-14
3.90924e-14
1e-14
6.91919e-13
4.77775e-14
7.40041e-13
1e-14
1e-14
1.00507e-14
1.68548e-14
1.01974e-14
2.47036e-14
1.00494e-14
1.14816e-14
1.10552e-14
2.10062e-13
1.20539e-14
2.23102e-14
1e-14
1.55381e-13
1.14198e-14
2.84882e-13
1.00045e-14
1.40244e-14
1e-14
1.12196e-14
1.00157e-14
1.81853e-14
1.01968e-14
5.33207e-13
6.2792e-13
1.08441e-14
1e-14
5.80308e-14
1.0938e-14
2.9658e-14
1.51366e-14
1e-14
1e-14
2.25063e-13
1.07482e-14
1.53767e-14
1.00576e-14
2.68814e-13
1.08534e-14
1e-14
4.23156e-13
6.42726e-13
2.10546e-14
7.03211e-13
1e-14
4.39526e-13
7.0158e-13
1.87464e-14
6.98957e-13
1e-14
5.56659e-13
7.01917e-13
2.10282e-14
6.42685e-13
1e-14
2.25051e-13
1.18847e-14
1.08525e-14
1.00576e-14
2.68809e-13
1.53753e-14
1.51408e-14
1e-14
1.08445e-14
1e-14
2.96636e-14
1.09385e-14
5.80146e-14
1.00045e-14
1.40376e-14
1.0361e-14
1.01971e-14
1.00161e-14
1.81887e-14
1.12212e-14
5.33192e-13
6.27961e-13
1e-14
2.84886e-13
1.14204e-14
1.14895e-14
1.77994e-13
2.23204e-14
1.2057e-14
2.10063e-13
1e-14
1e-14
1.42894e-14
1.00493e-14
1.01979e-14
2.46972e-14
1.68705e-14
1e-14
7.40192e-13
4.78151e-14
1.0039e-14
3.91215e-14
1.01237e-14
1.27136e-14
1.06796e-14
2.50636e-14
1.25518e-14
2.89653e-13
1.60854e-14
1.37002e-14
3.47128e-13
1.14275e-14
2.70587e-13
2.57049e-13
1.29608e-14
1.25501e-14
3.26334e-13
3.05789e-13
1.14416e-14
2.70775e-13
1.16873e-14
3.05959e-13
1.25514e-14
3.26307e-13
1.29593e-14
1.25635e-14
1.01163e-14
3.47158e-13
1.37051e-14
1.6057e-14
1.28938e-14
1e-14
2.50312e-14
1.06749e-14
1.00388e-14
1e-14
1.01231e-14
3.90808e-14
1e-14
6.91163e-13
4.78722e-14
7.40055e-13
1e-14
1e-14
1.00518e-14
1.68565e-14
1.01953e-14
2.46394e-14
1.00492e-14
1.14982e-14
1.10936e-14
2.10157e-13
1.206e-14
2.22827e-14
1e-14
1.55266e-13
1.14467e-14
2.84683e-13
1.00043e-14
1.41086e-14
1e-14
1.12246e-14
1.00151e-14
1.8175e-14
1.01927e-14
5.33497e-13
6.28125e-13
1.08443e-14
1e-14
5.84718e-14
1.09348e-14
2.95512e-14
1.54088e-14
1e-14
1e-14
2.25165e-13
1.07486e-14
1.53873e-14
1.00558e-14
2.68906e-13
1.08501e-14
1e-14
4.23163e-13
6.42819e-13
2.09039e-14
7.03105e-13
1e-14
4.39588e-13
7.01446e-13
1.86222e-14
6.98826e-13
1e-14
5.56527e-13
7.01823e-13
2.08755e-14
6.42815e-13
1e-14
2.25148e-13
1.18964e-14
1.08493e-14
1.00558e-14
2.6889e-13
1.5387e-14
1.54128e-14
1e-14
1.08445e-14
1e-14
2.95524e-14
1.09351e-14
5.84651e-14
1.00044e-14
1.41116e-14
1.03626e-14
1.01928e-14
1.00154e-14
1.8176e-14
1.12252e-14
5.33523e-13
6.28101e-13
1e-14
2.8467e-13
1.14458e-14
1.1499e-14
1.78083e-13
2.22883e-14
1.20608e-14
2.10156e-13
1e-14
1e-14
1.43348e-14
1.00491e-14
1.01955e-14
2.46354e-14
1.68599e-14
1e-14
7.40104e-13
4.78781e-14
1.00408e-14
3.90895e-14
1.0122e-14
1.29022e-14
1.06754e-14
2.50311e-14
1.25668e-14
2.89852e-13
1.60575e-14
1.37067e-14
3.47181e-13
1.14434e-14
2.70718e-13
2.57196e-13
1.29619e-14
1.25516e-14
3.26328e-13
3.05779e-13
1.14441e-14
2.70706e-13
1.16914e-14
3.05946e-13
1.25624e-14
3.26373e-13
1.29748e-14
1.25703e-14
1.01118e-14
3.4725e-13
1.37326e-14
1.61104e-14
1.29506e-14
1e-14
2.51285e-14
1.06742e-14
1.00393e-14
1e-14
1.01248e-14
3.90423e-14
1e-14
6.90912e-13
4.79156e-14
7.40003e-13
1e-14
1e-14
1.00519e-14
1.68716e-14
1.01943e-14
2.45444e-14
1.00491e-14
1.14996e-14
1.10659e-14
2.10292e-13
1.2064e-14
2.22843e-14
1e-14
1.55077e-13
1.14667e-14
2.84491e-13
1.0004e-14
1.40981e-14
1e-14
1.12266e-14
1.00143e-14
1.81569e-14
1.01891e-14
5.33649e-13
6.28206e-13
1.08397e-14
1e-14
5.88696e-14
1.09281e-14
2.94868e-14
1.54337e-14
1e-14
1e-14
2.25211e-13
1.07474e-14
1.53857e-14
1.00548e-14
2.68904e-13
1.08474e-14
1e-14
4.23051e-13
6.42825e-13
2.08931e-14
7.0312e-13
1e-14
4.39505e-13
7.01414e-13
1.8615e-14
6.98797e-13
1e-14
5.56525e-13
7.01837e-13
2.08675e-14
6.42803e-13
1e-14
2.25191e-13
1.18996e-14
1.08466e-14
1.00546e-14
2.68897e-13
1.53848e-14
1.54406e-14
1e-14
1.08397e-14
1e-14
2.94851e-14
1.0928e-14
5.887e-14
1.0004e-14
1.40991e-14
1.03639e-14
1.0189e-14
1.00144e-14
1.8158e-14
1.12266e-14
5.3356e-13
6.28167e-13
1e-14
2.84472e-13
1.14666e-14
1.14999e-14
1.78126e-13
2.2286e-14
1.20643e-14
2.10299e-13
1e-14
1e-14
1.43471e-14
1.0049e-14
1.01942e-14
2.45453e-14
1.68711e-14
1e-14
7.39979e-13
4.79059e-14
1.00389e-14
3.90411e-14
1.01249e-14
1.29502e-14
1.06753e-14
2.51289e-14
1.25701e-14
2.89816e-13
1.6109e-14
1.37321e-14
3.47232e-13
1.14453e-14
2.70674e-13
2.57179e-13
1.29742e-14
1.25646e-14
3.2637e-13
3.05933e-13
1.14435e-14
2.70523e-13
1.16951e-14
3.05998e-13
1.25864e-14
3.26535e-13
1.30128e-14
1.25822e-14
1.0107e-14
3.47284e-13
1.38167e-14
1.63218e-14
1.30263e-14
1e-14
2.53313e-14
1.06893e-14
1.00372e-14
1e-14
1.01446e-14
3.90698e-14
1e-14
6.90542e-13
4.81904e-14
7.39885e-13
1e-14
1e-14
1.00514e-14
1.69484e-14
1.01926e-14
2.43203e-14
1.00496e-14
1.1498e-14
1.10151e-14
2.10677e-13
1.20721e-14
2.23301e-14
1e-14
1.54686e-13
1.15004e-14
2.84311e-13
1.00036e-14
1.40717e-14
1e-14
1.12314e-14
1.00136e-14
1.81682e-14
1.01856e-14
5.33695e-13
6.28303e-13
1.08309e-14
1e-14
5.94433e-14
1.09225e-14
2.95086e-14
1.54534e-14
1e-14
1e-14
2.25275e-13
1.07459e-14
1.53909e-14
1.00546e-14
2.68891e-13
1.08491e-14
1e-14
4.22988e-13
6.42787e-13
2.1011e-14
7.03131e-13
1e-14
4.39437e-13
7.01395e-13
1.86798e-14
6.98774e-13
1e-14
5.56495e-13
7.01847e-13
2.09858e-14
6.42761e-13
1e-14
2.25255e-13
1.18968e-14
1.08483e-14
1.00544e-14
2.68888e-13
1.53891e-14
1.54566e-14
1e-14
1.08306e-14
1e-14
2.95033e-14
1.09223e-14
5.94405e-14
1.00036e-14
1.40727e-14
1.03664e-14
1.01855e-14
1.00135e-14
1.81693e-14
1.12313e-14
5.33642e-13
6.28267e-13
1e-14
2.84307e-13
1.15004e-14
1.14984e-14
1.78158e-13
2.23295e-14
1.20721e-14
2.10683e-13
1e-14
1e-14
1.43816e-14
1.00495e-14
1.01926e-14
2.43181e-14
1.69503e-14
1e-14
7.39913e-13
4.81998e-14
1.00382e-14
3.90748e-14
1.01441e-14
1.30278e-14
1.06901e-14
2.53319e-14
1.25821e-14
2.89514e-13
1.63216e-14
1.38171e-14
3.47289e-13
1.14447e-14
2.70479e-13
2.57051e-13
1.30127e-14
1.25879e-14
3.26526e-13
3.06019e-13
1.14214e-14
2.6978e-13
1.16804e-14
3.06416e-13
1.26928e-14
3.27298e-13
1.31782e-14
1.26093e-14
1.01054e-14
3.47832e-13
1.40719e-14
1.6994e-14
1.34077e-14
1e-14
2.55853e-14
1.08053e-14
1.00359e-14
1e-14
1.02207e-14
4.0135e-14
1e-14
6.89414e-13
4.92464e-14
7.40476e-13
1e-14
1e-14
1.00504e-14
1.73548e-14
1.0191e-14
2.4713e-14
1.0056e-14
1.14818e-14
1.09199e-14
2.11894e-13
1.21201e-14
2.25395e-14
1e-14
1.53524e-13
1.15423e-14
2.84e-13
1.0003e-14
1.40578e-14
1e-14
1.12502e-14
1.00125e-14
1.83763e-14
1.01859e-14
5.3364e-13
6.29357e-13
1.08058e-14
1e-14
6.1847e-14
1.09599e-14
3.07363e-14
1.54664e-14
1e-14
1e-14
2.25315e-13
1.07405e-14
1.55325e-14
1.00505e-14
2.70016e-13
1.08803e-14
1e-14
4.22594e-13
6.43175e-13
2.16167e-14
7.03095e-13
1e-14
4.39114e-13
7.01436e-13
1.89193e-14
6.9894e-13
1e-14
5.5619e-13
7.01838e-13
2.15961e-14
6.43176e-13
1e-14
2.25289e-13
1.18711e-14
1.08794e-14
1.00504e-14
2.70008e-13
1.55315e-14
1.54693e-14
1e-14
1.08055e-14
1e-14
3.07356e-14
1.09598e-14
6.18417e-14
1.00029e-14
1.40584e-14
1.03703e-14
1.01859e-14
1.00126e-14
1.83747e-14
1.12501e-14
5.33606e-13
6.29361e-13
1e-14
2.83988e-13
1.15421e-14
1.1482e-14
1.7814e-13
2.25394e-14
1.21205e-14
2.11888e-13
1e-14
1e-14
1.45238e-14
1.0056e-14
1.01911e-14
2.471e-14
1.7356e-14
1e-14
7.40477e-13
4.92521e-14
1.00352e-14
4.01376e-14
1.02201e-14
1.34077e-14
1.08052e-14
2.55871e-14
1.26101e-14
2.8843e-13
1.69949e-14
1.40729e-14
3.47835e-13
1.14224e-14
2.69761e-13
2.56268e-13
1.3179e-14
1.26942e-14
3.273e-13
3.06396e-13
1.08284e-14
2.64749e-13
1.10506e-14
3.77098e-13
1.38029e-14
3.93903e-13
1.45413e-14
1.2475e-14
1.00665e-14
4.16668e-13
1.47814e-14
1.83419e-14
1.36813e-14
1e-14
3.1538e-14
1.41465e-14
1e-14
1e-14
1.12175e-14
3.47851e-14
1e-14
6.89859e-13
8.99217e-14
7.16319e-13
1e-14
1e-14