/*--------------------------------*- C++ -*----------------------------------*\
| =========                 |                                                 |
| \\      /  F ield         | OpenFOAM: The Open Source CFD Toolbox           |
|  \\    /   O peration     | Version:  2.1.1                                 |
|   \\  /    A nd           | Web:      www.OpenFOAM.org                      |
|    \\/     M anipulation  |                                                 |
\*---------------------------------------------------------------------------*/
FoamFile
{
    version     2.0;
    format      ascii;
    class       volScalarField;
    location    "0.01";
    object      p;
}
// * * * * * * * * * * * * * * * * * * * * * * * * * * * * * * * * * * * * * //

dimensions      [0 2 -2 0 0 0 0];

internalField   nonuniform List<scalar> 
163952
(
0.0452195
0.0446432
0.039907
0.0347123
0.0335155
0.0309042
0.0303142
0.0299906
0.0402271
0.035885
0.0308436
0.028354
0.0271106
0.0263319
0.0260177
0.0258766
0.0372582
0.0315214
0.0280179
0.0263786
0.0254664
0.0249289
0.0245905
0.0244104
0.024325
0.0371279
0.0296293
0.0267953
0.0254492
0.0246943
0.0242161
0.0238969
0.0236856
0.0235597
0.0234964
0.0371291
0.0290873
0.0262711
0.0249935
0.0242793
0.0238161
0.0234927
0.0232624
0.0231033
0.0230031
0.0229509
0.0372584
0.0296293
0.0262711
0.02485
0.0240882
0.0236002
0.0232555
0.0230022
0.0228162
0.0226846
0.0225994
0.0225542
0.0402268
0.0315213
0.0267952
0.0249935
0.0240882
0.0235307
0.0231433
0.0228574
0.0226425
0.0224826
0.0223682
0.0222931
0.0222529
0.035885
0.0280179
0.0254491
0.0242792
0.0236002
0.0231433
0.0228107
0.0225599
0.0223694
0.0222268
0.0221243
0.0220565
0.02202
0.0399071
0.0308436
0.0263786
0.0246943
0.0238161
0.0232555
0.0228574
0.0225599
0.0223328
0.0221594
0.0220292
0.0219351
0.0218727
0.0218389
0.0347124
0.028354
0.0254664
0.024216
0.0234927
0.0230022
0.0226425
0.0223694
0.0221594
0.0219984
0.021877
0.0217892
0.0217307
0.021699
0.0335156
0.0271106
0.0249288
0.0238969
0.0232624
0.0228162
0.0224826
0.0222268
0.0220292
0.021877
0.0217621
0.0216786
0.021623
0.0215928
0.0309042
0.0263319
0.0245905
0.0236856
0.0231033
0.0226846
0.0223682
0.0221243
0.0219351
0.0217892
0.0216786
0.0215983
0.0215447
0.0215155
0.0452195
0.0303142
0.0260177
0.0244104
0.0235597
0.0230031
0.0225994
0.0222931
0.0220565
0.0218727
0.0217307
0.021623
0.0215447
0.0214923
0.0214639
0.0446432
0.0299906
0.0258766
0.024325
0.0234964
0.0229509
0.0225542
0.0222529
0.02202
0.0218389
0.021699
0.0215928
0.0215155
0.0214639
0.0214358
0.0270456
0.0271024
0.0260402
0.0272494
0.0259802
0.0256662
0.0256215
0.0256007
0.0261449
0.0279587
0.0256459
0.0253339
0.0250737
0.0248831
0.0248086
0.024757
0.026923
0.0256976
0.0252801
0.0248687
0.0245283
0.0242501
0.0240656
0.0239698
0.0239205
0.0256671
0.0253771
0.0249404
0.0244997
0.0241075
0.0237968
0.0235611
0.0234018
0.0233099
0.0232657
0.0256678
0.0252479
0.0247564
0.0242532
0.0238269
0.0234851
0.0232262
0.0230355
0.0229041
0.0228242
0.0227858
0.0269231
0.0253773
0.0247564
0.0241733
0.0236852
0.0233081
0.0230196
0.0228025
0.0226423
0.0225305
0.0224605
0.0224267
0.026145
0.0256977
0.0249404
0.0242532
0.0236852
0.0232496
0.0229211
0.0226715
0.022483
0.0223433
0.0222448
0.0221823
0.0221519
0.0279586
0.0252802
0.0244997
0.0238269
0.0233081
0.0229211
0.0226292
0.022407
0.0222383
0.0221128
0.0220237
0.0219668
0.021939
0.0260402
0.0256459
0.0248687
0.0241075
0.0234851
0.0230196
0.0226715
0.022407
0.0222043
0.0220497
0.0219342
0.0218519
0.0217991
0.0217732
0.0272494
0.0253339
0.0245283
0.0237968
0.0232262
0.0228025
0.022483
0.0222383
0.0220497
0.0219052
0.0217969
0.0217195
0.0216696
0.0216452
0.0259802
0.0250736
0.0242501
0.0235611
0.0230355
0.0226423
0.0223433
0.0221127
0.0219342
0.0217969
0.0216937
0.0216198
0.0215721
0.0215487
0.0256662
0.0248831
0.0240656
0.0234018
0.0229041
0.0225305
0.0222448
0.0220237
0.0218519
0.0217195
0.0216198
0.0215483
0.0215021
0.0214794
0.0270456
0.0256215
0.0248086
0.0239698
0.0233099
0.0228241
0.0224605
0.0221823
0.0219667
0.0217991
0.0216696
0.0215721
0.0215021
0.0214569
0.0214347
0.0271024
0.0256007
0.0247569
0.0239205
0.0232657
0.0227858
0.0224266
0.0221519
0.021939
0.0217732
0.0216452
0.0215487
0.0214794
0.0214347
0.0214127
0.0234017
0.023416
0.0234807
0.0238625
0.0240856
0.02397
0.0238626
0.023822
0.0234875
0.0243311
0.0238807
0.0238029
0.0237084
0.0236699
0.0236408
0.0236155
0.0236978
0.0238945
0.0237945
0.0236744
0.0235382
0.0233941
0.0233032
0.0232485
0.0232182
0.0240444
0.0238277
0.0237031
0.0235238
0.0233326
0.0231674
0.0230281
0.0229285
0.0228665
0.0228354
0.0240451
0.0237826
0.0236303
0.0234094
0.0231854
0.0229836
0.0228182
0.0226875
0.0225933
0.0225337
0.0225043
0.0236978
0.0238279
0.0236302
0.0233717
0.0231068
0.0228742
0.0226786
0.0225212
0.0223991
0.0223112
0.0222549
0.0222273
0.0234875
0.0238946
0.0237032
0.0234095
0.0231068
0.0228369
0.0226096
0.0224233
0.0222751
0.0221614
0.0220794
0.0220266
0.0220007
0.0243311
0.0237945
0.0235239
0.0231854
0.0228742
0.0226096
0.0223911
0.0222143
0.0220749
0.0219684
0.0218916
0.021842
0.0218176
0.0234807
0.0238807
0.0236744
0.0233326
0.0229836
0.0226786
0.0224233
0.0222143
0.0220466
0.0219146
0.021814
0.0217414
0.0216943
0.0216712
0.0238625
0.0238029
0.0235382
0.0231674
0.0228182
0.0225212
0.0222751
0.0220749
0.0219146
0.0217886
0.0216926
0.0216232
0.0215783
0.0215561
0.0240856
0.0237084
0.0233941
0.0230281
0.0226875
0.0223991
0.0221614
0.0219684
0.021814
0.0216926
0.0216
0.0215331
0.0214897
0.0214683
0.0239699
0.0236699
0.0233032
0.0229285
0.0225933
0.0223112
0.0220794
0.0218916
0.0217414
0.0216232
0.0215331
0.021468
0.0214257
0.0214048
0.0234017
0.0238626
0.0236408
0.0232485
0.0228665
0.0225337
0.0222549
0.0220266
0.021842
0.0216943
0.0215782
0.0214897
0.0214257
0.021384
0.0213636
0.023416
0.023822
0.0236155
0.0232182
0.0228354
0.0225043
0.0222273
0.0220007
0.0218176
0.0216712
0.0215561
0.0214683
0.0214048
0.0213636
0.0213432
0.0220541
0.0220644
0.0221712
0.0223981
0.0227284
0.0227279
0.0226755
0.0226535
0.0221861
0.0226117
0.0226512
0.0226388
0.0226098
0.0226115
0.0226105
0.0226071
0.0223269
0.0226551
0.0226427
0.0226361
0.0226079
0.0225567
0.0225214
0.0224964
0.0224824
0.0227585
0.0226585
0.0226528
0.0226033
0.0225379
0.0224745
0.0224124
0.0223631
0.0223288
0.0223107
0.0227591
0.0226389
0.0226344
0.0225723
0.0224839
0.0223915
0.0223066
0.0222328
0.0221763
0.0221386
0.0221194
0.0223269
0.0226586
0.0226344
0.0225611
0.0224536
0.0223387
0.0222295
0.0221334
0.0220538
0.0219939
0.0219543
0.0219345
0.0221862
0.0226551
0.0226529
0.0225723
0.0224537
0.0223202
0.0221895
0.0220711
0.0219704
0.0218892
0.0218287
0.0217888
0.021769
0.0226117
0.0226428
0.0226033
0.0224839
0.0223387
0.0221895
0.0220502
0.021928
0.0218262
0.0217455
0.0216857
0.0216463
0.0216268
0.0221712
0.0226512
0.0226361
0.0225379
0.0223915
0.0222295
0.0220711
0.021928
0.0218052
0.0217041
0.0216246
0.021566
0.0215274
0.0215084
0.0223981
0.0226388
0.0226079
0.0224745
0.0223066
0.0221334
0.0219704
0.0218262
0.0217041
0.0216044
0.0215263
0.0214689
0.0214312
0.0214125
0.0227284
0.0226098
0.0225567
0.0224124
0.0222328
0.0220538
0.0218892
0.0217455
0.0216246
0.0215263
0.0214496
0.0213932
0.0213563
0.021338
0.0227279
0.0226115
0.0225214
0.0223631
0.0221763
0.0219939
0.0218287
0.0216857
0.021566
0.0214689
0.0213932
0.0213377
0.0213013
0.0212833
0.0220541
0.0226755
0.0226105
0.0224964
0.0223288
0.0221385
0.0219543
0.0217888
0.0216463
0.0215274
0.0214312
0.0213563
0.0213013
0.0212653
0.0212475
0.0220644
0.0226535
0.0226071
0.0224823
0.0223107
0.0221194
0.0219345
0.021769
0.0216268
0.0215083
0.0214125
0.021338
0.0212833
0.0212475
0.0212298
0.0213357
0.0213438
0.0213967
0.0215452
0.0217608
0.0218041
0.0217944
0.0217928
0.0214216
0.0216537
0.0217607
0.0217797
0.0217853
0.0217978
0.0218063
0.021811
0.0215114
0.0217621
0.0217883
0.0218217
0.0218406
0.0218407
0.0218382
0.0218326
0.0218286
0.021795
0.0217841
0.0218282
0.0218422
0.0218434
0.0218368
0.0218223
0.0218069
0.0217936
0.0217859
0.0217953
0.0217789
0.0218353
0.0218517
0.0218405
0.0218166
0.0217863
0.0217544
0.0217273
0.0217078
0.0216975
0.0215114
0.0217842
0.0218353
0.0218545
0.021838
0.0218005
0.0217542
0.0217066
0.021663
0.021628
0.0216039
0.0215915
0.0214217
0.0217622
0.0218283
0.0218517
0.0218381
0.0217947
0.0217361
0.0216736
0.0216148
0.0215641
0.0215246
0.0214978
0.0214843
0.0216537
0.0217883
0.0218422
0.0218405
0.0218005
0.0217361
0.0216621
0.0215892
0.0215236
0.0214689
0.0214269
0.0213987
0.0213845
0.0213967
0.0217606
0.0218217
0.0218434
0.0218166
0.0217542
0.0216736
0.0215892
0.0215098
0.0214403
0.0213833
0.0213401
0.0213112
0.0212967
0.0215452
0.0217797
0.0218406
0.0218367
0.0217863
0.0217066
0.0216148
0.0215236
0.0214403
0.0213687
0.0213105
0.0212668
0.0212376
0.021223
0.0217608
0.0217852
0.0218407
0.0218222
0.0217544
0.021663
0.0215641
0.0214689
0.0213833
0.0213105
0.0212519
0.0212079
0.0211787
0.0211641
0.0218041
0.0217978
0.0218382
0.0218069
0.0217273
0.021628
0.0215246
0.0214269
0.0213401
0.0212668
0.0212079
0.0211639
0.0211347
0.0211201
0.0213357
0.0217944
0.0218063
0.0218326
0.0217936
0.0217078
0.0216039
0.0214978
0.0213986
0.0213112
0.0212375
0.0211787
0.0211347
0.0211054
0.0210909
0.0213438
0.0217927
0.021811
0.0218286
0.0217859
0.0216975
0.0215915
0.0214843
0.0213845
0.0212967
0.021223
0.0211641
0.0211201
0.0210909
0.0210764
0.0208254
0.020832
0.0208447
0.0209374
0.0210616
0.0211114
0.0211163
0.0211222
0.0208668
0.0210105
0.0210909
0.0211215
0.0211428
0.0211622
0.021173
0.0211792
0.0209217
0.0210915
0.0211325
0.0211766
0.021211
0.0212323
0.0212468
0.0212531
0.0212552
0.0210927
0.0211186
0.0211766
0.0212157
0.0212459
0.0212668
0.0212781
0.0212834
0.0212843
0.0212839
0.021093
0.0211229
0.0211935
0.0212404
0.0212675
0.021282
0.0212858
0.0212825
0.0212766
0.021271
0.0212676
0.0209217
0.0211187
0.0211935
0.0212492
0.0212787
0.021288
0.0212841
0.0212719
0.0212562
0.0212414
0.0212303
0.0212243
0.0208669
0.0210915
0.0211766
0.0212404
0.0212788
0.0212899
0.0212813
0.0212612
0.0212363
0.0212113
0.0211902
0.0211751
0.0211672
0.0210105
0.0211325
0.0212157
0.0212675
0.021288
0.0212813
0.0212571
0.0212244
0.0211901
0.0211587
0.0211332
0.0211155
0.0211064
0.0208446
0.0210909
0.0211766
0.0212458
0.021282
0.0212841
0.0212612
0.0212244
0.0211825
0.0211418
0.021106
0.0210776
0.0210582
0.0210483
0.0209374
0.0211215
0.021211
0.0212668
0.0212858
0.0212719
0.0212363
0.0211901
0.0211417
0.0210966
0.0210579
0.0210277
0.0210072
0.0209968
0.0210616
0.0211427
0.0212323
0.0212781
0.0212824
0.0212562
0.0212113
0.0211587
0.021106
0.0210579
0.0210174
0.020986
0.0209648
0.0209541
0.0211114
0.0211622
0.0212468
0.0212834
0.0212766
0.0212414
0.0211902
0.0211332
0.0210776
0.0210277
0.020986
0.020954
0.0209323
0.0209214
0.0208254
0.0211163
0.021173
0.0212531
0.0212843
0.021271
0.0212302
0.0211751
0.0211155
0.0210582
0.0210072
0.0209648
0.0209323
0.0209103
0.0208993
0.020832
0.0211222
0.0211791
0.0212552
0.0212839
0.0212676
0.0212242
0.0211672
0.0211064
0.0210483
0.0209968
0.020954
0.0209214
0.0208993
0.0208882
0.0203929
0.0204003
0.0203934
0.020453
0.0205184
0.0205634
0.020572
0.0205795
0.0204114
0.0205121
0.0205567
0.0205872
0.0206119
0.0206346
0.0206469
0.0206537
0.0204457
0.0205571
0.0205994
0.020643
0.0206797
0.0207071
0.0207286
0.020741
0.0207467
0.0205456
0.0205823
0.0206399
0.0206858
0.0207261
0.020759
0.0207829
0.0207995
0.0208089
0.0208131
0.0205458
0.0205898
0.0206584
0.0207143
0.0207581
0.0207924
0.0208162
0.0208308
0.0208393
0.0208435
0.0208451
0.0204457
0.0205823
0.0206584
0.0207246
0.0207753
0.020811
0.0208338
0.0208458
0.0208502
0.0208507
0.0208496
0.0208487
0.0204114
0.0205571
0.0206399
0.0207143
0.0207753
0.0208173
0.0208412
0.0208511
0.0208516
0.020847
0.0208408
0.0208354
0.0208323
0.0205121
0.0205994
0.0206858
0.0207581
0.020811
0.0208412
0.0208523
0.0208505
0.0208413
0.0208295
0.0208181
0.0208096
0.020805
0.0203933
0.0205567
0.020643
0.0207261
0.0207924
0.0208338
0.0208511
0.0208505
0.0208389
0.0208224
0.0208051
0.0207901
0.0207792
0.0207735
0.0204529
0.0205872
0.0206797
0.0207589
0.0208162
0.0208458
0.0208516
0.0208413
0.0208224
0.0208003
0.0207792
0.0207616
0.020749
0.0207426
0.0205184
0.0206119
0.0207071
0.0207829
0.0208308
0.0208502
0.0208469
0.0208295
0.0208051
0.0207792
0.0207554
0.0207359
0.0207223
0.0207153
0.0205634
0.0206346
0.0207286
0.0207995
0.0208393
0.0208507
0.0208407
0.0208181
0.0207901
0.0207616
0.0207359
0.0207153
0.0207009
0.0206935
0.0203928
0.020572
0.0206468
0.020741
0.0208089
0.0208435
0.0208496
0.0208354
0.0208095
0.0207792
0.020749
0.0207223
0.0207009
0.0206861
0.0206785
0.0204003
0.0205795
0.0206536
0.0207467
0.0208131
0.0208451
0.0208487
0.0208323
0.020805
0.0207735
0.0207426
0.0207153
0.0206935
0.0206785
0.0206708
0.0200062
0.020014
0.0200037
0.0200425
0.0200722
0.0201087
0.0201174
0.0201246
0.0200171
0.0200934
0.0201106
0.0201364
0.0201588
0.0201809
0.0201932
0.0202002
0.02004
0.0201112
0.0201487
0.0201876
0.0202215
0.0202487
0.0202715
0.0202861
0.0202933
0.0200954
0.0201317
0.0201833
0.0202281
0.0202696
0.0203061
0.0203351
0.0203571
0.020371
0.0203777
0.0200955
0.0201392
0.0202003
0.0202555
0.0203047
0.0203476
0.0203818
0.0204069
0.0204242
0.0204347
0.0204396
0.02004
0.0201317
0.0202002
0.0202656
0.0203238
0.0203726
0.0204107
0.0204379
0.0204558
0.020467
0.0204732
0.0204759
0.0200171
0.0201111
0.0201833
0.0202555
0.0203238
0.0203811
0.0204244
0.0204539
0.0204722
0.0204825
0.0204876
0.0204898
0.0204905
0.0200933
0.0201487
0.0202281
0.0203047
0.0203726
0.0204244
0.0204588
0.0204789
0.0204887
0.0204921
0.0204921
0.020491
0.0204902
0.0200037
0.0201106
0.0201875
0.0202696
0.0203476
0.0204107
0.0204539
0.0204789
0.0204903
0.0204929
0.0204907
0.0204868
0.0204832
0.0204811
0.0200425
0.0201364
0.0202215
0.0203061
0.0203818
0.0204379
0.0204722
0.0204887
0.0204929
0.0204898
0.0204834
0.0204766
0.0204711
0.0204681
0.0200721
0.0201588
0.0202486
0.0203351
0.0204069
0.0204558
0.0204824
0.0204921
0.0204907
0.0204834
0.020474
0.020465
0.0204582
0.0204546
0.0201086
0.0201808
0.0202715
0.0203571
0.0204242
0.020467
0.0204876
0.0204921
0.0204868
0.0204766
0.020465
0.0204546
0.0204469
0.0204428
0.0200062
0.0201174
0.0201932
0.020286
0.020371
0.0204346
0.0204732
0.0204898
0.020491
0.0204832
0.0204711
0.0204582
0.0204469
0.0204385
0.0204342
0.020014
0.0201245
0.0202002
0.0202933
0.0203777
0.0204395
0.0204759
0.0204905
0.0204902
0.0204811
0.0204681
0.0204546
0.0204428
0.0204342
0.0204297
0.0196588
0.019666
0.0196587
0.0196841
0.019692
0.0197197
0.0197271
0.0197329
0.0196687
0.0197282
0.0197264
0.0197466
0.0197649
0.019784
0.0197951
0.0198015
0.0196851
0.0197274
0.0197583
0.0197908
0.0198201
0.0198444
0.0198658
0.0198802
0.0198876
0.0197123
0.0197435
0.0197868
0.0198267
0.0198653
0.0199008
0.0199306
0.0199542
0.0199699
0.0199777
0.0197124
0.0197501
0.0198013
0.0198514
0.0198996
0.0199445
0.0199827
0.0200128
0.0200348
0.0200489
0.0200558
0.0196851
0.0197435
0.0198013
0.0198605
0.0199184
0.0199718
0.0200173
0.0200529
0.020079
0.020097
0.020108
0.0201132
0.0196687
0.0197274
0.0197868
0.0198513
0.0199184
0.0199812
0.0200343
0.0200755
0.0201052
0.0201255
0.0201386
0.0201462
0.0201497
0.0197282
0.0197583
0.0198267
0.0198996
0.0199718
0.0200343
0.0200827
0.0201171
0.0201401
0.0201546
0.0201631
0.0201678
0.0201698
0.0196587
0.0197264
0.0197908
0.0198653
0.0199444
0.0200173
0.0200755
0.0201171
0.0201445
0.0201612
0.0201706
0.0201755
0.0201776
0.0201785
0.0196841
0.0197466
0.01982
0.0199008
0.0199827
0.0200529
0.0201052
0.0201401
0.0201612
0.0201727
0.020178
0.0201799
0.0201802
0.0201801
0.0196919
0.0197649
0.0198444
0.0199306
0.0200128
0.020079
0.0201255
0.0201545
0.0201706
0.020178
0.0201803
0.02018
0.0201789
0.0201781
0.0197197
0.0197839
0.0198658
0.0199542
0.0200348
0.0200969
0.0201385
0.0201631
0.0201754
0.0201799
0.02018
0.0201782
0.0201761
0.0201748
0.0196587
0.019727
0.019795
0.0198802
0.0199698
0.0200489
0.0201079
0.0201462
0.0201677
0.0201776
0.0201802
0.0201789
0.0201761
0.0201734
0.0201718
0.0196659
0.0197328
0.0198014
0.0198876
0.0199776
0.0200557
0.0201132
0.0201497
0.0201698
0.0201784
0.0201801
0.0201781
0.0201748
0.0201718
0.02017
0.0193472
0.0193531
0.0193499
0.0193664
0.0193599
0.0193802
0.0193855
0.0193897
0.0193577
0.0194043
0.019389
0.0194038
0.0194179
0.019433
0.019442
0.0194474
0.01937
0.0193907
0.0194146
0.0194405
0.0194644
0.0194849
0.0195035
0.0195164
0.0195233
0.0193784
0.0194031
0.0194376
0.019471
0.0195046
0.0195368
0.0195647
0.0195876
0.0196032
0.0196111
0.0193785
0.0194086
0.0194497
0.0194923
0.0195361
0.0195788
0.019617
0.0196484
0.0196721
0.0196878
0.0196955
0.01937
0.0194031
0.0194496
0.0195002
0.0195536
0.0196061
0.0196534
0.0196925
0.0197227
0.0197443
0.0197581
0.0197647
0.0193577
0.0193907
0.0194376
0.0194923
0.0195535
0.0196155
0.0196717
0.0197184
0.0197545
0.0197808
0.0197989
0.01981
0.0198154
0.0194042
0.0194146
0.019471
0.019536
0.019606
0.0196717
0.0197268
0.0197695
0.0198008
0.0198225
0.0198369
0.0198455
0.0198496
0.0193499
0.019389
0.0194404
0.0195046
0.0195788
0.0196533
0.0197184
0.0197695
0.0198071
0.0198332
0.0198507
0.0198619
0.0198683
0.0198713
0.0193663
0.0194038
0.0194643
0.0195367
0.019617
0.0196925
0.0197544
0.0198008
0.0198332
0.019855
0.0198689
0.0198773
0.0198821
0.0198842
0.0193599
0.0194178
0.0194849
0.0195647
0.0196484
0.0197226
0.0197808
0.0198225
0.0198507
0.0198689
0.01988
0.0198864
0.0198898
0.0198912
0.0193802
0.019433
0.0195035
0.0195875
0.0196721
0.0197443
0.0197988
0.0198369
0.0198618
0.0198773
0.0198864
0.0198913
0.0198937
0.0198947
0.019347
0.0193854
0.019442
0.0195164
0.0196031
0.0196877
0.019758
0.01981
0.0198455
0.0198683
0.019882
0.0198898
0.0198937
0.0198955
0.0198962
0.0193529
0.0193897
0.0194474
0.0195232
0.0196111
0.0196955
0.0197647
0.0198154
0.0198496
0.0198713
0.0198841
0.0198912
0.0198947
0.0198962
0.0198967
0.0190666
0.0190712
0.0190717
0.0190824
0.0190652
0.0190793
0.0190825
0.0190854
0.019078
0.0191139
0.0190888
0.019099
0.019109
0.0191203
0.019127
0.0191311
0.0190876
0.0190914
0.0191088
0.0191283
0.0191469
0.0191633
0.0191785
0.0191893
0.0191952
0.0190826
0.019101
0.0191271
0.0191535
0.0191813
0.0192088
0.0192334
0.019254
0.0192683
0.0192758
0.0190827
0.0191054
0.0191369
0.0191715
0.0192089
0.0192471
0.0192826
0.0193126
0.0193358
0.0193515
0.0193593
0.0190876
0.019101
0.0191369
0.0191782
0.0192245
0.0192726
0.0193179
0.0193569
0.0193879
0.0194107
0.0194256
0.0194329
0.019078
0.0190914
0.0191271
0.0191714
0.0192245
0.0192816
0.0193362
0.0193836
0.0194219
0.0194509
0.0194716
0.0194847
0.019491
0.0191139
0.0191088
0.0191535
0.0192089
0.0192726
0.0193362
0.0193925
0.0194385
0.0194738
0.0194996
0.0195175
0.0195286
0.0195339
0.0190716
0.0190888
0.0191283
0.0191812
0.0192471
0.0193179
0.0193836
0.0194384
0.0194811
0.0195128
0.0195353
0.0195504
0.0195597
0.0195642
0.0190823
0.019099
0.0191469
0.0192087
0.0192826
0.0193568
0.0194219
0.0194738
0.0195128
0.0195409
0.0195604
0.0195733
0.0195812
0.0195848
0.0190651
0.019109
0.0191633
0.0192334
0.0193125
0.0193878
0.0194509
0.0194996
0.0195353
0.0195604
0.0195776
0.0195887
0.0195954
0.0195985
0.0190792
0.0191202
0.0191785
0.019254
0.0193358
0.0194107
0.0194715
0.0195174
0.0195504
0.0195733
0.0195887
0.0195986
0.0196044
0.019607
0.0190664
0.0190824
0.0191269
0.0191893
0.0192683
0.0193514
0.0194256
0.0194846
0.0195285
0.0195597
0.0195811
0.0195954
0.0196044
0.0196096
0.019612
0.019071
0.0190853
0.0191311
0.0191952
0.0192757
0.0193593
0.0194329
0.019491
0.0195339
0.0195642
0.0195848
0.0195984
0.019607
0.019612
0.0196142
0.0188117
0.0188151
0.0188184
0.018826
0.0187998
0.0188091
0.0188105
0.0188123
0.018824
0.018851
0.0188188
0.0188252
0.0188318
0.0188395
0.018844
0.018847
0.0188316
0.0188224
0.0188343
0.0188482
0.0188618
0.018874
0.0188857
0.0188942
0.018899
0.018817
0.01883
0.0188488
0.0188685
0.0188902
0.0189124
0.0189328
0.0189503
0.0189627
0.0189691
0.0188171
0.0188336
0.0188568
0.0188833
0.0189137
0.0189459
0.0189768
0.0190036
0.0190248
0.0190393
0.0190466
0.0188316
0.01883
0.0188567
0.0188889
0.0189271
0.0189687
0.0190093
0.0190453
0.0190747
0.0190968
0.0191114
0.0191187
0.018824
0.0188224
0.0188488
0.0188833
0.0189271
0.0189768
0.0190263
0.019071
0.0191083
0.0191374
0.0191585
0.0191721
0.0191788
0.018851
0.0188343
0.0188685
0.0189137
0.0189687
0.0190263
0.0190797
0.0191249
0.019161
0.0191881
0.0192074
0.0192196
0.0192256
0.0188183
0.0188187
0.0188481
0.0188902
0.0189459
0.0190092
0.019071
0.0191249
0.0191687
0.0192024
0.0192272
0.0192444
0.0192553
0.0192605
0.0188259
0.0188252
0.0188617
0.0189124
0.0189768
0.0190453
0.0191083
0.019161
0.0192024
0.0192335
0.0192561
0.0192716
0.0192812
0.0192859
0.0187997
0.0188317
0.018874
0.0189328
0.0190036
0.0190747
0.0191373
0.0191881
0.0192272
0.0192561
0.0192767
0.0192908
0.0192996
0.0193037
0.018809
0.0188394
0.0188857
0.0189502
0.0190248
0.0190968
0.0191584
0.0192074
0.0192444
0.0192716
0.0192908
0.0193039
0.0193119
0.0193157
0.0188116
0.0188105
0.0188439
0.0188942
0.0189626
0.0190392
0.0191114
0.0191721
0.0192196
0.0192553
0.0192812
0.0192995
0.0193119
0.0193194
0.019323
0.0188149
0.0188123
0.0188469
0.0188989
0.0189691
0.0190465
0.0191187
0.0191788
0.0192256
0.0192605
0.0192859
0.0193037
0.0193157
0.019323
0.0193265
0.018577
0.0185793
0.0185847
0.0185898
0.0185573
0.0185631
0.018563
0.018564
0.0185903
0.0186101
0.0185729
0.0185763
0.01858
0.0185847
0.0185872
0.0185892
0.0185965
0.0185777
0.0185851
0.0185941
0.0186032
0.0186117
0.01862
0.0186261
0.0186296
0.0185754
0.0185841
0.0185968
0.0186104
0.0186262
0.018643
0.0186589
0.0186727
0.0186826
0.0186879
0.0185754
0.0185871
0.0186033
0.0186226
0.0186457
0.0186712
0.0186964
0.0187188
0.0187369
0.0187493
0.0187557
0.0185965
0.0185841
0.0186033
0.0186272
0.0186569
0.0186907
0.0187248
0.018756
0.018782
0.018802
0.0188153
0.018822
0.0185903
0.0185777
0.0185967
0.0186225
0.0186569
0.0186977
0.0187399
0.0187794
0.0188132
0.0188402
0.0188601
0.0188732
0.0188797
0.01861
0.018585
0.0186104
0.0186456
0.0186907
0.0187399
0.0187873
0.0188288
0.0188629
0.0188892
0.0189082
0.0189204
0.0189265
0.0185846
0.0185728
0.018594
0.0186261
0.0186711
0.0187248
0.0187793
0.0188288
0.0188704
0.0189033
0.0189282
0.018946
0.0189573
0.0189628
0.0185897
0.0185763
0.0186032
0.0186429
0.0186963
0.0187559
0.0188132
0.0188629
0.0189033
0.0189348
0.0189582
0.0189746
0.0189851
0.0189902
0.0185572
0.0185799
0.0186116
0.0186588
0.0187188
0.018782
0.0188401
0.0188892
0.0189282
0.0189582
0.0189802
0.0189957
0.0190055
0.0190102
0.018563
0.0185847
0.01862
0.0186726
0.0187368
0.0188019
0.0188601
0.0189081
0.0189459
0.0189746
0.0189957
0.0190103
0.0190196
0.0190241
0.0185769
0.0185629
0.0185871
0.0186261
0.0186826
0.0187493
0.0188153
0.0188732
0.0189204
0.0189573
0.0189851
0.0190055
0.0190196
0.0190285
0.0190328
0.0185792
0.0185639
0.0185891
0.0186296
0.0186878
0.0187557
0.018822
0.0188796
0.0189264
0.0189628
0.0189902
0.0190102
0.0190241
0.0190328
0.019037
0.0183568
0.0183585
0.0183656
0.0183686
0.0183322
0.0183354
0.0183338
0.0183342
0.0183717
0.018386
0.0183455
0.0183466
0.0183479
0.0183501
0.0183508
0.018352
0.0183772
0.0183518
0.0183554
0.0183604
0.0183657
0.0183706
0.0183758
0.0183795
0.0183819
0.0183533
0.018358
0.0183654
0.0183736
0.0183838
0.0183953
0.0184065
0.0184165
0.0184238
0.0184277
0.0183533
0.0183607
0.0183711
0.0183836
0.0183996
0.0184181
0.0184371
0.0184545
0.0184688
0.0184788
0.018484
0.0183771
0.0183579
0.018371
0.0183874
0.0184088
0.0184342
0.0184609
0.018486
0.0185075
0.0185243
0.0185357
0.0185414
0.0183716
0.0183517
0.0183653
0.0183836
0.0184088
0.01844
0.0184737
0.0185062
0.0185349
0.0185583
0.018576
0.0185877
0.0185935
0.0183859
0.0183553
0.0183735
0.0183995
0.0184342
0.0184737
0.0185131
0.0185488
0.0185789
0.0186027
0.0186202
0.0186317
0.0186373
0.0183655
0.0183454
0.0183603
0.0183837
0.018418
0.0184608
0.0185062
0.0185488
0.0185858
0.018616
0.0186393
0.0186562
0.0186671
0.0186725
0.0183685
0.0183466
0.0183656
0.0183952
0.0184371
0.0184859
0.0185349
0.0185789
0.018616
0.0186455
0.0186681
0.0186843
0.0186947
0.0186999
0.0183321
0.0183478
0.0183705
0.0184064
0.0184544
0.0185075
0.0185583
0.0186027
0.0186393
0.0186681
0.0186899
0.0187054
0.0187154
0.0187203
0.0183353
0.0183501
0.0183757
0.0184164
0.0184687
0.0185243
0.0185759
0.0186202
0.0186562
0.0186843
0.0187054
0.0187205
0.0187301
0.0187348
0.0183567
0.0183337
0.0183508
0.0183795
0.0184237
0.0184787
0.0185356
0.0185876
0.0186316
0.0186671
0.0186947
0.0187154
0.0187301
0.0187395
0.0187441
0.0183584
0.0183342
0.0183519
0.0183819
0.0184277
0.0184839
0.0185414
0.0185935
0.0186373
0.0186725
0.0186998
0.0187203
0.0187348
0.0187441
0.0187487
0.0181463
0.0181476
0.0181565
0.0181579
0.0181196
0.0181209
0.0181176
0.0181178
0.0181633
0.0181738
0.0181317
0.0181309
0.0181299
0.0181301
0.0181291
0.0181295
0.0181689
0.0181396
0.0181402
0.0181416
0.0181433
0.018145
0.0181472
0.0181487
0.01815
0.018147
0.0181467
0.0181493
0.0181525
0.0181573
0.0181636
0.0181702
0.0181764
0.018181
0.0181837
0.018147
0.0181496
0.0181546
0.0181608
0.0181698
0.0181813
0.018194
0.0182061
0.0182163
0.0182237
0.0182275
0.0181688
0.0181466
0.0181545
0.018164
0.0181772
0.018194
0.0182129
0.0182314
0.0182478
0.0182609
0.01827
0.0182746
0.0181632
0.0181394
0.0181492
0.0181607
0.0181771
0.0181987
0.0182232
0.018248
0.0182707
0.0182897
0.0183043
0.0183142
0.0183191
0.0181737
0.01814
0.0181524
0.0181697
0.018194
0.0182232
0.0182538
0.0182825
0.0183075
0.0183277
0.0183429
0.018353
0.018358
0.0181563
0.0181316
0.0181415
0.0181572
0.0181812
0.0182128
0.018248
0.0182825
0.0183135
0.0183395
0.0183601
0.0183753
0.0183853
0.0183903
0.0181578
0.0181308
0.0181432
0.0181635
0.0181939
0.0182314
0.0182706
0.0183075
0.0183395
0.0183658
0.0183863
0.0184013
0.0184111
0.018416
0.0181195
0.0181298
0.0181449
0.0181701
0.018206
0.0182478
0.0182897
0.0183277
0.0183601
0.0183863
0.0184066
0.0184213
0.0184309
0.0184357
0.0181209
0.01813
0.0181471
0.0181763
0.0182163
0.0182609
0.0183043
0.0183429
0.0183753
0.0184013
0.0184213
0.0184358
0.0184453
0.0184499
0.0181462
0.0181176
0.018129
0.0181486
0.018181
0.0182236
0.0182699
0.0183141
0.018353
0.0183853
0.0184111
0.0184309
0.0184453
0.0184546
0.0184591
0.0181475
0.0181177
0.0181295
0.0181499
0.0181836
0.0182275
0.0182746
0.0183191
0.018358
0.0183902
0.0184159
0.0184357
0.0184499
0.0184591
0.0184637
0.0179409
0.0179419
0.0179531
0.0179539
0.0179159
0.0179157
0.0179099
0.0179102
0.0179616
0.0179697
0.0179275
0.0179249
0.0179215
0.0179195
0.0179165
0.0179165
0.0179676
0.0179372
0.0179348
0.0179326
0.0179309
0.0179294
0.0179286
0.0179278
0.0179282
0.0179562
0.017946
0.017944
0.0179418
0.0179412
0.0179423
0.0179444
0.0179469
0.0179489
0.0179503
0.0179563
0.0179494
0.0179488
0.0179487
0.0179506
0.0179551
0.0179615
0.0179684
0.0179747
0.0179794
0.017982
0.0179672
0.0179459
0.0179488
0.0179514
0.0179562
0.0179646
0.0179757
0.0179876
0.0179989
0.0180083
0.0180149
0.0180183
0.0179614
0.0179369
0.0179438
0.0179486
0.0179562
0.0179681
0.0179836
0.0180006
0.018017
0.0180314
0.0180428
0.0180506
0.0180546
0.0179695
0.0179346
0.0179417
0.0179505
0.0179646
0.0179836
0.0180051
0.0180266
0.0180461
0.0180623
0.0180748
0.0180833
0.0180875
0.017953
0.0179274
0.0179324
0.017941
0.017955
0.0179756
0.0180005
0.0180266
0.018051
0.0180723
0.0180897
0.0181027
0.0181114
0.0181158
0.0179538
0.0179247
0.0179307
0.0179422
0.0179615
0.0179876
0.018017
0.018046
0.0180723
0.0180946
0.0181125
0.0181258
0.0181346
0.018139
0.0179158
0.0179214
0.0179293
0.0179443
0.0179684
0.0179988
0.0180314
0.0180623
0.0180896
0.0181125
0.0181305
0.0181439
0.0181527
0.0181571
0.0179156
0.0179194
0.0179285
0.0179468
0.0179747
0.0180082
0.0180427
0.0180748
0.0181027
0.0181258
0.0181439
0.0181573
0.0181661
0.0181704
0.0179408
0.0179098
0.0179164
0.0179278
0.0179488
0.0179793
0.0180148
0.0180505
0.0180832
0.0181114
0.0181346
0.0181527
0.0181661
0.0181748
0.0181792
0.0179419
0.0179101
0.0179165
0.0179281
0.0179502
0.0179819
0.0180183
0.0180545
0.0180875
0.0181158
0.0181389
0.0181571
0.0181704
0.0181792
0.0181835
0.0177361
0.0177373
0.0177523
0.0177531
0.0177192
0.0177173
0.0177069
0.0177079
0.0177623
0.0177708
0.0177305
0.0177252
0.0177186
0.017714
0.0177083
0.0177081
0.0177697
0.0177416
0.0177358
0.0177287
0.0177229
0.0177181
0.0177147
0.0177113
0.0177109
0.0177917
0.0177514
0.0177447
0.0177363
0.0177296
0.0177255
0.0177232
0.0177224
0.0177218
0.0177222
0.017793
0.0177563
0.0177485
0.0177414
0.0177358
0.0177336
0.0177341
0.0177362
0.0177389
0.0177411
0.0177426
0.0177683
0.0177513
0.0177484
0.0177434
0.0177397
0.0177399
0.0177437
0.0177497
0.0177562
0.0177622
0.0177666
0.017769
0.0177619
0.0177411
0.0177445
0.0177413
0.0177396
0.0177423
0.0177494
0.0177592
0.0177699
0.01778
0.0177883
0.0177942
0.0177972
0.0177705
0.0177355
0.0177361
0.0177357
0.0177399
0.0177493
0.0177626
0.0177773
0.0177916
0.0178041
0.017814
0.0178208
0.0178243
0.0177521
0.0177303
0.0177285
0.0177295
0.0177335
0.0177437
0.0177591
0.0177773
0.0177956
0.0178123
0.0178264
0.0178372
0.0178446
0.0178483
0.0177529
0.0177251
0.0177228
0.0177254
0.017734
0.0177496
0.0177698
0.0177916
0.0178123
0.0178306
0.0178456
0.017857
0.0178647
0.0178686
0.0177191
0.0177184
0.017718
0.0177231
0.0177361
0.0177562
0.0177799
0.0178041
0.0178264
0.0178456
0.0178612
0.017873
0.0178809
0.0178848
0.0177172
0.0177139
0.0177146
0.0177223
0.0177389
0.0177621
0.0177883
0.0178139
0.0178372
0.017857
0.017873
0.017885
0.0178929
0.0178969
0.017736
0.0177068
0.0177082
0.0177112
0.0177217
0.0177411
0.0177665
0.0177941
0.0178207
0.0178446
0.0178647
0.0178809
0.0178929
0.017901
0.017905
0.0177372
0.0177078
0.017708
0.0177108
0.0177221
0.0177425
0.0177689
0.0177972
0.0178242
0.0178483
0.0178685
0.0178848
0.0178969
0.017905
0.017909
0.017525
0.0175274
0.0175483
0.0175519
0.0175322
0.017526
0.0175049
0.0175086
0.0175595
0.0175761
0.0175393
0.0175298
0.0175183
0.0175096
0.0174997
0.0174998
0.0175706
0.0175497
0.0175402
0.0175253
0.0175135
0.0175043
0.0174995
0.0174933
0.0174926
0.0176832
0.0175653
0.0175452
0.0175298
0.0175167
0.0175071
0.0175006
0.0174972
0.0174943
0.0174939
0.017683
0.0175798
0.0175485
0.017532
0.0175191
0.0175105
0.0175059
0.017504
0.017504
0.0175043
0.0175049
0.0175691
0.0175649
0.0175484
0.0175329
0.0175207
0.0175138
0.0175115