/*--------------------------------*- C++ -*----------------------------------*\
| =========                 |                                                 |
| \\      /  F ield         | OpenFOAM: The Open Source CFD Toolbox           |
|  \\    /   O peration     | Version:  2.1.1                                 |
|   \\  /    A nd           | Web:      www.OpenFOAM.org                      |
|    \\/     M anipulation  |                                                 |
\*---------------------------------------------------------------------------*/
FoamFile
{
    version     2.0;
    format      ascii;
    class       volScalarField;
    location    "0.12";
    object      p;
}
// * * * * * * * * * * * * * * * * * * * * * * * * * * * * * * * * * * * * * //

dimensions      [0 2 -2 0 0 0 0];

internalField   nonuniform List<scalar> 
163952
(
0.0417005
0.0411242
0.0363883
0.0311935
0.0299968
0.0273853
0.0267952
0.0264715
0.0367084
0.0323663
0.0273248
0.024835
0.0235914
0.0228124
0.0224981
0.0223568
0.0337395
0.0280027
0.024499
0.0228593
0.0219467
0.0214088
0.0210701
0.0208898
0.0208043
0.0336093
0.0261105
0.0232761
0.0219295
0.0211742
0.0206954
0.0203758
0.0201642
0.020038
0.0199744
0.0336105
0.0255685
0.0227519
0.0214736
0.0207588
0.020295
0.019971
0.0197402
0.0195807
0.0194801
0.0194276
0.0337398
0.0261105
0.0227518
0.0213301
0.0205676
0.0200788
0.0197333
0.0194794
0.0192927
0.0191606
0.019075
0.0190296
0.0367081
0.0280026
0.0232761
0.0214736
0.0205676
0.0200092
0.0196209
0.0193342
0.0191185
0.0189579
0.0188429
0.0187674
0.0187269
0.0323663
0.0244989
0.0219295
0.0207588
0.0200788
0.0196209
0.0192873
0.0190356
0.0188442
0.0187009
0.0185977
0.0185294
0.0184926
0.0363883
0.0273248
0.0228593
0.0211742
0.020295
0.0197333
0.0193342
0.0190356
0.0188075
0.0186331
0.0185021
0.0184073
0.0183444
0.0183103
0.0311936
0.0248351
0.0219467
0.0206955
0.019971
0.0194794
0.0191186
0.0188442
0.0186332
0.0184711
0.0183489
0.0182603
0.0182012
0.0181692
0.0299968
0.0235915
0.0214089
0.0203759
0.0197402
0.0192928
0.018958
0.0187009
0.0185021
0.0183489
0.018233
0.0181488
0.0180926
0.018062
0.0273854
0.0228125
0.0210702
0.0201642
0.0195807
0.0191607
0.018843
0.0185978
0.0184074
0.0182603
0.0181488
0.0180677
0.0180134
0.017984
0.0417006
0.0267953
0.0224982
0.0208899
0.0200381
0.0194802
0.0190751
0.0187675
0.0185295
0.0183445
0.0182013
0.0180926
0.0180135
0.0179605
0.0179317
0.0411243
0.0264716
0.022357
0.0208044
0.0199746
0.0194278
0.0190297
0.018727
0.0184927
0.0183104
0.0181693
0.0180621
0.017984
0.0179317
0.0179033
0.0235266
0.0235833
0.0225214
0.0237306
0.0224617
0.0221475
0.0221026
0.0220817
0.0226261
0.0244401
0.0221273
0.021815
0.0215544
0.0213636
0.0212888
0.021237
0.0234043
0.0221791
0.0217612
0.0213493
0.0210085
0.0207298
0.0205451
0.0204489
0.0203994
0.0221487
0.0218584
0.0214212
0.0209799
0.0205871
0.0202759
0.0200397
0.01988
0.0197877
0.0197434
0.0221494
0.0217291
0.021237
0.0207331
0.0203062
0.0199637
0.0197041
0.0195128
0.019381
0.0193007
0.0192621
0.0234044
0.0218586
0.021237
0.0206531
0.0201642
0.0197863
0.019497
0.0192791
0.0191183
0.019006
0.0189356
0.0189016
0.0226262
0.0221792
0.0214212
0.0207331
0.0201642
0.0197276
0.0193982
0.0191478
0.0189584
0.018818
0.018719
0.0186561
0.0186255
0.0244401
0.0217612
0.0209799
0.0203062
0.0197863
0.0193982
0.0191054
0.0188821
0.0187125
0.0185862
0.0184966
0.0184392
0.0184111
0.0225214
0.0221273
0.0213493
0.0205871
0.0199637
0.0194971
0.0191478
0.0188821
0.0186784
0.0185229
0.0184065
0.0183236
0.0182702
0.0182441
0.0237306
0.021815
0.0210085
0.0202759
0.0197041
0.0192792
0.0189585
0.0187126
0.0185229
0.0183774
0.0182681
0.01819
0.0181397
0.018115
0.0224617
0.0215545
0.0207299
0.0200397
0.0195129
0.0191184
0.0188181
0.0185863
0.0184066
0.0182682
0.018164
0.0180894
0.0180412
0.0180175
0.0221476
0.0213637
0.0205451
0.01988
0.0193811
0.0190061
0.0187191
0.0184967
0.0183236
0.0181901
0.0180894
0.0180172
0.0179704
0.0179475
0.0235267
0.0221027
0.0212889
0.020449
0.0197879
0.0193008
0.0189357
0.0186562
0.0184393
0.0182703
0.0181398
0.0180412
0.0179705
0.0179247
0.0179022
0.0235835
0.0220819
0.0212372
0.0203996
0.0197436
0.0192623
0.0189017
0.0186256
0.0184113
0.0182442
0.0181151
0.0180176
0.0179476
0.0179022
0.0178799
0.019883
0.0198972
0.0199622
0.0203441
0.0205676
0.0204519
0.0203443
0.0203037
0.019969
0.0208129
0.0203627
0.0202847
0.0201898
0.020151
0.0201216
0.0200962
0.0201794
0.0203765
0.0202762
0.0201556
0.0200189
0.0198744
0.019783
0.019728
0.0196975
0.0205265
0.0203095
0.0201845
0.0200046
0.0198126
0.0196468
0.0195069
0.0194069
0.0193445
0.0193132
0.0205272
0.0202643
0.0201114
0.0198898
0.0196649
0.0194623
0.0192962
0.0191649
0.0190702
0.0190102
0.0189805
0.0201794
0.0203097
0.0201114
0.0198519
0.0195861
0.0193525
0.0191561
0.0189978
0.0188751
0.0187866
0.0187299
0.0187021
0.019969
0.0203766
0.0201845
0.0198898
0.0195861
0.0193151
0.0190868
0.0188994
0.0187504
0.0186359
0.0185534
0.0185001
0.018474
0.0208129
0.0202762
0.0200046
0.0196649
0.0193525
0.0190868
0.0188671
0.0186893
0.0185489
0.0184416
0.0183641
0.018314
0.0182893
0.0199622
0.0203627
0.0201556
0.0198126
0.0194623
0.0191561
0.0188994
0.0186893
0.0185204
0.0183874
0.0182859
0.0182125
0.018165
0.0181416
0.0203441
0.0202847
0.0200189
0.0196468
0.0192962
0.0189978
0.0187504
0.0185489
0.0183874
0.0182603
0.0181634
0.0180932
0.0180477
0.0180253
0.0205676
0.0201898
0.0198744
0.019507
0.0191649
0.0188751
0.018636
0.0184416
0.0182859
0.0181634
0.0180698
0.0180021
0.0179581
0.0179364
0.0204519
0.0201511
0.0197831
0.0194069
0.0190703
0.0187867
0.0185534
0.0183642
0.0182126
0.0180933
0.0180021
0.0179362
0.0178933
0.0178721
0.019883
0.0203444
0.0201217
0.0197281
0.0193446
0.0190103
0.01873
0.0185002
0.0183141
0.0181651
0.0180478
0.0179582
0.0178933
0.0178511
0.0178303
0.0198973
0.0203038
0.0200963
0.0196977
0.0193134
0.0189807
0.0187022
0.0184741
0.0182895
0.0181417
0.0180254
0.0179365
0.0178722
0.0178303
0.0178097
0.0185358
0.018546
0.0186531
0.0188801
0.019211
0.0192106
0.0191581
0.019136
0.018668
0.0190939
0.0191339
0.0191214
0.0190921
0.0190935
0.0190922
0.0190886
0.0188089
0.0191378
0.0191253
0.0191183
0.0190895
0.0190378
0.019002
0.0189766
0.0189622
0.0192412
0.0191412
0.0191351
0.0190849
0.0190187
0.0189545
0.0188917
0.0188418
0.0188071
0.0187887
0.0192417
0.0191215
0.0191165
0.0190534
0.018964
0.0188707
0.0187848
0.0187103
0.0186532
0.018615
0.0185955
0.0188088
0.0191413
0.0191164
0.0190421
0.0189334
0.0188173
0.018707
0.0186099
0.0185295
0.018469
0.018429
0.0184089
0.018668
0.0191378
0.0191352
0.0190534
0.0189334
0.0187986
0.0186667
0.0185471
0.0184453
0.0183633
0.0183021
0.0182617
0.0182416
0.0190939
0.0191253
0.0190849
0.018964
0.0188173
0.0186667
0.018526
0.0184026
0.0182997
0.018218
0.0181575
0.0181176
0.0180978
0.018653
0.0191339
0.0191182
0.0190187
0.0188707
0.018707
0.0185471
0.0184026
0.0182785
0.0181762
0.0180957
0.0180363
0.0179972
0.0179778
0.0188801
0.0191214
0.0190895
0.0189545
0.0187849
0.0186099
0.0184453
0.0182997
0.0181762
0.0180753
0.0179961
0.0179379
0.0178996
0.0178806
0.0192109
0.0190921
0.0190378
0.0188917
0.0187103
0.0185296
0.0183633
0.018218
0.0180957
0.0179962
0.0179183
0.0178611
0.0178235
0.0178049
0.0192106
0.0190935
0.019002
0.0188419
0.0186532
0.0184691
0.0183022
0.0181575
0.0180363
0.0179379
0.0178611
0.0178047
0.0177677
0.0177493
0.0185358
0.0191581
0.0190923
0.0189767
0.0188072
0.0186151
0.0184291
0.0182618
0.0181177
0.0179973
0.0178997
0.0178236
0.0177677
0.0177311
0.0177129
0.0185461
0.0191361
0.0190888
0.0189624
0.0187889
0.0185957
0.018409
0.0182418
0.0180979
0.0179779
0.0178807
0.017805
0.0177494
0.0177129
0.0176948
0.0178179
0.0178259
0.017879
0.0180276
0.018244
0.0182875
0.0182778
0.0182761
0.017904
0.0181364
0.0182443
0.0182633
0.0182688
0.0182811
0.0182892
0.0182937
0.0179939
0.0182457
0.0182719
0.018305
0.0183234
0.0183229
0.0183198
0.0183137
0.0183093
0.0182782
0.0182677
0.0183116
0.0183249
0.0183252
0.0183176
0.0183022
0.0182861
0.0182723
0.0182643
0.0182785
0.0182624
0.0183185
0.0183339
0.0183215
0.0182963
0.0182648
0.018232
0.0182041
0.018184
0.0181734
0.0179938
0.0182677
0.0183184
0.0183365
0.0183185
0.0182794
0.0182317
0.0181829
0.0181383
0.0181026
0.0180779
0.0180653
0.017904
0.0182456
0.0183116
0.0183339
0.0183185
0.0182733
0.0182131
0.0181493
0.0180892
0.0180375
0.0179972
0.0179698
0.0179559
0.0181363
0.0182719
0.0183249
0.0183214
0.0182794
0.0182131
0.0181375
0.0180631
0.0179962
0.0179404
0.0178976
0.0178687
0.0178542
0.0178789
0.0182442
0.0183049
0.0183251
0.0182963
0.0182317
0.0181492
0.0180631
0.0179821
0.0179113
0.0178532
0.017809
0.0177795
0.0177646
0.0180275
0.0182632
0.0183233
0.0183175
0.0182648
0.0181829
0.0180892
0.0179963
0.0179113
0.0178383
0.0177789
0.0177342
0.0177043
0.0176893
0.0182439
0.0182687
0.0183228
0.0183022
0.018232
0.0181384
0.0180375
0.0179404
0.0178532
0.0177789
0.0177191
0.0176741
0.0176441
0.0176291
0.0182875
0.018281
0.0183198
0.0182861
0.0182041
0.0181027
0.0179973
0.0178976
0.0178091
0.0177342
0.0176741
0.017629
0.0175991
0.0175841
0.0178178
0.0182778
0.0182893
0.0183137
0.0182723
0.0181841
0.018078
0.0179699
0.0178688
0.0177795
0.0177044
0.0176442
0.0175991
0.0175692
0.0175542
0.0178259
0.0182762
0.0182938
0.0183094
0.0182644
0.0181736
0.0180654
0.0179561
0.0178543
0.0177647
0.0176894
0.0176292
0.0175842
0.0175543
0.0175393
0.0173078
0.0173144
0.0173272
0.01742
0.0175452
0.0175955
0.0176005
0.0176065
0.0173494
0.0174933
0.0175753
0.0176062
0.0176275
0.0176468
0.0176573
0.0176633
0.0174043
0.0175758
0.0176172
0.0176613
0.0176952
0.0177158
0.0177296
0.0177353
0.017737
0.0175763
0.017603
0.0176612
0.0176998
0.0177289
0.0177487
0.0177588
0.0177631
0.0177633
0.0177625
0.0175765
0.0176073
0.017678
0.0177239
0.0177495
0.0177623
0.0177646
0.01776
0.0177531
0.0177468
0.017743
0.0174042
0.017603
0.0176778
0.0177324
0.0177601
0.0177673
0.0177616
0.0177478
0.0177308
0.0177151
0.0177032
0.0176968
0.0173493
0.0175756
0.0176612
0.0177239
0.0177601
0.0177688
0.0177581
0.0177361
0.0177096
0.0176835
0.0176614
0.0176456
0.0176373
0.0174932
0.0176171
0.0176997
0.0177494
0.0177673
0.0177581
0.0177316
0.0176972
0.0176613
0.0176286
0.0176021
0.0175837
0.0175742
0.0173271
0.0175751
0.0176611
0.0177288
0.0177623
0.0177615
0.0177361
0.0176972
0.0176534
0.017611
0.0175739
0.0175445
0.0175243
0.017514
0.0174199
0.0176061
0.0176951
0.0177486
0.0177646
0.0177478
0.0177096
0.0176613
0.017611
0.0175642
0.0175242
0.0174929
0.0174715
0.0174607
0.017545
0.0176274
0.0177157
0.0177588
0.0177599
0.0177308
0.0176835
0.0176286
0.0175739
0.0175242
0.0174822
0.0174497
0.0174277
0.0174165
0.0175954
0.0176468
0.0177296
0.0177631
0.0177531
0.0177151
0.0176614
0.0176022
0.0175446
0.0174929
0.0174497
0.0174165
0.017394
0.0173826
0.0173077
0.0176005
0.0176573
0.0177353
0.0177633
0.0177468
0.0177033
0.0176456
0.0175838
0.0175244
0.0174716
0.0174277
0.017394
0.0173713
0.0173598
0.0173144
0.0176065
0.0176633
0.0177371
0.0177626
0.0177431
0.017697
0.0176374
0.0175743
0.0175141
0.0174608
0.0174166
0.0173827
0.0173598
0.0173483
0.0168745
0.0168819
0.016875
0.0169347
0.0170016
0.0170476
0.0170566
0.0170642
0.016893
0.0169942
0.0170414
0.0170727
0.0170978
0.0171206
0.0171326
0.0171393
0.0169274
0.0170415
0.017085
0.017129
0.0171655
0.0171922
0.0172128
0.0172245
0.0172297
0.0170286
0.0170671
0.0171257
0.0171714
0.0172106
0.017242
0.0172644
0.0172797
0.0172881
0.0172917
0.0170287
0.0170746
0.0171441
0.0171992
0.0172412
0.0172733
0.017295
0.0173079
0.0173151
0.0173183
0.0173194
0.0169272
0.017067
0.0171439
0.0172091
0.0172575
0.0172905
0.0173108
0.0173206
0.0173234
0.0173227
0.0173207
0.0173193
0.0168929
0.0170413
0.0171255
0.0171991
0.0172575
0.0172962
0.0173172
0.0173246
0.0173232
0.017317
0.0173096
0.0173035
0.0173
0.016994
0.0170848
0.0171712
0.0172411
0.0172904
0.0173171
0.0173254
0.0173212
0.0173102
0.0172969
0.0172844
0.017275
0.01727
0.0168747
0.0170411
0.0171288
0.0172104
0.0172732
0.0173107
0.0173246
0.0173212
0.0173075
0.017289
0.0172702
0.017254
0.0172423
0.0172361
0.0169345
0.0170724
0.0171652
0.0172418
0.0172949
0.0173205
0.0173231
0.0173102
0.017289
0.0172651
0.0172424
0.0172235
0.0172101
0.0172032
0.0170013
0.0170976
0.017192
0.0172643
0.0173078
0.0173234
0.017317
0.0172969
0.0172702
0.0172424
0.017217
0.0171962
0.0171817
0.0171742
0.0170474
0.0171204
0.0172127
0.0172796
0.017315
0.0173227
0.0173096
0.0172844
0.0172541
0.0172236
0.0171963
0.0171743
0.0171591
0.0171512
0.0168743
0.0170565
0.0171326
0.0172244
0.0172881
0.0173183
0.0173208
0.0173035
0.0172751
0.0172424
0.0172102
0.0171818
0.0171591
0.0171434
0.0171353
0.0168818
0.0170643
0.0171393
0.0172297
0.0172918
0.0173195
0.0173194
0.0173001
0.0172701
0.0172363
0.0172033
0.0171743
0.0171513
0.0171353
0.0171272
0.0164845
0.0164923
0.0164817
0.0165209
0.0165529
0.0165912
0.0166008
0.0166083
0.0164952
0.0165724
0.0165937
0.0166212
0.0166447
0.0166673
0.0166797
0.0166866
0.0165183
0.0165938
0.0166338
0.0166739
0.0167081
0.0167347
0.0167567
0.0167704
0.0167771
0.0165756
0.0166153
0.0166692
0.0167144
0.0167551
0.0167898
0.0168169
0.0168372
0.0168498
0.0168558
0.0165756
0.0166229
0.0166861
0.0167412
0.0167885
0.0168286
0.01686
0.0168828
0.0168983
0.0169075
0.0169117
0.016518
0.0166151
0.0166859
0.0167508
0.0168064
0.0168517
0.0168864
0.0169108
0.0169265
0.0169361
0.0169412
0.0169434
0.0164949
0.0165935
0.0166689
0.016741
0.0168063
0.0168594
0.0168987
0.016925
0.0169408
0.0169492
0.0169529
0.0169542
0.0169544
0.0165721
0.0166335
0.0167141
0.0167883
0.0168516
0.0168987
0.0169293
0.0169465
0.016954
0.0169557
0.0169545
0.0169525
0.0169511
0.0164814
0.0165933
0.0166736
0.0167548
0.0168284
0.0168862
0.0169249
0.0169464
0.0169551
0.0169556
0.0169518
0.0169467
0.0169422
0.0169396
0.0165206
0.0166208
0.0167077
0.0167895
0.0168598
0.0169106
0.0169407
0.016954
0.0169556
0.0169505
0.0169425
0.0169344
0.016928
0.0169245
0.0165525
0.0166444
0.0167344
0.0168167
0.0168826
0.0169264
0.0169491
0.0169557
0.0169518
0.0169425
0.0169314
0.0169211
0.0169133
0.0169092
0.0165909
0.016667
0.0167565
0.0168371
0.0168982
0.016936
0.0169529
0.0169545
0.0169467
0.0169344
0.0169211
0.0169093
0.0169006
0.016896
0.0164843
0.0166006
0.0166795
0.0167703
0.0168497
0.0169075
0.0169412
0.0169542
0.0169526
0.0169422
0.016928
0.0169134
0.0169007
0.0168914
0.0168865
0.0164922
0.0166083
0.0166865
0.0167771
0.0168558
0.0169118
0.0169435
0.0169545
0.0169513
0.0169397
0.0169246
0.0169093
0.0168961
0.0168866
0.0168816
0.0161293
0.0161366
0.0161287
0.0161549
0.0161663
0.0161969
0.0162057
0.0162122
0.0161387
0.0162002
0.0162044
0.0162274
0.0162477
0.016268
0.0162795
0.0162861
0.0161554
0.0162046
0.0162396
0.0162747
0.016305
0.0163293
0.01635
0.0163636
0.0163704
0.0161857
0.0162223
0.0162697
0.0163113
0.0163496
0.0163834
0.0164111
0.0164326
0.0164467
0.0164536
0.0161856
0.0162291
0.0162845
0.0163355
0.0163821
0.0164238
0.0164588
0.0164859
0.0165057
0.0165182
0.0165242
0.016155
0.016222
0.0162843
0.0163442
0.0163995
0.0164488
0.0164901
0.0165222
0.0165456
0.0165616
0.0165713
0.0165758
0.0161382
0.0162041
0.0162694
0.0163353
0.0163994
0.0164573
0.0165054
0.0165425
0.0165691
0.0165872
0.0165987
0.0166053
0.0166083
0.0161997
0.0162391
0.0163109
0.0163817
0.0164486
0.0165053
0.0165489
0.0165798
0.0166002
0.0166128
0.01662
0.0166237
0.0166253
0.0161281
0.0162038
0.0162742
0.0163491
0.0164235
0.0164898
0.0165423
0.0165798
0.0166041
0.0166186
0.0166263
0.0166298
0.0166312
0.0166315
0.0161544
0.0162268
0.0163045
0.016383
0.0164584
0.016522
0.016569
0.0166001
0.0166186
0.016628
0.0166317
0.0166323
0.0166317
0.0166311
0.0161658
0.0162472
0.0163289
0.0164107
0.0164857
0.0165454
0.0165871
0.0166127
0.0166263
0.0166317
0.0166323
0.0166307
0.0166288
0.0166275
0.0161965
0.0162677
0.0163497
0.0164324
0.0165055
0.0165614
0.0165986
0.01662
0.0166299
0.0166323
0.0166308
0.0166276
0.0166246
0.0166229
0.0161289
0.0162055
0.0162793
0.0163634
0.0164466
0.0165181
0.0165712
0.0166053
0.0166238
0.0166312
0.0166318
0.0166288
0.0166247
0.0166211
0.016619
0.0161363
0.0162121
0.016286
0.0163704
0.0164536
0.0165242
0.0165759
0.0166083
0.0166254
0.0166316
0.0166312
0.0166276
0.0166229
0.016619
0.0166168
0.0158033
0.0158096
0.0158053
0.0158233
0.015822
0.0158463
0.0158538
0.0158591
0.0158132
0.0158634
0.0158561
0.0158751
0.0158922
0.0159096
0.0159195
0.0159253
0.0158263
0.0158568
0.0158866
0.0159167
0.0159428
0.015964
0.0159824
0.0159947
0.0160011
0.0158391
0.0158714
0.0159124
0.015949
0.0159833
0.0160142
0.0160401
0.0160609
0.0160748
0.0160818
0.0158391
0.0158774
0.0159251
0.0159704
0.0160132
0.016053
0.0160877
0.0161158
0.016137
0.0161508
0.0161576
0.0158256
0.0158711
0.0159248
0.015978
0.0160293
0.0160776
0.0161203
0.0161554
0.0161825
0.0162019
0.0162142
0.0162202
0.0158125
0.0158561
0.0159118
0.01597
0.0160292
0.016086
0.0161367
0.0161786
0.0162113
0.0162351
0.0162516
0.0162617
0.0162664
0.0158627
0.0158859
0.0159484
0.0160127
0.0160773
0.0161365
0.0161862
0.0162249
0.0162534
0.0162733
0.0162864
0.0162942
0.0162978
0.0158045
0.0158553
0.015916
0.0159826
0.0160525
0.01612
0.0161785
0.0162249
0.0162592
0.0162832
0.0162991
0.0163092
0.0163149
0.0163174
0.0158226
0.0158744
0.0159422
0.0160136
0.0160872
0.0161551
0.0162111
0.0162533
0.0162831
0.016303
0.0163155
0.016323
0.016327
0.0163287
0.0158213
0.0158916
0.0159634
0.0160396
0.0161154
0.0161822
0.016235
0.0162732
0.0162991
0.0163155
0.0163253
0.0163307
0.0163333
0.0163344
0.0158458
0.0159091
0.0159819
0.0160605
0.0161367
0.0162017
0.0162514
0.0162863
0.0163091
0.016323
0.0163307
0.0163346
0.0163363
0.0163368
0.0158027
0.0158534
0.0159192
0.0159944
0.0160745
0.0161506
0.0162141
0.0162616
0.0162942
0.0163149
0.016327
0.0163334
0.0163363
0.0163374
0.0163376
0.0158091
0.0158589
0.0159251
0.016001
0.0160817
0.0161575
0.0162202
0.0162665
0.0162979
0.0163175
0.0163288
0.0163345
0.0163369
0.0163377
0.0163378
0.015501
0.0155061
0.015505
0.0155181
0.0155079
0.0155273
0.0155332
0.0155374
0.0155116
0.0155534
0.0155381
0.0155536
0.0155678
0.0155822
0.0155903
0.0155952
0.0155225
0.0155394
0.0155646
0.01559
0.015612
0.0156299
0.0156455
0.0156561
0.0156617
0.0155237
0.0155517
0.0155866
0.0156181
0.0156478
0.0156749
0.015698
0.0157167
0.0157295
0.015736
0.0155235
0.0155568
0.0155975
0.0156367
0.0156745
0.0157105
0.0157428
0.0157696
0.0157902
0.015804
0.0158109
0.0155216
0.0155511
0.0155971
0.0156432
0.0156889
0.0157335
0.0157743
0.0158093
0.0158372
0.0158578
0.0158713
0.0158778
0.0155107
0.0155384
0.0155858
0.0156361
0.0156887
0.0157413
0.0157905
0.0158333
0.0158682
0.0158949
0.0159139
0.0159261
0.0159319
0.0155523
0.0155635
0.0156172
0.0156739
0.0157331
0.0157903
0.0158412
0.0158833
0.0159161
0.0159403
0.0159571
0.0159676
0.0159726
0.015504
0.0155369
0.0155889
0.0156469
0.0157098
0.0157739
0.015833
0.0158832
0.0159229
0.0159528
0.0159742
0.0159886
0.0159975
0.0160016
0.0155171
0.0155526
0.015611
0.0156741
0.0157421
0.0158088
0.0158679
0.0159159
0.0159527
0.0159795
0.0159982
0.0160106
0.016018
0.0160214
0.0155069
0.0155669
0.0156291
0.0156973
0.015769
0.0158368
0.0158946
0.0159402
0.0159741
0.0159982
0.0160146
0.0160252
0.0160315
0.0160343
0.0155265
0.0155815
0.0156449
0.0157162
0.0157898
0.0158575
0.0159137
0.015957
0.0159886
0.0160106
0.0160253
0.0160346
0.0160399
0.0160423
0.0155002
0.0155326
0.0155899
0.0156557
0.0157292
0.0158038
0.0158711
0.015926
0.0159676
0.0159975
0.016018
0.0160315
0.01604
0.0160448
0.0160469
0.0155054
0.0155371
0.0155949
0.0156615
0.0157358
0.0158108
0.0158778
0.0159319
0.0159726
0.0160017
0.0160215
0.0160344
0.0160424
0.0160469
0.0160489
0.0152171
0.0152211
0.0152228
0.015233
0.0152161
0.0152315
0.015236
0.0152393
0.0152288
0.0152641
0.015243
0.0152556
0.0152671
0.0152787
0.0152851
0.0152891
0.0152384
0.0152452
0.0152662
0.0152874
0.0153055
0.0153202
0.0153329
0.0153416
0.0153463
0.0152314
0.0152558
0.0152853
0.0153118
0.0153368
0.0153597
0.0153793
0.0153954
0.0154066
0.0154123
0.0152311
0.0152599
0.0152945
0.0153278
0.0153602
0.0153914
0.0154199
0.0154441
0.0154631
0.0154759
0.0154824
0.015237
0.0152548
0.015294
0.0153332
0.0153727
0.0154121
0.0154492
0.0154819
0.0155086
0.0155288
0.0155422
0.0155488
0.0152274
0.0152437
0.015284
0.015327
0.0153723
0.0154191
0.0154643
0.0155052
0.0155396
0.0155668
0.0155868
0.0155997
0.015606
0.0152626
0.0152646
0.0153105
0.0153592
0.0154115
0.0154641
0.0155129
0.015555
0.0155892
0.0156155
0.0156342
0.0156462
0.0156519
0.0152213
0.0152414
0.0152858
0.0153355
0.0153904
0.0154485
0.0155048
0.0155549
0.0155965
0.0156293
0.0156538
0.015671
0.0156818
0.015687
0.0152315
0.0152542
0.0153042
0.0153586
0.015419
0.0154812
0.0155392
0.015589
0.0156292
0.0156601
0.0156827
0.0156983
0.015708
0.0157126
0.0152148
0.0152659
0.015319
0.0153784
0.0154433
0.0155081
0.0155665
0.0156152
0.0156537
0.0156827
0.0157036
0.0157178
0.0157266
0.0157308
0.0152306
0.0152778
0.0153321
0.0153947
0.0154625
0.0155284
0.0155865
0.0156341
0.0156709
0.0156983
0.0157178
0.015731
0.0157391
0.0157429
0.0152161
0.0152353
0.0152844
0.015341
0.0154061
0.0154755
0.015542
0.0155996
0.0156461
0.0156818
0.0157081
0.0157267
0.0157391
0.0157468
0.0157503
0.0152204
0.0152389
0.0152887
0.0153459
0.015412
0.0154822
0.0155487
0.015606
0.015652
0.015687
0.0157127
0.0157308
0.015743
0.0157503
0.0157538
0.0149473
0.0149505
0.0149549
0.0149636
0.0149414
0.0149537
0.0149566
0.0149593
0.0149608
0.0149913
0.014966
0.014976
0.0149849
0.0149939
0.0149985
0.0150017
0.0149698
0.0149695
0.0149866
0.0150039
0.0150183
0.0150297
0.0150396
0.0150463
0.0150499
0.0149573
0.0149786
0.0150033
0.0150251
0.0150454
0.0150639
0.0150798
0.0150929
0.015102
0.0151067
0.0149568
0.0149819
0.0150111
0.0150387
0.0150655
0.0150915
0.0151155
0.0151362
0.0151527
0.015164
0.0151697
0.0149677
0.0149771
0.0150104
0.0150431
0.0150761
0.0151095
0.0151417
0.0151707
0.0151949
0.0152136
0.0152262
0.0152324
0.0149588
0.0149671
0.0150015
0.0150375
0.0150756
0.0151155
0.0151553
0.0151923
0.0152245
0.0152505
0.01527
0.0152829
0.0152892
0.014989
0.0149843
0.0150232
0.0150641
0.0151087
0.015155
0.0151995
0.0152394
0.0152728
0.0152992
0.0153185
0.015331
0.0153371
0.0149528
0.0149636
0.0150017
0.0150435
0.0150901
0.0151408
0.0151918
0.0152392
0.0152801
0.0153135
0.0153393
0.0153578
0.0153697
0.0153754
0.0149616
0.014974
0.0150165
0.0150623
0.0151143
0.0151698
0.0152239
0.0152726
0.0153134
0.015346
0.0153707
0.0153882
0.0153994
0.0154048
0.0149397
0.0149833
0.0150282
0.0150785
0.0151352
0.0151942
0.0152501
0.0152989
0.0153391
0.0153707
0.0153942
0.0154108
0.0154213
0.0154263
0.0149525
0.0149928
0.0150386
0.015092
0.0151519
0.0152131
0.0152697
0.0153183
0.0153577
0.0153882
0.0154108
0.0154266
0.0154366
0.0154414
0.0149462
0.0149557
0.0149977
0.0150455
0.0151014
0.0151635
0.0152258
0.0152827
0.0153309
0.0153696
0.0153994
0.0154213
0.0154366
0.0154462
0.0154508
0.0149497
0.0149588
0.0150012
0.0150495
0.0151064
0.0151694
0.0152322
0.0152892
0.0153371
0.0153755
0.0154048
0.0154264
0.0154414
0.0154509
0.0154553
0.0146885
0.0146912
0.0146983
0.0147057
0.0146804
0.0146901
0.0146912
0.0146933
0.0147049
0.0147319
0.0147038
0.0147112
0.0147175
0.014724
0.0147267
0.0147291
0.014714
0.014709
0.0147225
0.0147358
0.0147466
0.0147546
0.0147615
0.014766
0.0147687
0.0146985
0.0147169
0.0147372
0.0147542
0.0147697
0.0147836
0.0147955
0.0148054
0.0148122
0.0148159
0.0146975
0.0147192
0.0147437
0.0147657
0.0147866
0.014807
0.014826
0.0148427
0.0148561
0.0148655
0.0148702
0.0147108
0.0147146
0.0147425
0.0147691
0.0147954
0.0148222
0.0148487
0.0148731
0.014894
0.0149103
0.0149215
0.0149271
0.0147019
0.0147053
0.0147344
0.0147639
0.0147946
0.0148272
0.0148605
0.0148925
0.0149211
0.0149448
0.014963
0.0149751
0.0149811
0.0147285
0.014719
0.0147514
0.0147846
0.0148211
0.0148601
0.0148989
0.0149349
0.0149661
0.0149913
0.0150101
0.0150225
0.0150286
0.0146953
0.0147004
0.0147327
0.0147671
0.0148051
0.0148475
0.0148918
0.0149347
0.0149731
0.0150054
0.015031
0.0150498
0.0150621
0.015068
0.0147031
0.0147085
0.0147441
0.0147815
0.0148244
0.014872
0.0149204
0.0149657
0.0150053
0.0150379
0.0150632
0.0150816
0.0150935
0.0150993
0.0146782
0.0147154
0.0147527
0.0147939
0.0148414
0.0148931
0.0149442
0.0149909
0.0150308
0.0150632
0.015088
0.0151059
0.0151174
0.015123
0.0146885
0.0147225
0.0147602
0.0148042
0.0148552
0.0149097
0.0149625
0.0150098
0.0150497
0.0150816
0.0151059
0.0151233
0.0151345
0.0151398
0.0146872
0.0146901
0.0147258
0.0147652
0.0148115
0.0148649
0.0149211
0.0149748
0.0150224
0.015062
0.0150935
0.0151174
0.0151345
0.0151454
0.0151507
0.0146903
0.0146927
0.0147285
0.0147682
0.0148155
0.0148699
0.0149269
0.014981
0.0150286
0.0150681
0.0150994
0.0151231
0.0151399
0.0151507
0.0151559
0.0144381
0.0144404
0.014451
0.0144575
0.0144311
0.0144381
0.014437
0.0144389
0.0144592
0.0144837
0.0144539
0.0144585
0.014462
0.0144657
0.0144664
0.0144681
0.014469
0.0144618
0.0144714
0.0144805
0.0144872
0.0144915
0.0144951
0.0144974
0.014499
0.014454
0.0144688
0.0144845
0.0144963
0.0145064
0.0145154
0.014523
0.0145293
0.0145338
0.0145362
0.014452
0.0144697
0.0144894
0.0145056
0.0145202
0.0145345
0.0145481
0.0145603
0.0145704
0.0145775
0.0145812
0.014464
0.014465
0.0144876
0.0145077
0.014527
0.0145468
0.014567
0.0145862
0.0146031
0.0146168
0.0146262
0.014631
0.0144545
0.0144559
0.0144801
0.0145029
0.0145259
0.0145506
0.0145768
0.014603
0.0146272
0.0146479
0.0146641
0.0146751
0.0146806
0.0144787
0.0144662
0.0144922
0.0145174
0.0145453
0.0145762
0.0146085
0.0146397
0.0146676
0.0146908
0.0147084
0.0147203
0.0147261
0.0144469
0.0144492
0.0144762
0.0145029
0.0145319
0.0145654
0.0146022
0.0146394
0.0146741
0.0147043
0.0147288
0.0147472
0.0147593
0.0147653
0.014454
0.0144549
0.0144839
0.0145127
0.014546
0.0145848
0.0146264
0.0146672
0.0147041
0.0147355
0.0147606
0.0147791
0.0147913
0.0147972
0.0144283
0.0144594
0.0144891
0.0145209
0.0145587
0.014602
0.0146472
0.0146904
0.0147286
0.0147605
0.0147856
0.0148041
0.0148161
0.0148219
0.0144362
0.0144639
0.0144936
0.0145279
0.0145693
0.014616
0.0146636
0.0147081
0.014747
0.0147791
0.0148041
0.0148223
0.0148341
0.0148399
0.0144367
0.0144358
0.0144653
0.0144964
0.0145329
0.0145769
0.0146257
0.0146748
0.0147201
0.0147592
0.0147912
0.0148161
0.0148341
0.0148458
0.0148515
0.0144396
0.0144382
0.0144675
0.0144985
0.0145358
0.0145809
0.0146307
0.0146805
0.0147261
0.0147653
0.0147972
0.014822
0.0148399
0.0148516
0.0148572
0.0141934
0.0141957
0.0142112
0.0142173
0.0141926
0.014196
0.014192
0.014194
0.014222
0.0142455
0.014215
0.0142163
0.0142161
0.0142164
0.0142148
0.014216
0.0142337
0.0142271
0.0142318
0.0142355
0.0142374
0.0142373
0.0142371
0.0142368
0.0142374
0.0142238
0.0142329
0.0142432
0.0142486
0.0142524
0.0142557
0.0142585
0.014261
0.0142629
0.0142643
0.0142207
0.0142312
0.0142458
0.0142554
0.0142627
0.0142702
0.014278
0.0142855
0.0142921
0.014297
0.0142996
0.0142256
0.0142264
0.0142428
0.0142559
0.0142673
0.0142795
0.0142929
0.0143067
0.0143195
0.0143302
0.0143378
0.0143417
0.0142145
0.0142176
0.0142363
0.0142513
0.0142657
0.0142821
0.0143008
0.0143208
0.0143403
0.0143577
0.0143717
0.0143814
0.0143863
0.014238
0.0142241
0.0142427
0.0142588
0.0142774
0.0143
0.0143254
0.0143513
0.0143755
0.0143963
0.0144125
0.0144236
0.014429
0.0142055
0.0142085
0.0142295
0.0142477
0.0142669
0.0142909
0.0143198
0.0143509
0.0143815
0.014409
0.0144319
0.0144495
0.0144612
0.014467
0.0142127
0.0142116
0.0142331
0.0142523
0.0142754
0.014305
0.0143394
0.0143751
0.0144088
0.0144384
0.0144626
0.0144808
0.0144929
0.0144988
0.0141892
0.0142129
0.0142344
0.0142561
0.0142837
0.0143183
0.014357
0.0143959
0.0144317
0.0144625
0.0144873
0.0145058
0.014518
0.014524
0.0141941
0.0142145
0.0142354
0.0142595
0.0142909
0.0143294
0.0143712
0.0144122
0.0144493
0.0144808
0.0145058
0.0145243
0.0145365
0.0145425
0.0141919
0.0141908
0.0142137
0.0142358
0.014262
0.0142962
0.0143373
0.0143811
0.0144234
0.0144611
0.0144929
0.014518
0.0145365
0.0145487
0.0145546
0.0141949
0.0141934
0.0142154
0.0142369
0.0142638
0.0142992
0.0143415
0.0143862
0.014429
0.0144671
0.0144989
0.014524
0.0145426
0.0145547
0.0145606
0.0139504
0.0139533
0.0139755
0.013983
0.0139661
0.0139634
0.0139545
0.0139575
0.0139912
0.0140163
0.0139872
0.0139831
0.0139777
0.0139733
0.0139686
0.0139696
0.0140078
0.0140063
0.0140024
0.0139979
0.0139935
0.013988
0.0139834
0.0139801
0.0139798
0.014019
0.0140084
0.0140109
0.0140074
0.0140031
0.0139999
0.0139973
0.013996
0.0139954
0.0139957
0.014014
0.014001
0.0140092
0.0140108
0.0140094
0.0140093
0.014011
0.0140139
0.0140171
0.01402
0.0140217
0.0139939
0.0139968
0.0140043
0.014009
0.0140115
0.0140155
0.0140221
0.0140306
0.0140395
0.0140476
0.0140536
0.0140568
0.0139792
0.0139907
0.0140002
0.0140049
0.0140094
0.0140168
0.014028
0.0140422
0.0140574
0.0140717
0.0140837
0.0140922
0.0140966
0.0140052
0.0139911
0.0139992
0.0140043
0.014013
0.0140271
0.0140459
0.0140669
0.0140877
0.0141063
0.0141211
0.0141313
0.0141365
0.0139679
0.0139783
0.0139901
0.0139971
0.0140054
0.0140199
0.0140411
0.0140666
0.0140931
0.0141181
0.0141395
0.0141561
0.0141675
0.0141731
0.0139773
0.0139774
0.0139883
0.0139958
0.0140082
0.0140289
0.0140564
0.0140873
0.0141179
0.0141457
0.0141689
0.0141866
0.0141985
0.0142045
0.013962
0.0139741
0.0139848
0.0139948
0.014012
0.0140383
0.014071
0.0141059
0.0141393
0.0141688
0.0141931
0.0142114
0.0142236
0.0142297
0.0139615
0.0139714
0.0139816
0.0139944
0.014016
0.0140468
0.0140832
0.0141208
0.014156
0.0141866
0.0142114
0.01423
0.0142424
0.0142485
0.0139491
0.0139535
0.0139676
0.0139791
0.0139945
0.0140193
0.0140531
0.0140919
0.0141312
0.0141674
0.0141985
0.0142236
0.0142424
0.0142548
0.0142609
0.0139526
0.013957
0.0139691
0.0139794
0.0139953
0.0140214
0.0140566
0.0140965
0.0141364
0.0141731
0.0142045
0.0142297
0.0142485
0.0142609
0.014267
0.0137002
0.0137054
0.0137367
0.0137519
0.0137572
0.0137391
0.0137216
0.0137276
0.0137622
0.0137978
0.0137698
0.0137572
0.0137434
0.0137321
0.0137229
0.0137242
0.0137932
0.0138003
0.01378
0.0137624
0.0137491
0.0137367
0.0137274
0.013721
0.0137203
0.0138651
0.0138014
0.0137824
0.0137654
0.0137513
0.0137408
0.0137331
0.0137283
0.0137257
0.0137254
0.0138574
0.0137851
0.0137759
0.0137646
0.0137529
0.0137451
0.0137413
0.0137403
0.0137411
0.0137425
0.0137437
0.0137681
0.0137793
0.0137677
0.0137603
0.0137527
0.0137485
0.0137492
0.0137535