/*--------------------------------*- C++ -*----------------------------------*\
| =========                 |                                                 |
| \\      /  F ield         | OpenFOAM: The Open Source CFD Toolbox           |
|  \\    /   O peration     | Version:  2.1.1                                 |
|   \\  /    A nd           | Web:      www.OpenFOAM.org                      |
|    \\/     M anipulation  |                                                 |
\*---------------------------------------------------------------------------*/
FoamFile
{
    version     2.0;
    format      ascii;
    class       volScalarField;
    location    "0.002";
    object      Th;
}
// * * * * * * * * * * * * * * * * * * * * * * * * * * * * * * * * * * * * * //

dimensions      [0 0 0 0 0 0 0];

internalField   nonuniform List<scalar> 
10154
(
2.69048e-13
1e-14
1.2256e-14
1.0059e-14
1.01947e-14
1.00582e-14
1.34836e-14
1.03258e-14
1.00036e-14
1.00022e-14
1e-14
1.00003e-14
1.00001e-14
2.2246e-13
1.04347e-14
1.00035e-14
1.00003e-14
1e-14
1e-14
1e-14
1.00001e-14
1e-14
1e-14
1.00031e-14
1.00001e-14
1e-14
1e-14
1e-14
1e-14
1.00001e-14
1.00001e-14
1e-14
1e-14
1.00037e-14
1e-14
1.00001e-14
1e-14
1e-14
1e-14
1e-14
1e-14
1e-14
1e-14
2.22459e-13
1.00031e-14
1e-14
1.00001e-14
1e-14
1e-14
1e-14
1e-14
1e-14
1e-14
1e-14
1e-14
1.04351e-14
1.00001e-14
1e-14
1e-14
1e-14
1e-14
1e-14
1e-14
1e-14
1e-14
1e-14
1e-14
1.34832e-14
1.00035e-14
1e-14
1e-14
1e-14
1e-14
1e-14
1e-14
1e-14
1e-14
1e-14
1e-14
1e-14
1.03257e-14
1.00003e-14
1e-14
1e-14
1e-14
1e-14
1e-14
1e-14
1.00001e-14
1e-14
1e-14
1e-14
1e-14
1e-14
1.00036e-14
1e-14
1e-14
1e-14
1e-14
1e-14
1e-14
1.00001e-14
1.00001e-14
1e-14
1e-14
1.00001e-14
1e-14
1.22561e-14
1.00022e-14
1e-14
1e-14
1e-14
1e-14
1e-14
1e-14
1e-14
1e-14
1e-14
1.00001e-14
1.00001e-14
1.00001e-14
1.0059e-14
1.00001e-14
1e-14
1.00001e-14
1e-14
1e-14
1e-14
1e-14
1e-14
1e-14
1.00001e-14
1.00001e-14
1e-14
1.00001e-14
1.01946e-14
1.00002e-14
1.00001e-14
1.00001e-14
1e-14
1e-14
1e-14
1e-14
1e-14
1.00001e-14
1.00001e-14
1e-14
1e-14
1.00001e-14
2.6902e-13
1.00581e-14
1e-14
1e-14
1e-14
1e-14
1e-14
1e-14
1e-14
1e-14
1e-14
1.00001e-14
1.00001e-14
1.00001e-14
1.00002e-14
2.7061e-13
1e-14
1.21611e-14
1.00579e-14
1.01786e-14
1.0053e-14
1.40105e-14
1.03062e-14
1.00032e-14
1.00019e-14
1e-14
1.00001e-14
1.00001e-14
2.25119e-13
1.04134e-14
1.00031e-14
1.00001e-14
1e-14
1e-14
1e-14
1e-14
1e-14
1e-14
1.00029e-14
1.00001e-14
1e-14
1e-14
1e-14
1e-14
1e-14
1.00001e-14
1e-14
1e-14
1.00032e-14
1e-14
1e-14
1e-14
1e-14
1e-14
1e-14
1e-14
1e-14
1e-14
2.25112e-13
1.00029e-14
1e-14
1.00001e-14
1e-14
1e-14
1e-14
1e-14
1e-14
1e-14
1e-14
1e-14
1.04133e-14
1.00001e-14
1e-14
1e-14
1e-14
1e-14
1e-14
1e-14
1e-14
1e-14
1e-14
1e-14
1.40101e-14
1.00031e-14
1e-14
1e-14
1e-14
1e-14
1e-14
1.00001e-14
1e-14
1e-14
1e-14
1e-14
1e-14
1.03062e-14
1.00001e-14
1e-14
1e-14
1e-14
1e-14
1.00001e-14
1e-14
1e-14
1e-14
1e-14
1e-14
1e-14
1e-14
1.00032e-14
1e-14
1e-14
1e-14
1e-14
1e-14
1e-14
1e-14
1e-14
1e-14
1e-14
1e-14
1e-14
1.2161e-14
1.0002e-14
1e-14
1e-14
1e-14
1e-14
1e-14
1e-14
1e-14
1e-14
1e-14
1.00001e-14
1e-14
1e-14
1.00579e-14
1e-14
1e-14
1e-14
1e-14
1e-14
1e-14
1e-14
1e-14
1e-14
1.00001e-14
1.00001e-14
1e-14
1e-14
1.01786e-14
1.00001e-14
1.00001e-14
1e-14
1e-14
1e-14
1e-14
1e-14
1e-14
1e-14
1e-14
1e-14
1e-14
1e-14
2.70584e-13
1.0053e-14
1.00001e-14
1e-14
1e-14
1e-14
1e-14
1e-14
1e-14
1e-14
1e-14
1e-14
1e-14
1e-14
1e-14
2.70742e-13
1e-14
1.21795e-14
1.00591e-14
1.01752e-14
1.00519e-14
1.41083e-14
1.03028e-14
1.00032e-14
1.00019e-14
1.00001e-14
1e-14
1.00001e-14
2.25154e-13
1.04103e-14
1.0003e-14
1e-14
1e-14
1e-14
1e-14
1e-14
1e-14
1e-14
1.00028e-14
1e-14
1e-14
1e-14
1e-14
1e-14
1e-14
1e-14
1e-14
1e-14
1.00032e-14
1e-14
1e-14
1e-14
1e-14
1e-14
1e-14
1e-14
1e-14
1e-14
2.25147e-13
1.00028e-14
1e-14
1e-14
1e-14
1e-14
1e-14
1e-14
1e-14
1e-14
1e-14
1e-14
1.04102e-14
1e-14
1e-14
1e-14
1e-14
1e-14
1e-14
1e-14
1e-14
1e-14
1e-14
1e-14
1.41079e-14
1.0003e-14
1e-14
1e-14
1e-14
1e-14
1.00001e-14
1e-14
1e-14
1e-14
1e-14
1e-14
1e-14
1.03028e-14
1e-14
1e-14
1e-14
1e-14
1e-14
1e-14
1e-14
1e-14
1e-14
1e-14
1e-14
1e-14
1e-14
1.00032e-14
1e-14
1e-14
1e-14
1e-14
1e-14
1e-14
1e-14
1e-14
1e-14
1e-14
1e-14
1e-14
1.21795e-14
1.00019e-14
1e-14
1e-14
1e-14
1e-14
1e-14
1e-14
1e-14
1e-14
1e-14
1e-14
1e-14
1e-14
1.00591e-14
1.00001e-14
1e-14
1e-14
1e-14
1e-14
1e-14
1e-14
1e-14
1e-14
1e-14
1e-14
1e-14
1e-14
1.01752e-14
1e-14
1e-14
1e-14
1e-14
1e-14
1e-14
1e-14
1e-14
1e-14
1e-14
1e-14
1e-14
1e-14
2.70718e-13
1.00519e-14
1.00001e-14
1e-14
1e-14
1e-14
1e-14
1e-14
1e-14
1e-14
1e-14
1e-14
1e-14
1e-14
1e-14
2.70707e-13
1e-14
1.21882e-14
1.00599e-14
1.01759e-14
1.00519e-14
1.41003e-14
1.03025e-14
1.00033e-14
1.00019e-14
1.00001e-14
1e-14
1e-14
2.25211e-13
1.04093e-14
1.00029e-14
1e-14
1e-14
1e-14
1e-14
1e-14
1e-14
1e-14
1.00027e-14
1e-14
1e-14
1e-14
1e-14
1e-14
1e-14
1e-14
1e-14
1e-14
1.00031e-14
1e-14
1e-14
1e-14
1e-14
1e-14
1e-14
1e-14
1e-14
1e-14
2.25207e-13
1.00027e-14
1e-14
1e-14
1e-14
1e-14
1e-14
1e-14
1e-14
1e-14
1e-14
1.00001e-14
1.04091e-14
1e-14
1e-14
1e-14
1e-14
1e-14
1e-14
1e-14
1e-14
1e-14
1e-14
1.00001e-14
1.40998e-14
1.00029e-14
1e-14
1e-14
1e-14
1e-14
1e-14
1e-14
1e-14
1e-14
1e-14
1e-14
1.00001e-14
1.03025e-14
1e-14
1e-14
1e-14
1e-14
1e-14
1e-14
1e-14
1e-14
1e-14
1e-14
1e-14
1.00001e-14
1e-14
1.00033e-14
1e-14
1e-14
1e-14
1e-14
1e-14
1e-14
1e-14
1e-14
1e-14
1e-14
1e-14
1e-14
1.21881e-14
1.00019e-14
1e-14
1e-14
1e-14
1e-14
1e-14
1e-14
1e-14
1e-14
1e-14
1e-14
1e-14
1e-14
1.00599e-14
1.00001e-14
1e-14
1e-14
1e-14
1e-14
1e-14
1e-14
1e-14
1e-14
1e-14
1e-14
1e-14
1e-14
1.01759e-14
1e-14
1e-14
1e-14
1e-14
1e-14
1e-14
1e-14
1e-14
1e-14
1e-14
1e-14
1e-14
1e-14
2.70683e-13
1.00519e-14
1e-14
1e-14
1e-14
1e-14
1.00001e-14
1.00001e-14
1.00001e-14
1.00001e-14
1e-14
1e-14
1e-14
1e-14
1e-14
2.705e-13
1e-14
1.22111e-14
1.00614e-14
1.01823e-14
1.00548e-14
1.40726e-14
1.0304e-14
1.00035e-14
1.00019e-14
1e-14
1e-14
1e-14
2.25268e-13
1.04014e-14
1.00028e-14
1e-14
1e-14
1e-14
1e-14
1e-14
1e-14
1e-14
1.00027e-14
1e-14
1e-14
1e-14
1e-14
1e-14
1e-14
1e-14
1e-14
1e-14
1.00032e-14
1e-14
1e-14
1e-14
1e-14
1e-14
1e-14
1e-14
1e-14
1e-14
2.25265e-13
1.00027e-14
1e-14
1e-14
1e-14
1e-14
1e-14
1e-14
1e-14
1e-14
1e-14
1e-14
1.04012e-14
1e-14
1e-14
1e-14
1e-14
1e-14
1e-14
1e-14
1e-14
1e-14
1e-14
1.00001e-14
1.40717e-14
1.00028e-14
1e-14
1e-14
1e-14
1e-14
1e-14
1e-14
1e-14
1e-14
1e-14
1e-14
1.00001e-14
1.03039e-14
1e-14
1e-14
1e-14
1e-14
1e-14
1e-14
1e-14
1e-14
1e-14
1e-14
1e-14
1e-14
1e-14
1.00035e-14
1e-14
1e-14
1e-14
1e-14
1e-14
1e-14
1e-14
1e-14
1e-14
1e-14
1e-14
1e-14
1.22111e-14
1.00019e-14
1e-14
1e-14
1e-14
1e-14
1e-14
1e-14
1e-14
1e-14
1e-14
1e-14
1e-14
1.00001e-14
1.00614e-14
1e-14
1e-14
1e-14
1e-14
1e-14
1e-14
1e-14
1e-14
1e-14
1e-14
1e-14
1e-14
1e-14
1.01824e-14
1e-14
1e-14
1e-14
1e-14
1e-14
1e-14
1.00001e-14
1e-14
1e-14
1e-14
1e-14
1e-14
1e-14
2.70478e-13
1.00549e-14
1e-14
1e-14
1e-14
1e-14
1e-14
1.00001e-14
1.00001e-14
1e-14
1e-14
1.00001e-14
1e-14
1e-14
1e-14
2.69777e-13
1e-14
1.22956e-14
1.00667e-14
1.01852e-14
1.00444e-14
1.40581e-14
1.03036e-14
1.00029e-14
1.00019e-14
1e-14
1e-14
1e-14
2.2531e-13
1.04481e-14
1.00025e-14
1e-14
1e-14
1e-14
1e-14
1e-14
1e-14
1e-14
1.00034e-14
1e-14
1e-14
1e-14
1e-14
1e-14
1e-14
1e-14
1e-14
1e-14
1.00035e-14
1e-14
1e-14
1e-14
1e-14
1e-14
1e-14
1e-14
1e-14
1e-14
2.25306e-13
1.00034e-14
1e-14
1e-14
1e-14
1e-14
1e-14
1e-14
1e-14
1e-14
1e-14
1e-14
1.04479e-14
1e-14
1e-14
1e-14
1e-14
1e-14
1e-14
1e-14
1e-14
1e-14
1e-14
1e-14
1.40574e-14
1.00024e-14
1e-14
1e-14
1e-14
1e-14
1e-14
1e-14
1e-14
1e-14
1e-14
1e-14
1e-14
1.03035e-14
1e-14
1e-14
1e-14
1e-14
1e-14
1e-14
1e-14
1e-14
1e-14
1e-14
1e-14
1e-14
1e-14
1.00029e-14
1e-14
1e-14
1e-14
1e-14
1e-14
1e-14
1e-14
1e-14
1e-14
1e-14
1e-14
1e-14
1.22956e-14
1.00019e-14
1e-14
1e-14
1e-14
1e-14
1e-14
1e-14
1e-14
1e-14
1e-14
1e-14
1e-14
1e-14
1.00667e-14
1e-14
1e-14
1e-14
1e-14
1e-14
1e-14
1e-14
1e-14
1e-14
1e-14
1e-14
1e-14
1e-14
1.01853e-14
1e-14
1e-14
1e-14
1e-14
1e-14
1e-14
1e-14
1e-14
1e-14
1e-14
1e-14
1e-14
1e-14
2.69757e-13
1.00446e-14
1e-14
1e-14
1e-14
1e-14
1e-14
1e-14
1e-14
1e-14
1e-14
1e-14
1e-14
1e-14
1e-14
2.64743e-13
1e-14
1.29e-14
1.00575e-14
1.03129e-14
1.0129e-14
1.44789e-14
1.03624e-14
1.00084e-14
1.00021e-14
1e-14
1e-14
1e-14
2.24698e-13
1.03396e-14
1.00028e-14
1e-14
1e-14
1e-14
1e-14
1e-14
1e-14
1e-14
1e-14
1e-14
1e-14
1e-14
1e-14
1e-14
1e-14
1e-14
1e-14
1e-14
1.00008e-14
1e-14
1e-14
1e-14
1e-14
1e-14
1e-14
1e-14
1e-14
1e-14
2.24692e-13
1e-14
1e-14
1e-14
1e-14
1e-14
1e-14
1e-14
1e-14
1e-14
1e-14
1.00001e-14
1.03394e-14
1e-14
1e-14
1e-14
1e-14
1e-14
1e-14
1e-14
1e-14
1e-14
1e-14
1e-14
1.44782e-14
1.00028e-14
1e-14
1e-14
1e-14
1e-14
1e-14
1e-14
1e-14
1e-14
1e-14
1e-14
1e-14
1.03624e-14
1e-14
1e-14
1e-14
1e-14
1e-14
1e-14
1e-14
1e-14
1e-14
1e-14
1e-14
1e-14
1e-14
1.00084e-14
1e-14
1e-14
1e-14
1e-14
1e-14
1e-14
1e-14
1e-14
1e-14
1e-14
1e-14
1e-14
1.29001e-14
1.00021e-14
1e-14
1e-14
1e-14
1e-14
1e-14
1e-14
1e-14
1e-14
1e-14
1e-14
1e-14
1e-14
1.00575e-14
1e-14
1e-14
1e-14
1e-14
1e-14
1e-14
1e-14
1e-14
1e-14
1e-14
1e-14
1e-14
1e-14
1.03134e-14
1e-14
1e-14
1e-14
1e-14
1e-14
1e-14
1e-14
1e-14
1e-14
1e-14
1e-14
1e-14
1e-14
2.64719e-13
1.0129e-14
1e-14
1e-14
1e-14
1e-14
1.00001e-14
1e-14
1e-14
1e-14
1e-14
1e-14
1e-14
1e-14
1.00001e-14
2.32175e-14
1.29675e-14
1.00103e-14
1e-14
1.00405e-14
1.00252e-14
1.08945e-14
1.00321e-14
1.00014e-14
1.00002e-14
1e-14
1e-14
1e-14
1.55756e-14
1.00239e-14
1.00003e-14
1e-14
1e-14
1e-14
1e-14
1e-14
1e-14
1.02453e-14
1.00001e-14
1e-14
1e-14
1e-14
1e-14
1e-14
1e-14
1e-14
1e-14
1.02416e-14
1e-14
1e-14
1e-14
1e-14
1e-14
1e-14
1e-14
1e-14
1e-14
1e-14
1.55787e-14
1.00001e-14
1e-14
1e-14
1e-14
1e-14
1e-14
1e-14
1e-14
1e-14
1e-14
1e-14
1.00239e-14
1e-14
1e-14
1e-14
1e-14
1e-14
1e-14
1e-14
1e-14
1e-14
1e-14
1e-14
1.08945e-14
1.00003e-14
1e-14
1e-14
1e-14
1e-14
1e-14
1e-14
1e-14
1e-14
1e-14
1e-14
1e-14
1.0032e-14
1e-14
1e-14
1e-14
1e-14
1e-14
1e-14
1e-14
1e-14
1e-14
1e-14
1e-14
1e-14
1.29667e-14
1.00014e-14
1e-14
1e-14
1e-14
1e-14
1e-14
1e-14
1e-14
1e-14
1e-14
1e-14
1e-14
1e-14
1.00103e-14
1.00002e-14
1e-14
1e-14
1e-14
1e-14
1e-14
1e-14
1e-14
1e-14
1e-14
1e-14
1e-14
1e-14
1e-14
1e-14
1e-14
1e-14
1e-14
1e-14
1e-14
1e-14
1e-14
1e-14
1e-14
1e-14
1e-14
1e-14
1.00407e-14
1e-14
1e-14
1e-14
1e-14
1e-14
1e-14
1e-14
1e-14
1e-14
1e-14
1e-14
1e-14
1e-14
2.32287e-14
1.00252e-14
1e-14
1e-14
1e-14
1e-14
1e-14
1e-14
1e-14
1e-14
1e-14
1e-14
1e-14
1e-14
1e-14
1.00002e-14
1.00824e-14
1e-14
1.00042e-14
1e-14
1e-14
1.00057e-14
1.00037e-14
1.00001e-14
1.00056e-14
1.00037e-14
1.00002e-14
1e-14
1e-14
1e-14
1e-14
1.0009e-14
1.00024e-14
1e-14
1e-14
1e-14
1e-14
1e-14
1e-14
1e-14
1.00017e-14
1e-14
1e-14
1e-14
1e-14
1e-14
1e-14
1e-14
1e-14
1e-14
1.00017e-14
1e-14
1e-14
1e-14
1e-14
1e-14
1e-14
1e-14
1e-14
1e-14
1e-14
1.0009e-14
1e-14
1e-14
1e-14
1e-14
1e-14
1e-14
1e-14
1e-14
1e-14
1e-14
1e-14
1.00001e-14
1.00024e-14
1e-14
1e-14
1e-14
1e-14
1e-14
1e-14
1e-14
1e-14
1e-14
1e-14
1e-14
1.00056e-14
1e-14
1e-14
1e-14
1e-14
1e-14
1e-14
1e-14
1e-14
1e-14
1e-14
1e-14
1e-14
1e-14
1.00037e-14
1e-14
1e-14
1e-14
1e-14
1e-14
1e-14
1e-14
1e-14
1e-14
1e-14
1e-14
1e-14
1.00042e-14
1.00002e-14
1e-14
1e-14
1e-14
1e-14
1e-14
1e-14
1e-14
1e-14
1e-14
1e-14
1e-14
1e-14
1e-14
1e-14
1e-14
1e-14
1e-14
1e-14
1e-14
1e-14
1e-14
1e-14
1e-14
1e-14
1e-14
1e-14
1e-14
1e-14
1e-14
1e-14
1e-14
1e-14
1e-14
1e-14
1e-14
1e-14
1e-14
1e-14
1e-14
1e-14
1.00002e-14
1.00057e-14
1e-14
1e-14
1e-14
1e-14
1e-14
1e-14
1e-14
1e-14
1e-14
1e-14
1e-14
1e-14
1e-14
1.00826e-14
1.00037e-14
1e-14
1e-14
1e-14
1e-14
1e-14
1e-14
1e-14
1e-14
1e-14
1e-14
1e-14
1e-14
1e-14
1e-14
1.00004e-14
1e-14
1e-14
1e-14
1e-14
1.00007e-14
1.00005e-14
1e-14
1e-14
1.00003e-14
1e-14
1e-14
1e-14
1e-14
1e-14
1e-14
1.00002e-14
1e-14
1e-14
1e-14
1e-14
1e-14
1e-14
1e-14
1e-14
1e-14
1e-14
1e-14
1e-14
1e-14
1e-14
1e-14
1e-14
1e-14
1e-14
1e-14
1e-14
1e-14
1e-14
1e-14
1e-14
1e-14
1e-14
1e-14
1e-14
1e-14
1e-14
1e-14
1e-14
1e-14
1e-14
1e-14
1e-14
1e-14
1e-14
1e-14
1e-14
1e-14
1.00002e-14
1e-14
1e-14
1e-14
1e-14
1e-14
1e-14
1e-14
1e-14
1e-14
1e-14
1e-14
1e-14
1e-14
1e-14
1e-14
1e-14
1e-14
1e-14
1e-14
1e-14
1e-14
1e-14
1e-14
1e-14
1e-14
1.00003e-14
1e-14
1e-14
1e-14
1e-14
1e-14
1e-14
1e-14
1e-14
1e-14
1e-14
1e-14
1e-14
1e-14
1e-14
1e-14
1e-14
1e-14
1e-14
1e-14
1e-14
1e-14
1e-14
1e-14
1e-14
1e-14
1e-14
1e-14
1e-14
1e-14
1e-14
1e-14
1e-14
1e-14
1e-14
1e-14
1e-14
1e-14
1e-14
1e-14
1e-14
1e-14
1e-14
1e-14
1e-14
1e-14
1e-14
1e-14
1e-14
1e-14
1e-14
1e-14
1e-14
1e-14
1e-14
1e-14
1.00007e-14
1e-14
1e-14
1e-14
1e-14
1e-14
1e-14
1e-14
1e-14
1e-14
1e-14
1e-14
1e-14
1e-14
1.00004e-14
1.00005e-14
1e-14
1e-14
1e-14
1e-14
1e-14
1e-14
1e-14
1e-14
1e-14
1e-14
1e-14
1e-14
1e-14
1e-14
1e-14
1e-14
1e-14
1e-14
1e-14
1.00001e-14
1.00001e-14
1e-14
1e-14
1e-14
1e-14
1e-14
1e-14
1e-14
1e-14
1e-14
1e-14
1e-14
1e-14
1e-14
1e-14
1e-14
1e-14
1e-14
1e-14
1e-14
1e-14
1e-14
1e-14
1e-14
1e-14
1e-14
1e-14
1e-14
1e-14
1e-14
1e-14
1e-14
1e-14
1e-14
1e-14
1e-14
1e-14
1e-14
1e-14
1e-14
1e-14
1e-14
1e-14
1e-14
1e-14
1e-14
1e-14
1e-14
1e-14
1e-14
1e-14
1e-14
1e-14
1e-14
1e-14
1e-14
1e-14
1e-14
1e-14
1e-14
1e-14
1e-14
1e-14
1e-14
1.00001e-14
1e-14
1e-14
1e-14
1e-14
1e-14
1e-14
1e-14
1e-14
1e-14
1e-14
1e-14
1e-14
1e-14
1e-14
1e-14
1e-14
1e-14
1e-14
1e-14
1e-14
1e-14
1e-14
1e-14
1e-14
1e-14
1e-14
1e-14
1e-14
1e-14
1e-14
1e-14
1e-14
1e-14
1e-14
1e-14
1e-14
1e-14
1e-14
1e-14
1e-14
1e-14
1e-14
1e-14
1e-14
1e-14
1e-14
1e-14
1e-14
1e-14
1e-14
1e-14
1e-14
1e-14
1e-14
1e-14
1e-14
1e-14
1e-14
1e-14
1e-14
1e-14
1e-14
1e-14
1e-14
1e-14
1e-14
1e-14
1e-14
1e-14
1.00001e-14
1e-14
1e-14
1e-14
1e-14
1e-14
1e-14
1e-14
1e-14
1e-14
1e-14
1e-14
1e-14
1.00001e-14
1e-14
1.00001e-14
1e-14
1e-14
1e-14
1e-14
1e-14
1e-14
1e-14
1e-14
1e-14
1e-14
1e-14
1.00001e-14
1.00001e-14
1e-14
1e-14
1e-14
1e-14
1e-14
1e-14
1e-14
1e-14
1e-14
1e-14
1e-14
1e-14
1e-14
1e-14
1e-14
1e-14
1e-14
1e-14
1e-14
1e-14
1e-14
1e-14
1e-14
1e-14
1e-14
1e-14
1e-14
1e-14
1e-14
1e-14
1e-14
1e-14
1e-14
1e-14
1e-14
1e-14
1e-14
1e-14
1e-14
1e-14
1e-14
1e-14
1e-14
1e-14
1e-14
1e-14
1e-14
1e-14
1e-14
1e-14
1e-14
1e-14
1e-14
1e-14
1e-14
1e-14
1e-14
1e-14
1e-14
1e-14
1e-14
1e-14
1e-14
1e-14
1e-14
1e-14
1e-14
1e-14
1e-14
1e-14
1e-14
1e-14
1e-14
1e-14
1e-14
1e-14
1e-14
1e-14
1e-14
1e-14
1e-14
1e-14
1e-14
1e-14
1e-14
1e-14
1e-14
1e-14
1e-14
1e-14
1e-14
1e-14
1e-14
1e-14
1e-14
1e-14
1e-14
1e-14
1e-14
1e-14
1e-14
1e-14
1e-14
1e-14
1e-14
1e-14
1e-14
1e-14
1e-14
1e-14
1e-14
1e-14
1e-14
1e-14
1e-14
1e-14
1e-14
1e-14
1e-14
1e-14
1e-14
1e-14
1e-14
1e-14
1e-14
1.00001e-14
1e-14
1e-14
1e-14
1e-14
1e-14
1e-14
1e-14
1e-14
1e-14
1e-14
1e-14
1e-14
1e-14
1.00001e-14
1e-14
1e-14
1e-14
1e-14
1e-14
1e-14
1e-14
1e-14
1e-14
1e-14
1e-14
1e-14
1e-14
1.00001e-14
1.00001e-14
1e-14
1e-14
1e-14
1e-14
1e-14
1e-14
1e-14
1e-14
1e-14
1e-14
1e-14
1.00001e-14
1.00001e-14
1.00001e-14
1.00001e-14
1e-14
1e-14
1e-14
1e-14
1e-14
1e-14
1e-14
1e-14
1e-14
1e-14
1e-14
1e-14
1e-14
1e-14
1e-14
1e-14
1e-14
1e-14
1e-14
1e-14
1e-14
1e-14
1e-14
1e-14
1.00001e-14
1e-14
1e-14
1e-14
1e-14
1e-14
1e-14
1e-14
1e-14
1e-14
1e-14
1e-14
1e-14
1e-14
1e-14
1e-14
1e-14
1e-14
1e-14
1e-14
1e-14
1.00001e-14
1e-14
1e-14
1e-14
1e-14
1e-14
1e-14
1e-14
1e-14
1e-14
1e-14
1e-14
1.00001e-14
1e-14
1e-14
1e-14
1e-14
1e-14
1e-14
1e-14
1e-14
1e-14
1e-14
1e-14
1e-14
1.00001e-14
1e-14
1e-14
1e-14
1e-14
1e-14
1e-14
1e-14
1e-14
1e-14
1e-14
1e-14
1e-14
1.00001e-14
1e-14
1e-14
1e-14
1e-14
1e-14
1e-14
1e-14
1e-14
1e-14
1e-14
1e-14
1e-14
1e-14
1.00001e-14
1e-14
1e-14
1e-14
1e-14
1e-14
1e-14
1e-14
1e-14
1e-14
1e-14
1e-14
1e-14
1e-14
1.00001e-14
1e-14
1e-14
1e-14
1e-14
1e-14
1e-14
1e-14
1e-14
1e-14
1e-14
1e-14
1e-14
1e-14
1.00001e-14
1e-14
1e-14
1e-14
1e-14
1e-14
1e-14
1e-14
1e-14
1e-14
1e-14
1e-14
1e-14
1e-14
1.00001e-14
1e-14
1e-14
1e-14
1e-14
1e-14
1e-14
1e-14
1e-14
1e-14
1e-14
1e-14
1e-14
1e-14
1e-14
1e-14
1e-14
1e-14
1e-14
1.00001e-14
1e-14
1.00001e-14
1.00001e-14
1.00001e-14
1.00001e-14
1.00001e-14
1.00001e-14
1.00001e-14
1.00001e-14
1e-14
1.00001e-14
1e-14
1e-14
1e-14
1e-14
1e-14
1e-14
1e-14
1.00001e-14
1e-14
1e-14
1e-14
1e-14
1e-14
1e-14
1e-14
1e-14
1e-14
1e-14
1e-14
1e-14
1e-14
1e-14
1e-14
1e-14
1e-14
1e-14
1e-14
1e-14
1e-14
1e-14
1e-14
1e-14
1e-14
1e-14
1e-14
1e-14
1e-14
1e-14
1e-14
1e-14
1e-14
1e-14
1e-14
1e-14
1e-14
1e-14
1e-14
1e-14
1e-14
1e-14
1e-14
1e-14
1e-14
1e-14
1e-14
1e-14
1e-14
1e-14
1e-14
1e-14
1e-14
1e-14
1e-14
1e-14
1e-14
1e-14
1e-14
1e-14
1e-14
1e-14
1e-14
1e-14
1e-14
1e-14
1e-14
1e-14
1e-14
1e-14
1e-14
1e-14
1e-14
1e-14
1e-14
1e-14
1e-14
1e-14
1e-14
1e-14
1e-14
1e-14
1e-14
1e-14
1e-14
1e-14
1e-14
1e-14
1e-14
1.00001e-14
1e-14
1e-14
1e-14
1e-14
1e-14
1e-14
1e-14
1e-14
1e-14
1e-14
1e-14
1e-14
1e-14
1.00001e-14
1e-14
1e-14
1e-14
1e-14
1e-14
1e-14
1e-14
1e-14
1e-14
1e-14
1e-14
1e-14
1e-14
1e-14
1e-14
1e-14
1e-14
1e-14
1e-14
1e-14
1e-14
1e-14
1e-14
1e-14
1e-14
1e-14
1e-14
1e-14
1e-14
1e-14
1e-14
1e-14
1e-14
1e-14
1e-14
1e-14
1e-14
1e-14
1e-14
1e-14
1e-14
1e-14
1e-14
1e-14
1.00001e-14
1e-14
1e-14
1e-14
1e-14
1e-14
1e-14
1e-14
1.00001e-14
1.00001e-14
1e-14
1e-14
1e-14
1e-14
1e-14
1e-14
1e-14
1e-14
1e-14
1e-14
1e-14
1e-14
1e-14
1e-14
1e-14
1e-14
1e-14
1e-14
1e-14
1e-14
1e-14
1e-14
1e-14
1e-14
1e-14
1e-14
1e-14
1e-14
1e-14
1e-14
1e-14
1e-14
1e-14
1e-14
1e-14
1e-14
1e-14
1e-14
1e-14
1e-14
1e-14
1e-14
1e-14
1e-14
1e-14
1e-14
1e-14
1e-14
1e-14
1e-14
1e-14
1e-14
1e-14
1e-14
1e-14
1e-14
1e-14
1e-14
1e-14
1e-14
1e-14
1e-14
1e-14
1e-14
1e-14
1e-14
1e-14
1e-14
1e-14
1e-14
1e-14
1e-14
1e-14
1e-14
1e-14
1e-14
1e-14
1e-14
1e-14
1e-14
1e-14
1e-14
1e-14
1e-14
1e-14
1e-14
1e-14
1e-14
1e-14
1e-14
1e-14
1e-14
1e-14
1e-14
1e-14
1e-14
1e-14
1e-14
1e-14
1e-14
1e-14
1e-14
1e-14
1e-14
1e-14
1e-14
1e-14
1e-14
1e-14
1e-14
1e-14
1e-14
1e-14
1e-14
1.00001e-14
1e-14
1e-14
1e-14
1e-14
1e-14
1e-14
1e-14
1e-14
1e-14
1e-14
1e-14
1e-14
1.00001e-14
1e-14
1e-14
1e-14
1e-14
1e-14
1e-14
1e-14
1e-14
1e-14
1e-14
1e-14
1e-14
1.00001e-14
1e-14
1e-14
1e-14
1e-14
1e-14
1e-14
1e-14
1e-14
1e-14
1e-14
1e-14
1e-14
1e-14
1.00001e-14
1e-14
1e-14
1e-14
1e-14
1e-14
1e-14
1e-14
1e-14
1e-14
1e-14
1e-14
1e-14
1e-14
1e-14
1e-14
1e-14
1e-14
1e-14
1e-14
7.43324e-13
5.43822e-14
4.24257e-14
1.01956e-14
1.08408e-14
2.86833e-14
3.49235e-13
1.7669e-14
1.433e-14
3.28788e-13
3.08477e-13
1.34493e-14
1.30328e-14
6.33883e-13
2.87979e-13
1.1139e-14
2.10816e-13
2.48721e-14
1.23799e-14
2.62359e-14
1.86657e-14
1.00491e-14
1.03338e-14
1e-14
6.46182e-14
3.28282e-14
1.09643e-14
2.00042e-14
1.1375e-14
1.02867e-14
1.00254e-14
6.46905e-13
7.062e-13
2.38239e-14
2.68763e-13
1.62487e-14
1.09297e-14
1.00847e-14
7.05506e-13
7.02902e-13
2.08123e-14
7.0483e-13
6.46893e-13
2.38129e-14
1e-14
2.68775e-13
1.09287e-14
1.62376e-14
1.00841e-14
6.33863e-13
3.29587e-14
6.45974e-14
1.0967e-14
2.87962e-13
1.11385e-14
2.00018e-14
1.02865e-14
1.13749e-14
1.00254e-14
2.4872e-14
2.10812e-13
1.23798e-14
7.43332e-13
5.43794e-14
2.62316e-14
1.0049e-14
1.86654e-14
1.03337e-14
4.24318e-14
1.01958e-14
1.08415e-14
2.86804e-14
1.76671e-14
3.49261e-13
1.43324e-14
3.28826e-13
1.34543e-14
3.08141e-13
1.30275e-14
6.91141e-13
1e-14
7.40103e-13
4.74142e-14
1e-14
1.00399e-14
3.89671e-14
1.01367e-14
1e-14
1.14771e-14
1.06843e-14
2.55301e-14
2.87653e-13
1.00353e-14
1.25663e-14
3.46986e-13
1.62932e-14
1.37009e-14
2.558e-13
1.16419e-14
1.1399e-14
3.26307e-13
3.05905e-13
1.29674e-14
1.25621e-14
5.28824e-13
6.27339e-13
1.50479e-13
1e-14
2.85133e-13
1.13104e-14
1.76952e-13
1.07674e-14
1.14878e-14
2.09921e-13
2.24422e-14
1.20544e-14
1.40078e-14
1.00495e-14
1e-14
2.50115e-14
1.69021e-14
1.0051e-14
1.02097e-14
1.29042e-14
1e-14
1e-14
1e-14
1.08586e-14
5.71392e-14
3.03104e-14
1.09344e-14
1.03967e-14
1e-14
1.00041e-14
1.81602e-14
1.12058e-14
1.02096e-14
1.00161e-14
5.53923e-13
4.13388e-13
1e-14
6.41949e-13
7.04094e-13
2.19074e-14
1.19417e-14
1.07597e-14
1e-14
2.68407e-13
1.53118e-14
1.08683e-14
1.00575e-14
4.30643e-13
4.29438e-13
1e-14
7.02471e-13
6.99829e-13
1.94225e-14
4.13123e-13
5.53925e-13
1e-14
7.02831e-13
6.41923e-13
2.18801e-14
1.29192e-14
1e-14
1.07592e-14
1.19402e-14
1e-14
2.684e-13
1.08667e-14
1.53105e-14
1.00573e-14
5.28806e-13
6.27315e-13
1e-14
1e-14
1.08588e-14
3.03061e-14
5.71392e-14
1.09343e-14
1.50478e-13
1e-14
2.8512e-13
1.13103e-14
1e-14
1.03967e-14
1.00041e-14
1.81591e-14
1.02095e-14
1.12056e-14
1.00161e-14
1.07674e-14
1.76952e-13
1.14879e-14
2.24417e-14
2.0992e-13
1.20543e-14
6.91138e-13
1e-14
7.40102e-13
4.7415e-14
1.00495e-14
1.40079e-14
1e-14
2.50107e-14
1.0051e-14
1.69022e-14
1.02096e-14
1e-14
1.004e-14
3.89682e-14
1.01366e-14
1e-14
1.14779e-14
1.06843e-14
2.55276e-14
1.00353e-14
2.87633e-13
1.25679e-14
1.62922e-14
3.47007e-13
1.37035e-14
1.1644e-14
2.55616e-13
1.13984e-14
3.26334e-13
1.29724e-14
3.05726e-13
1.25611e-14
6.9189e-13
1e-14
7.4004e-13
4.7794e-14
1e-14
1.00386e-14
3.90997e-14
1.01229e-14
1e-14
1.26745e-14
1.06753e-14
2.50498e-14
2.89671e-13
1.01083e-14
1.25419e-14
3.47096e-13
1.6082e-14
1.3694e-14
2.57147e-13
1.16638e-14
1.14191e-14
3.26308e-13
3.05903e-13
1.29528e-14
1.25467e-14
5.33326e-13
6.27932e-13
1.55436e-13
1e-14
2.84874e-13
1.1418e-14
1.78006e-13
1.10572e-14
1.14817e-14
2.10055e-13
2.23137e-14
1.20538e-14
1.42547e-14
1.00509e-14
1e-14
2.47067e-14
1.68579e-14
1.00492e-14
1.01973e-14
1.5156e-14
1e-14
1e-14
1e-14
1.08411e-14
5.80176e-14
2.96563e-14
1.09371e-14
1.03587e-14
1e-14
1.00045e-14
1.81817e-14
1.12197e-14
1.01969e-14
1.00158e-14
5.56719e-13
4.23216e-13
1e-14
6.42684e-13
7.03088e-13
2.10548e-14
1.18761e-14
1.07457e-14
1e-14
2.68805e-13
1.53724e-14
1.08524e-14
1.00575e-14
4.40922e-13
4.39598e-13
1e-14
7.01575e-13
6.98934e-13
1.87456e-14
4.22915e-13
5.56725e-13
1e-14
7.01833e-13
6.42659e-13
2.1029e-14
1.5157e-14
1e-14
1.07453e-14
1.18762e-14
1e-14
2.688e-13
1.08509e-14
1.53715e-14
1.00574e-14
5.33309e-13
6.27908e-13
1e-14
1e-14
1.0841e-14
2.96539e-14
5.80174e-14
1.09369e-14
1.55441e-13
1e-14
2.84862e-13
1.1418e-14
1e-14
1.03587e-14
1.00045e-14
1.81807e-14
1.01969e-14
1.12195e-14
1.00158e-14
1.10572e-14
1.78004e-13
1.14816e-14
2.23129e-14
2.10054e-13
1.20537e-14
6.91884e-13
1e-14
7.4004e-13
4.77935e-14
1.00509e-14
1.42546e-14
1e-14
2.47056e-14
1.00492e-14
1.68575e-14
1.01973e-14
1e-14
1.00385e-14
3.9101e-14
1.0123e-14
1e-14
1.2676e-14
1.06753e-14
2.50474e-14
1.01083e-14
2.89648e-13
1.25432e-14
1.60814e-14
3.47117e-13
1.36966e-14
1.16656e-14
2.56968e-13
1.14194e-14
3.26334e-13
1.29576e-14
3.05727e-13
1.25458e-14
6.91196e-13
1e-14
7.40055e-13
4.78697e-14
1e-14
1.00383e-14
3.90798e-14
1.01221e-14
1e-14
1.28947e-14
1.06752e-14
2.50294e-14
2.89886e-13
1.01168e-14
1.2564e-14
3.47166e-13
1.60578e-14
1.37051e-14
2.57316e-13
1.16872e-14
1.14418e-14
3.26332e-13
3.05953e-13
1.29595e-14
1.25511e-14
5.33521e-13
6.281e-13
1.55274e-13
1e-14
2.84674e-13
1.1446e-14
1.78089e-13
1.1094e-14
1.14981e-14
2.10152e-13
2.22863e-14
1.20601e-14
1.43313e-14
1.0052e-14
1e-14
2.46353e-14
1.6856e-14
1.00495e-14
1.01955e-14
1.54091e-14
1e-14
1e-14
1e-14
1.08441e-14
5.84654e-14
2.95549e-14
1.09348e-14
1.03622e-14
1e-14
1.00043e-14
1.81778e-14
1.12249e-14
1.01928e-14
1.00151e-14
5.56518e-13
4.2312e-13
1e-14
6.4282e-13
7.02997e-13
2.09025e-14
1.18956e-14
1.07486e-14
1e-14
2.68882e-13
1.53863e-14
1.08499e-14
1.00557e-14
4.40944e-13
4.39624e-13
1e-14
7.01457e-13
6.98818e-13
1.86192e-14
4.22824e-13
5.56534e-13
1e-14
7.01741e-13
6.42795e-13
2.08771e-14
1.54111e-14
1e-14
1.07481e-14
1.18957e-14
1e-14
2.68878e-13
1.08484e-14
1.53852e-14
1.00556e-14
5.33501e-13
6.28076e-13
1e-14
1e-14
1.0844e-14
2.95517e-14
5.84653e-14
1.09347e-14
1.55277e-13
1e-14
2.84664e-13
1.14459e-14
1e-14
1.03621e-14
1.00043e-14
1.81767e-14
1.01928e-14
1.12247e-14
1.00151e-14
1.10938e-14
1.78089e-13
1.1498e-14
2.22855e-14
2.10152e-13
1.206e-14
6.91192e-13
1e-14
7.40054e-13
4.78725e-14
1.0052e-14
1.43311e-14
1e-14
2.4634e-14
1.00495e-14
1.68557e-14
1.01955e-14
1e-14
1.00383e-14
3.90807e-14
1.01221e-14
1e-14
1.28958e-14
1.06753e-14
2.5027e-14
1.01168e-14
2.89862e-13
1.25654e-14
1.60574e-14
3.47187e-13
1.37077e-14
1.1689e-14
2.5714e-13
1.14419e-14
3.26361e-13
1.29644e-14
3.05775e-13
1.25502e-14
6.90903e-13
1e-14
7.39993e-13
4.7902e-14
1e-14
1.00388e-14
3.90427e-14
1.0125e-14
1e-14
1.29489e-14
1.06744e-14
2.5125e-14
2.89857e-13
1.01119e-14
1.25702e-14
3.47229e-13
1.61111e-14
1.37331e-14
2.57312e-13
1.16915e-14
1.14444e-14
3.26366e-13
3.05953e-13
1.29751e-14
1.25621e-14
5.33608e-13
6.28183e-13
1.5506e-13
1e-14
2.8449e-13
1.14665e-14
1.78116e-13
1.10671e-14
1.14998e-14
2.10299e-13
2.22842e-14
1.20637e-14
1.43457e-14
1.00521e-14
1e-14
2.45557e-14
1.68694e-14
1.00496e-14
1.01944e-14
1.54351e-14
1e-14
1e-14
1e-14
1.08397e-14
5.88711e-14
2.94894e-14
1.0928e-14
1.03639e-14
1e-14
1.0004e-14
1.81589e-14
1.12267e-14
1.01893e-14
1.00145e-14
5.56502e-13
4.2303e-13
1e-14
6.4281e-13
7.03009e-13
2.08909e-14
1.18991e-14
1.07476e-14
1e-14
2.6889e-13
1.5385e-14
1.08474e-14
1.00546e-14
4.40873e-13
4.39558e-13
1e-14
7.01418e-13
6.98781e-13
1.86138e-14
4.22735e-13
5.56513e-13
1e-14
7.01752e-13
6.42786e-13
2.08649e-14
1.54375e-14
1e-14
1.07471e-14
1.1899e-14
1e-14
2.68884e-13
1.08459e-14
1.53837e-14
1.00545e-14
5.33592e-13
6.28159e-13
1e-14
1e-14
1.08397e-14
2.94861e-14
5.88721e-14
1.09279e-14
1.55063e-13
1e-14
2.84481e-13
1.14666e-14
1e-14
1.03638e-14
1.0004e-14
1.81574e-14
1.01892e-14
1.12264e-14
1.00144e-14
1.10668e-14
1.78115e-13
1.14997e-14
2.22833e-14
2.103e-13
1.20636e-14
6.90895e-13
1e-14
7.39992e-13
4.79026e-14
1.00521e-14
1.43457e-14
1e-14
2.45543e-14
1.00496e-14
1.68689e-14
1.01943e-14
1e-14
1.00388e-14
3.90436e-14
1.0125e-14
1e-14
1.29503e-14
1.06745e-14
2.51229e-14
1.0112e-14
2.89836e-13
1.25716e-14
1.61106e-14
3.4725e-13
1.37358e-14
1.16933e-14
2.57137e-13
1.14445e-14
3.26394e-13
1.29801e-14
3.05773e-13
1.25612e-14
6.90717e-13
1e-14
7.39885e-13
4.81924e-14
1e-14
1.00379e-14
3.9071e-14
1.01444e-14
1e-14
1.30248e-14
1.06898e-14
2.53269e-14
2.8952e-13
1.01077e-14
1.25826e-14
3.47283e-13
1.63207e-14
1.38166e-14
2.5707e-13
1.16951e-14
1.14435e-14
3.26557e-13
3.06e-13
1.30131e-14
1.2586e-14
5.33688e-13
6.28286e-13
1.5468e-13
1e-14
2.84318e-13
1.14996e-14
1.7819e-13
1.10144e-14
1.14978e-14
2.10683e-13
2.23314e-14
1.20719e-14
1.438e-14
1.00518e-14
1e-14
2.43166e-14
1.69477e-14
1.00494e-14
1.01922e-14
1.54535e-14
1e-14
1e-14
1e-14
1.08305e-14
5.94422e-14
2.95079e-14
1.09223e-14
1.03667e-14
1e-14
1.00036e-14
1.81687e-14
1.12314e-14
1.01856e-14
1.00134e-14
5.56472e-13
4.22954e-13
1e-14
6.42768e-13
7.03015e-13
2.10089e-14
1.18964e-14
1.0746e-14
1e-14
2.68878e-13
1.53899e-14
1.08489e-14
1.00543e-14
4.40764e-13
4.39452e-13
1e-14
7.01394e-13
6.98757e-13
1.86774e-14
4.22662e-13
5.56483e-13
1e-14
7.01757e-13
6.42744e-13
2.09843e-14
1.54558e-14
1e-14
1.07456e-14
1.18962e-14
1e-14
2.68869e-13
1.08474e-14
1.53884e-14
1.00542e-14
5.33672e-13
6.28263e-13
1e-14
1e-14
1.08305e-14
2.95041e-14
5.94427e-14
1.09221e-14
1.54684e-13
1e-14
2.84308e-13
1.14998e-14
1e-14
1.03666e-14
1.00036e-14
1.81674e-14
1.01856e-14
1.12311e-14
1.00134e-14
1.1014e-14
1.78191e-13
1.14978e-14
2.233e-14
2.10684e-13
1.20718e-14
6.90713e-13
1e-14
7.39884e-13
4.81943e-14
1.00518e-14
1.43799e-14
1e-14
2.4316e-14
1.00494e-14
1.69472e-14
1.01922e-14
1e-14
1.0038e-14
3.90722e-14
1.01444e-14
1e-14
1.30263e-14
1.06899e-14
2.53252e-14
1.01077e-14
2.89495e-13
1.2584e-14
1.63205e-14
3.47306e-13
1.38196e-14
1.1697e-14
2.56892e-13
1.14437e-14
3.26591e-13
1.30186e-14
3.05819e-13
1.2585e-14
6.89372e-13
1e-14
7.40477e-13
4.92451e-14
1e-14
1.00354e-14
4.01366e-14
1.02202e-14
1e-14
1.3404e-14
1.08057e-14
2.55839e-14
2.88453e-13
1.0105e-14
1.26094e-14
3.47831e-13
1.69939e-14
1.40717e-14
2.56257e-13
1.16803e-14
1.14216e-14
3.2731e-13
3.06421e-13
1.31784e-14
1.26927e-14
5.3362e-13
6.29371e-13
1.5352e-13
1e-14
2.84003e-13
1.15418e-14
1.78131e-13
1.092e-14
1.14819e-14
2.11885e-13
2.254e-14
1.21204e-14
1.4523e-14
1.00504e-14
1e-14
2.47059e-14
1.73552e-14
1.00559e-14
1.0191e-14
1.54666e-14
1e-14
1e-14
1e-14
1.08055e-14
6.18407e-14
3.07371e-14
1.09596e-14
1.03702e-14
1e-14
1.00029e-14
1.83767e-14
1.125e-14
1.01859e-14
1.00123e-14
5.56156e-13
4.22538e-13
1e-14
6.43174e-13
7.02974e-13
2.16171e-14
1.18713e-14
1.07404e-14
1e-14
2.69998e-13
1.55323e-14
1.08798e-14
1.00503e-14
4.40436e-13
4.39117e-13
1e-14
7.01456e-13
6.98925e-13
1.89143e-14
4.22238e-13
5.56163e-13
1e-14
7.01747e-13
6.43157e-13
2.15996e-14
1.54678e-14
1e-14
1.07401e-14
1.18708e-14
1e-14
2.69982e-13
1.08784e-14
1.55309e-14
1.00503e-14
5.33605e-13
6.29366e-13
1e-14
1e-14
1.08054e-14
3.07334e-14
6.18429e-14
1.09595e-14
1.53522e-13
1e-14
2.83997e-13
1.15421e-14
1e-14
1.03702e-14
1.00029e-14
1.83757e-14
1.01858e-14
1.12498e-14
1.00123e-14
1.09194e-14
1.78134e-13
1.14818e-14
2.25388e-14
2.11887e-13
1.21203e-14
6.89378e-13
1e-14
7.40477e-13
4.9251e-14
1.00504e-14
1.45227e-14
1e-14
2.47051e-14
1.00559e-14
1.73548e-14
1.0191e-14
1e-14
1.00354e-14
4.01391e-14
1.02203e-14
1e-14
1.34064e-14
1.08059e-14
2.55833e-14
1.01049e-14
2.88431e-13
1.26108e-14
1.6995e-14
3.47863e-13
1.40762e-14
1.16822e-14
2.56077e-13
1.14218e-14
3.27355e-13
1.31856e-14
3.06241e-13
1.26919e-14
6.89807e-13
1e-14
7.16318e-13
8.99288e-14
1e-14
1e-14
3.47893e-14
1.12179e-14
1e-14
1.36835e-14
1.41461e-14
3.15399e-14
2.83174e-13
1.00665e-14
1.2475e-14
4.16662e-13
1.83438e-14
1.47815e-14
2.51088e-13
1.10506e-14
1.08284e-14
3.93898e-13
3.77102e-13
1.45415e-14
1.38028e-14
5.29936e-13
6.14303e-13
1.46678e-13
1e-14
2.71558e-13
1.15692e-14
1.77168e-13
1.07851e-14
1.13213e-14
2.49679e-13
2.33469e-14
1.17156e-14
1.44571e-14
1.00391e-14
1e-14
6.52449e-14
2.27851e-14
1.00481e-14
1.03833e-14
1.32727e-14
1e-14
1e-14
1e-14
1.08518e-14
7.33385e-14
2.30081e-14
1.04214e-14
1.04094e-14
1e-14
1.00029e-14
1.94521e-14
1.12595e-14
1.0211e-14
1.00092e-14
5.54634e-13
4.21109e-13
1e-14
6.37595e-13
6.33518e-13
1.88081e-14
1.21887e-14
1.07923e-14
1e-14
3.1098e-13
1.6734e-14
1.03677e-14
1e-14
4.39914e-13
4.38613e-13
1e-14
6.42306e-13
6.41896e-13
1.4504e-14
4.20768e-13
5.54643e-13
1e-14
6.3301e-13
6.37598e-13
1.88058e-14
1.32724e-14
1e-14
1.07924e-14
1.21878e-14
1e-14
3.1098e-13
1.03668e-14
1.67332e-14
1e-14
5.29939e-13
6.14303e-13
1e-14
1e-14
1.08518e-14
2.30067e-14
7.33453e-14
1.04214e-14
1.46679e-13
1e-14
2.71554e-13
1.15692e-14
1e-14
1.04094e-14