/*--------------------------------*- C++ -*----------------------------------*\
| =========                 |                                                 |
| \\      /  F ield         | OpenFOAM: The Open Source CFD Toolbox           |
|  \\    /   O peration     | Version:  2.1.1                                 |
|   \\  /    A nd           | Web:      www.OpenFOAM.org                      |
|    \\/     M anipulation  |                                                 |
\*---------------------------------------------------------------------------*/
FoamFile
{
    version     2.0;
    format      ascii;
    class       surfaceScalarField;
    location    "0.0015";
    object      phi;
}
// * * * * * * * * * * * * * * * * * * * * * * * * * * * * * * * * * * * * * //

dimensions      [0 3 -1 0 0 0 0];

internalField   nonuniform List<scalar> 
29479
(
6.36417e-11
8.1241e-13
1.73433e-10
-3.74988e-11
3.46341e-11
2.03279e-12
2.56773e-10
-1.58274e-11
2.10028e-11
-4.38694e-14
2.48417e-10
-8.32521e-12
1.09205e-11
-2.25166e-13
2.48314e-10
-3.32219e-12
6.07046e-12
-1.9367e-13
2.47506e-10
-2.38279e-12
4.45768e-12
-2.02784e-13
2.48126e-10
-1.58132e-12
3.45039e-12
-1.95423e-13
2.48321e-10
-1.35147e-12
2.80319e-12
-1.8832e-13
2.48732e-10
-1.02791e-12
2.25122e-12
-1.77856e-13
2.48951e-10
-8.59822e-13
1.81355e-12
-1.68858e-13
2.49214e-10
-6.62554e-13
1.4192e-12
-1.62015e-13
2.49402e-10
-5.22172e-13
1.07222e-12
-1.56235e-13
2.49602e-10
-3.72497e-13
7.46312e-13
-1.5148e-13
2.49776e-10
-2.46865e-13
4.43498e-13
-1.47525e-13
2.49954e-10
-1.19523e-13
1.43075e-13
-1.45352e-13
2.50123e-10
-2.49834e-12
5.73223e-11
8.68432e-12
1.51821e-10
-3.23657e-12
-3.42214e-11
3.33847e-11
4.83055e-12
2.53235e-10
7.36227e-13
-1.61768e-11
2.11226e-11
-8.27307e-13
2.47571e-10
5.36106e-13
-8.57195e-12
1.09359e-11
-1.03886e-12
2.4849e-10
2.44157e-13
-3.46427e-12
6.13114e-12
-8.10006e-13
2.47919e-10
2.18917e-13
-2.42056e-12
4.51476e-12
-7.27279e-13
2.48415e-10
1.94797e-13
-1.59528e-12
3.49382e-12
-6.49198e-13
2.48556e-10
1.79084e-13
-1.34604e-12
2.83319e-12
-5.98101e-13
2.48931e-10
1.64398e-13
-1.02182e-12
2.27459e-12
-5.54429e-13
2.49137e-10
1.53503e-13
-8.51642e-13
1.83036e-12
-5.21935e-13
2.49389e-10
1.44678e-13
-6.54882e-13
1.43209e-12
-4.95151e-13
2.49573e-10
1.36849e-13
-5.16142e-13
1.08192e-12
-4.75018e-13
2.49772e-10
1.31297e-13
-3.68387e-13
7.54489e-13
-4.60155e-13
2.49942e-10
1.26176e-13
-2.44796e-13
4.47452e-13
-4.49995e-13
2.50121e-10
1.22629e-13
-1.19777e-13
1.48178e-13
-4.44402e-13
2.50293e-10
-7.03996e-12
8.20586e-11
5.00339e-11
-3.43014e-12
-5.46559e-11
3.71255e-11
-7.70819e-12
2.80207e-10
1.61096e-12
-1.61963e-11
2.0171e-11
-2.84445e-12
2.49111e-10
1.60191e-12
-8.28854e-12
1.08741e-11
-2.91879e-12
2.48883e-10
8.15023e-13
-3.61492e-12
6.31762e-12
-1.9194e-12
2.48393e-10
6.01075e-13
-2.45754e-12
4.65177e-12
-1.4456e-12
2.48649e-10
4.76923e-13
-1.62632e-12
3.59472e-12
-1.17894e-12
2.48733e-10
4.0574e-13
-1.35289e-12
2.90294e-12
-1.04238e-12
2.49086e-10
3.57797e-13
-1.0274e-12
2.32796e-12
-9.48678e-13
2.4929e-10
3.24969e-13
-8.52527e-13
1.87053e-12
-8.85556e-13
2.49542e-10
3.00396e-13
-6.56223e-13
1.46195e-12
-8.3711e-13
2.49731e-10
2.8368e-13
-5.13949e-13
1.10396e-12
-8.01471e-13
2.49927e-10
2.71059e-13
-3.66123e-13
7.69004e-13
-7.75715e-13
2.50101e-10
2.60287e-13
-2.45271e-13
4.56557e-13
-7.57855e-13
2.50286e-10
2.51713e-13
-1.1984e-13
1.50337e-13
-7.48331e-13
2.50466e-10
1.49591e-11
-7.83271e-11
2.73212e-11
-2.02111e-11
2.97707e-10
3.93751e-12
-1.54139e-11
1.91466e-11
-8.78072e-12
2.53572e-10
2.91362e-12
-8.16718e-12
1.1807e-11
-7.13413e-12
2.50841e-10
1.46497e-12
-3.99562e-12
7.0048e-12
-3.93556e-12
2.49453e-10
9.58537e-13
-2.44235e-12
4.91231e-12
-2.4807e-12
2.4905e-10
7.10039e-13
-1.63589e-12
3.74838e-12
-1.85253e-12
2.4903e-10
5.97123e-13
-1.33566e-12
2.99814e-12
-1.55907e-12
2.49299e-10
5.27009e-13
-1.02557e-12
2.4011e-12
-1.39001e-12
2.49487e-10
4.8336e-13
-8.49591e-13
1.92726e-12
-1.28241e-12
2.49721e-10
4.50954e-13
-6.57778e-13
1.50576e-12
-1.20807e-12
2.49909e-10
4.26415e-13
-5.12063e-13
1.13549e-12
-1.15123e-12
2.50101e-10
4.06662e-13
-3.67936e-13
7.9162e-13
-1.11181e-12
2.50281e-10
3.89063e-13
-2.48999e-13
4.69765e-13
-1.08611e-12
2.50476e-10
3.79114e-13
-1.20084e-13
1.53948e-13
-1.07325e-12
2.5066e-10
1.9694e-11
-7.86692e-11
3.90146e-11
-4.35225e-11
3.28789e-10
8.17811e-12
-2.71862e-11
2.55249e-11
-1.15003e-11
2.58538e-10
6.4686e-12
-1.1964e-11
1.57299e-11
-1.03408e-11
2.50912e-10
3.01285e-12
-5.7455e-12
9.03383e-12
-6.11209e-12
2.49863e-10
1.71113e-12
-2.94562e-12
5.67661e-12
-3.59309e-12
2.49149e-10
1.1628e-12
-1.80728e-12
4.10531e-12
-2.5513e-12
2.4909e-10
9.09111e-13
-1.39985e-12
3.19763e-12
-2.10193e-12
2.49395e-10
7.76684e-13
-1.04847e-12
2.53263e-12
-1.85958e-12
2.49598e-10
6.9437e-13
-8.6254e-13
2.02133e-12
-1.7071e-12
2.49853e-10
6.42401e-13
-6.6016e-13
1.57379e-12
-1.60451e-12
2.50048e-10
5.99272e-13
-5.23357e-13
1.18659e-12
-1.52649e-12
2.50264e-10
5.67329e-13
-3.73504e-13
8.23596e-13
-1.47329e-12
2.50455e-10
5.45231e-13
-2.54042e-13
4.88765e-13
-1.43769e-12
2.50657e-10
5.31124e-13
-1.21655e-13
1.5951e-13
-1.42035e-12
2.50851e-10
2.0152e-11
7.49355e-11
-1.94567e-11
1.48258e-10
1.396e-11
-3.28913e-11
2.88866e-11
-2.13943e-11
2.64982e-10
8.36405e-12
-1.60115e-11
2.08245e-11
-1.28588e-11
2.51595e-10
4.34952e-12
-8.50882e-12
1.23799e-11
-8.78972e-12
2.50842e-10
2.26233e-12
-4.01134e-12
6.98618e-12
-4.92665e-12
2.497e-10
1.42955e-12
-2.1403e-12
4.62498e-12
-3.33024e-12
2.49415e-10
1.11857e-12
-1.50029e-12
3.4694e-12
-2.70212e-12
2.49614e-10
9.72184e-13
-1.08593e-12
2.69946e-12
-2.39721e-12
2.49811e-10
8.79545e-13
-8.84329e-13
2.13865e-12
-2.19583e-12
2.50062e-10
8.1906e-13
-6.67997e-13
1.6612e-12
-2.06003e-12
2.50247e-10
7.66938e-13
-5.36897e-13
1.25161e-12
-1.95251e-12
2.5047e-10
7.28477e-13
-3.81518e-13
8.67505e-13
-1.8822e-12
2.50667e-10
6.94717e-13
-2.62857e-13
5.1541e-13
-1.83449e-12
2.50887e-10
6.7378e-13
-1.26227e-13
1.6711e-13
-1.81299e-12
2.51098e-10
3.2126e-11
-5.73212e-11
2.718e-11
-3.01185e-11
2.72526e-10
1.28463e-11
-2.8304e-11
2.95644e-11
-1.19922e-11
2.51366e-10
7.72834e-12
-1.31288e-11
1.71301e-11
-1.11047e-11
2.50267e-10
3.49667e-12
-6.38047e-12
9.18864e-12
-6.4937e-12
2.50304e-10
2.06063e-12
-2.88648e-12
5.46984e-12
-4.25314e-12
2.49617e-10
1.53114e-12
-1.78677e-12
3.8966e-12
-3.41317e-12
2.49772e-10
1.31418e-12
-1.19059e-12
2.96639e-12
-3.04011e-12
2.4995e-10
1.17177e-12
-9.44423e-13
2.32139e-12
-2.78187e-12
2.50233e-10
1.08089e-12
-6.88045e-13
1.78807e-12
-2.59861e-12
2.50417e-10
9.99469e-13
-5.59017e-13
1.34115e-12
-2.4446e-12
2.50663e-10
9.46486e-13
-3.90373e-13
9.24778e-13
-2.34472e-12
2.50863e-10
9.0056e-13
-2.80129e-13
5.50007e-13
-2.27724e-12
2.51106e-10
8.74067e-13
-1.3287e-13
1.76896e-13
-2.24975e-12
2.51331e-10
4.19564e-11
5.70967e-11
-1.22993e-11
1.65079e-10
9.77671e-12
-3.33545e-11
3.10612e-11
-1.7696e-11
2.6349e-10
8.73438e-12
-1.80074e-11
2.20672e-11
-1.20428e-11
2.51868e-10
4.52437e-12
-9.35367e-12
1.19714e-11
-8.64905e-12
2.52269e-10
2.5781e-12
-3.98529e-12
6.56724e-12
-5.79856e-12
2.50773e-10
1.90129e-12
-2.16165e-12
4.39987e-12
-4.5385e-12
2.50412e-10
1.64826e-12
-1.3283e-12
3.31359e-12
-3.9904e-12
2.50357e-10
1.47507e-12
-1.03396e-12
2.5838e-12
-3.59699e-12
2.50572e-10
1.35872e-12
-7.12983e-13
1.97131e-12
-3.32181e-12
2.50704e-10
1.23826e-12
-5.91443e-13
1.46951e-12
-3.08198e-12
2.50965e-10
1.15358e-12
-4.0643e-13
1.00483e-12
-2.93016e-12
2.51178e-10
1.08174e-12
-3.08681e-13
5.97802e-13
-2.83262e-12
2.51461e-10
1.0444e-12
-1.46025e-13
1.88993e-13
-2.79857e-12
2.51711e-10
3.58639e-11
-7.47877e-11
3.7065e-11
-6.40689e-11
3.41325e-10
1.09025e-11
-2.75599e-11
2.71543e-11
-1.21567e-11
2.5662e-10
7.34638e-12
-1.32467e-11
1.54245e-11
-1.17008e-11
2.54932e-10
4.19132e-12
-6.05557e-12
8.25517e-12
-8.77543e-12
2.53205e-10
2.98906e-12
-3.07186e-12
5.32453e-12
-7.05604e-12
2.51957e-10
2.45898e-12
-1.59257e-12
3.87011e-12
-5.81216e-12
2.51086e-10
2.08737e-12
-1.24076e-12
3.0229e-12
-4.93824e-12
2.51068e-10
1.87548e-12
-7.67797e-13
2.27283e-12
-4.37196e-12
2.50991e-10
1.66692e-12
-6.54671e-13
1.66752e-12
-3.93269e-12
2.51253e-10
1.52779e-12
-4.22941e-13
1.10696e-12
-3.6567e-12
2.51445e-10
1.41728e-12
-3.51196e-13
6.56354e-13
-3.49265e-12
2.5177e-10
1.36684e-12
-1.66209e-13
2.01762e-13
-3.44075e-12
2.52038e-10
2.0063e-11
2.83148e-11
6.91842e-11
1.30845e-11
-4.18486e-11
3.01634e-11
-2.65438e-11
2.74241e-10
9.08562e-12
-1.60995e-11
1.80293e-11
-1.50408e-11
2.59227e-10
7.28097e-12
-9.25287e-12
1.07493e-11
-1.58581e-11
2.5982e-10
5.36038e-12
-4.92711e-12
7.05555e-12
-1.3169e-11
2.56489e-10
4.09972e-12
-2.34947e-12
5.04823e-12
-1.0197e-11
2.53518e-10
3.15271e-12
-1.75135e-12
3.86805e-12
-7.83821e-12
2.52575e-10
2.61789e-12
-9.34236e-13
2.84157e-12
-6.30962e-12
2.51783e-10
2.1894e-12
-7.93023e-13
2.04213e-12
-5.32218e-12
2.51883e-10
1.8901e-12
-4.79021e-13
1.28852e-12
-4.76691e-12
2.52067e-10
1.67834e-12
-4.48483e-13
7.4994e-13
-4.49585e-12
2.52516e-10
1.59271e-12
-2.17806e-13
2.214e-13
-4.43346e-12
2.52837e-10
2.35312e-11
4.73657e-11
9.54605e-11
1.93018e-11
-4.43518e-11
2.39186e-11
-4.2601e-11
2.9285e-10
1.33591e-11
-1.19057e-11
1.39122e-11
-2.4652e-11
2.64593e-10
1.09372e-11
-1.0506e-11
1.10081e-11
-2.36095e-11
2.64862e-10
8.30906e-12
-5.27215e-12
7.76869e-12
-1.94385e-11
2.59376e-10
5.839e-12
-3.6153e-12
5.94081e-12
-1.42495e-11
2.56244e-10
4.42482e-12
-1.62898e-12
4.12887e-12
-1.03904e-11
2.53491e-10
3.42124e-12
-1.20477e-12
2.76141e-12
-7.98656e-12
2.53004e-10
2.82961e-12
-5.78351e-13
1.52095e-12
-6.56553e-12
2.52787e-10
2.47454e-12
-6.1393e-13
8.40646e-13
-6.07771e-12
2.53375e-10
2.37051e-12
-3.12521e-13
2.33729e-13
-6.02474e-12
2.53742e-10
3.66118e-11
2.3427e-11
9.12594e-11
2.39228e-11
-3.37886e-11
4.04511e-11
-4.46917e-11
2.5948e-10
2.18495e-11
-2.86679e-11
1.97298e-11
-3.63642e-11
2.78011e-10
1.52462e-11
-1.20733e-11
1.28162e-11
-2.83623e-11
2.65228e-10
1.01464e-11
-9.64873e-12
1.02117e-11
-2.23243e-11
2.62907e-10
7.66723e-12
-4.4916e-12
7.17619e-12
-1.79533e-11
2.58073e-10
5.58443e-12
-2.82793e-12
4.71335e-12
-1.37703e-11
2.56411e-10
4.0729e-12
-1.21481e-12
2.12961e-12
-1.10162e-11
2.56034e-10
3.43267e-12
-1.01706e-12
9.61679e-13
-1.06164e-11
2.57283e-10
3.27179e-12
-6.07e-13
2.49744e-13
-1.07869e-11
2.58029e-10
5.09211e-11
-2.32485e-11
2.43259e-11
-4.96669e-11
2.62085e-10
2.64921e-11
-2.75041e-11
2.03251e-11
-3.1197e-11
2.63471e-10
1.75613e-11
-2.3726e-11
1.89975e-11
-2.55419e-11
2.66669e-10
1.31101e-11
-1.2378e-11
1.33909e-11
-2.32167e-11
2.61884e-10
1.06237e-11
-8.274e-12
8.40435e-12
-2.09559e-11
2.61599e-10
8.32487e-12
-2.81808e-12
2.02252e-12
-1.88917e-11
2.62066e-10
8.14005e-12
-9.57254e-13
1.08814e-13
-2.05911e-11
2.64077e-10
8.19753e-12
-2.78469e-13
-6.40407e-14
-2.10354e-11
2.64533e-10
6.58133e-11
7.92754e-12
7.96745e-11
3.01851e-11
-4.06138e-11
3.07355e-11
-5.55457e-11
3.02699e-10
1.53034e-11
-3.4397e-11
3.76535e-11
-4.11187e-11
2.69697e-10
1.9747e-11
-2.51764e-11
1.85277e-11
-3.52327e-11
2.75048e-10
1.38237e-11
-6.54914e-12
-1.91352e-12
-2.55407e-11
2.73253e-10
1.60549e-11
3.31694e-12
-2.87681e-12
-3.62714e-11
2.73656e-10
1.6082e-11
1.70782e-12
-1.24024e-12
-3.45663e-11
2.73193e-10
8.5634e-11
-1.48636e-11
2.13869e-11
1.30527e-10
6.27503e-11
-3.51808e-13
-1.92059e-12
2.0499e-10
4.45489e-11
1.34466e-11
-1.05868e-11
-7.46482e-11
2.6402e-10
3.58572e-11
7.05808e-12
-3.65903e-12
-5.90043e-11
2.60582e-10
-1.39472e-10
2.34561e-11
1.88355e-12
1.14111e-10
5.16579e-10
7.81991e-12
1.02556e-09
-2.24949e-10
-3.35807e-10
-2.25775e-10
-3.37591e-10
2.36263e-11
2.37007e-11
-2.36253e-10
-2.37261e-10
3.10315e-10
-3.45529e-12
1.27515e-09
-2.32813e-10
-2.97937e-10
-2.35403e-10
-2.99476e-10
2.07758e-10
-1.87784e-11
1.14953e-09
-2.40658e-10
-2.72952e-10
-2.41687e-10
-2.73033e-10
1.46649e-10
-1.64696e-11
1.08025e-09
-2.41505e-10
-2.60127e-10
-2.41625e-10
-2.59475e-10
1.10642e-10
-1.52132e-11
1.05579e-09
-2.43246e-10
-2.59642e-10
-2.42967e-10
-2.58763e-10
8.38377e-11
-1.20635e-11
1.04034e-09
-2.4428e-10
-2.57115e-10
-2.43821e-10
-2.56282e-10
6.51406e-11
-1.05536e-11
1.03151e-09
-2.45568e-10
-2.56242e-10
-2.4504e-10
-2.55429e-10
5.05758e-11
-9.14282e-12
1.02503e-09
-2.46389e-10
-2.54929e-10
-2.45832e-10
-2.54178e-10
3.91371e-11
-8.31321e-12
1.02129e-09
-2.47236e-10
-2.54171e-10
-2.46675e-10
-2.53467e-10
2.95554e-11
-7.71335e-12
1.01849e-09
-2.47893e-10
-2.53312e-10
-2.47335e-10
-2.52653e-10
2.1264e-11
-7.28774e-12
1.01683e-09
-2.48547e-10
-2.52662e-10
-2.47997e-10
-2.52038e-10
1.37835e-11
-7.03141e-12
1.01563e-09
-2.4913e-10
-2.51996e-10
-2.48582e-10
-2.51399e-10
6.77764e-12
-6.84832e-12
1.01498e-09
-2.4971e-10
-2.51413e-10
-2.49161e-10
-2.50839e-10
-6.76898e-12
1.01465e-09
-2.5027e-10
-2.50833e-10
-2.49722e-10
-2.5027e-10
-1.17187e-10
-3.5459e-12
1.79571e-11
5.69324e-12
9.70823e-11
5.15644e-10
-1.56605e-11
1.02944e-09
-2.17968e-10
-3.24819e-10
-2.47904e-10
-3.39148e-10
3.71925e-11
3.15973e-11
-2.29001e-10
-2.31554e-10
3.1065e-10
-1.89095e-11
1.2954e-09
-2.35207e-10
-2.95086e-10
-2.45829e-10
-2.98835e-10
2.10104e-10
-4.6013e-11
1.15877e-09
-2.42692e-10
-2.72577e-10
-2.45497e-10
-2.70215e-10
1.48662e-10
-3.56675e-11
1.08505e-09
-2.42759e-10
-2.61247e-10
-2.42195e-10
-2.58211e-10
1.12264e-10
-3.1988e-11
1.05853e-09
-2.44112e-10
-2.60847e-10
-2.42741e-10
-2.57658e-10
8.50222e-11
-2.50049e-11
1.04219e-09
-2.45041e-10
-2.58208e-10
-2.43348e-10
-2.55413e-10
6.59526e-11
-2.16271e-11
1.03265e-09
-2.46233e-10
-2.57202e-10
-2.44471e-10
-2.54602e-10
5.1179e-11
-1.87312e-11
1.02585e-09
-2.47013e-10
-2.55798e-10
-2.45237e-10
-2.53445e-10
3.95684e-11
-1.69626e-11
1.0219e-09
-2.47825e-10
-2.54957e-10
-2.46081e-10
-2.52782e-10
2.98783e-11
-1.57499e-11
1.01899e-09
-2.48467e-10
-2.54037e-10
-2.4675e-10
-2.52013e-10
2.14876e-11
-1.48492e-11
1.01725e-09
-2.4911e-10
-2.53336e-10
-2.47424e-10
-2.51431e-10
1.39293e-11
-1.43291e-11
1.01601e-09
-2.49689e-10
-2.5263e-10
-2.4802e-10
-2.50815e-10
6.84983e-12
-1.39309e-11
1.01533e-09
-2.50269e-10
-2.5202e-10
-2.48606e-10
-2.50271e-10
-1.37779e-11
1.01498e-09
-2.50838e-10
-2.51412e-10
-2.49164e-10
-2.49708e-10
-2.82582e-11
-1.41282e-12
6.19725e-12
2.34737e-11
5.25872e-10
-1.92792e-10
1.19826e-09
-2.64455e-10
-3.36037e-10
-2.96588e-10
-3.44432e-10
4.41099e-11
-1.78305e-11
-1.80016e-10
-1.51751e-10
3.326e-10
-1.08261e-10
1.37942e-09
-2.50592e-10
-2.93911e-10
-2.58695e-10
-2.93595e-10
2.24882e-10
-9.40047e-11
1.19057e-09
-2.48256e-10
-2.72486e-10
-2.48866e-10
-2.6526e-10
1.60937e-10
-6.17123e-11
1.09503e-09
-2.44026e-10
-2.621e-10
-2.42114e-10
-2.56804e-10
1.20644e-10
-5.05923e-11
1.0635e-09
-2.44662e-10
-2.61801e-10
-2.41931e-10
-2.5621e-10
9.06164e-11
-3.89853e-11
1.04568e-09
-2.45556e-10
-2.59185e-10
-2.42513e-10
-2.54411e-10
6.94505e-11
-3.31492e-11
1.03491e-09
-2.4672e-10
-2.58108e-10
-2.43687e-10
-2.53701e-10
5.34696e-11
-2.88571e-11
1.02746e-09
-2.47513e-10
-2.56657e-10
-2.44504e-10
-2.52681e-10
4.10467e-11
-2.60759e-11
1.02309e-09
-2.48332e-10
-2.5575e-10
-2.45393e-10
-2.52084e-10
3.0874e-11
-2.43212e-11
1.01996e-09
-2.48978e-10
-2.54772e-10
-2.46095e-10
-2.51367e-10
2.21282e-11
-2.2899e-11
1.01808e-09
-2.49634e-10
-2.54023e-10
-2.46805e-10
-2.50818e-10
1.43281e-11
-2.21274e-11
1.01674e-09
-2.50223e-10
-2.53276e-10
-2.47421e-10
-2.50224e-10
7.03747e-12
-2.14865e-11
1.01601e-09
-2.50816e-10
-2.52631e-10
-2.48021e-10
-2.49689e-10
-2.12555e-11
1.01563e-09
-2.514e-10
-2.51996e-10
-2.48583e-10
-2.4913e-10
4.90216e-10
7.6496e-11
9.6745e-10
-3.02026e-10
-3.46387e-10
-2.32551e-10
-2.96757e-10
1.03738e-11
5.19725e-11
-1.2469e-10
-1.20438e-10
-1.58017e-11
-1.61139e-10
-1.89506e-10
3.63641e-10
-2.09013e-10
1.37472e-09
-2.78849e-10
-3.15346e-10
-2.57437e-10
-2.95769e-10
2.30925e-10
-1.48391e-10
1.24532e-09
-2.59652e-10
-2.83151e-10
-2.47323e-10
-2.68083e-10
1.65575e-10
-9.66872e-11
1.11537e-09
-2.47996e-10
-2.67249e-10
-2.42369e-10
-2.57429e-10
1.24164e-10
-7.21119e-11
1.06984e-09
-2.46297e-10
-2.64159e-10
-2.41292e-10
-2.55157e-10
9.38793e-11
-5.58069e-11
1.05034e-09
-2.46666e-10
-2.61102e-10
-2.41752e-10
-2.53723e-10
7.17342e-11
-4.63802e-11
1.03828e-09
-2.47535e-10
-2.59481e-10
-2.42928e-10
-2.52964e-10
5.52736e-11
-4.06443e-11
1.03009e-09
-2.48204e-10
-2.57833e-10
-2.43783e-10
-2.52021e-10
4.23986e-11
-3.64603e-11
1.02512e-09
-2.48959e-10
-2.56752e-10
-2.44701e-10
-2.51448e-10
3.19318e-11
-3.41163e-11
1.02168e-09
-2.49573e-10
-2.55661e-10
-2.45429e-10
-2.50754e-10
2.28945e-11
-3.19403e-11
1.01956e-09
-2.50231e-10
-2.54841e-10
-2.46174e-10
-2.50235e-10
1.48457e-11
-3.08718e-11
1.01808e-09
-2.50821e-10
-2.54024e-10
-2.46808e-10
-2.49637e-10
7.28798e-12
-2.98823e-11
1.01725e-09
-2.51429e-10
-2.53335e-10
-2.47425e-10
-2.4911e-10
-2.95446e-11
1.01683e-09
-2.52038e-10
-2.52662e-10
-2.47998e-10
-2.48548e-10
-2.63834e-10
1.24013e-11
5.6317e-11
-4.04738e-12
2.75659e-10
4.96259e-10
-2.89259e-10
1.12096e-09
-2.62883e-10
-3.30706e-10
-2.18611e-10
-2.99973e-10
-5.1596e-11
1.86014e-11
-2.06305e-10
-1.85501e-10
3.17241e-10
-2.03382e-10
1.31348e-09
-2.60734e-10
-3.00444e-10
-2.39071e-10
-2.7922e-10
2.04432e-10
-1.2932e-10
1.16794e-09
-2.49767e-10
-2.7391e-10
-2.3996e-10
-2.58864e-10
1.45132e-10
-9.23795e-11
1.08634e-09
-2.46637e-10
-2.66265e-10
-2.39692e-10
-2.54179e-10
1.06514e-10
-7.2988e-11
1.05836e-09
-2.46774e-10
-2.62913e-10
-2.40235e-10
-2.52638e-10
7.92971e-11
-6.05684e-11
1.04382e-09
-2.47828e-10
-2.60798e-10
-2.41719e-10
-2.52066e-10
6.01011e-11
-5.40479e-11
1.03413e-09
-2.48593e-10
-2.58959e-10
-2.42776e-10
-2.51206e-10
4.55445e-11
-4.8332e-11
1.02815e-09
-2.49418e-10
-2.57759e-10
-2.43822e-10
-2.50718e-10
3.41128e-11
-4.55474e-11
1.02419e-09
-2.50066e-10
-2.56569e-10
-2.4462e-10
-2.50069e-10
2.43225e-11
-4.24072e-11
1.02168e-09
-2.50755e-10
-2.55662e-10
-2.45433e-10
-2.49578e-10
1.5746e-11
-4.10483e-11
1.01997e-09
-2.51365e-10
-2.5477e-10
-2.46099e-10
-2.48981e-10
7.71505e-12
-3.95765e-11
1.01899e-09
-2.5201e-10
-2.54032e-10
-2.46752e-10
-2.48467e-10
-3.91265e-11
1.01849e-09
-2.52652e-10
-2.53311e-10
-2.4734e-10
-2.47893e-10
-1.02892e-10
6.92862e-13
3.36504e-11
-9.52206e-12
7.80704e-11
5.43931e-10
8.88559e-11
9.24172e-10
-2.7013e-10
-3.46872e-10
-2.11839e-10
-2.95624e-10
6.69217e-12
7.78057e-11
-2.16526e-10
-1.83841e-10
-1.71948e-11
-1.92557e-10
-1.96137e-10
3.71832e-10
-2.3387e-10
1.33836e-09
-2.65005e-10
-3.2575e-10
-2.40869e-10
-3.04153e-10
2.20776e-10
-1.59265e-10
1.23347e-09
-2.54306e-10
-2.88504e-10
-2.39459e-10
-2.70193e-10
1.51426e-10
-1.16269e-10
1.10826e-09
-2.48408e-10
-2.70891e-10
-2.39812e-10
-2.55912e-10
1.1145e-10
-9.44923e-11
1.0669e-09
-2.47637e-10
-2.65809e-10
-2.39665e-10
-2.52315e-10
8.32815e-11
-7.86501e-11
1.05022e-09
-2.4856e-10
-2.6309e-10
-2.40834e-10
-2.51489e-10
6.34993e-11
-7.16989e-11
1.0398e-09
-2.49275e-10
-2.60625e-10
-2.4189e-10
-2.5057e-10
4.83261e-11
-6.35029e-11
1.03269e-09
-2.50087e-10
-2.59154e-10
-2.4301e-10
-2.50099e-10
3.64539e-11
-6.0102e-11
1.02816e-09
-2.50711e-10
-2.57762e-10
-2.43826e-10
-2.4943e-10
2.60695e-11
-5.52893e-11
1.02512e-09
-2.51441e-10
-2.56747e-10
-2.44706e-10
-2.48965e-10
1.69516e-11
-5.34731e-11
1.0231e-09
-2.52081e-10
-2.55745e-10
-2.454e-10
-2.48336e-10
8.30763e-12
-5.11931e-11
1.0219e-09
-2.52779e-10
-2.54951e-10
-2.46085e-10
-2.47826e-10
-5.05602e-11
1.0213e-09
-2.53466e-10
-2.54168e-10
-2.46681e-10
-2.47236e-10
-2.4678e-10
-1.15424e-11
9.03406e-11
-1.47166e-11
2.71555e-10
4.89254e-10
-2.6567e-10
1.10512e-09
-2.41144e-10
-3.36135e-10
-2.16469e-10
-3.1299e-10
-4.53973e-11
2.20263e-11
-2.23236e-10
-2.09227e-10
3.03821e-10
-2.02056e-10
1.30667e-09
-2.52965e-10
-3.02753e-10
-2.37045e-10
-2.85681e-10
1.86734e-10
-1.40231e-10
1.16463e-09
-2.49427e-10
-2.76229e-10
-2.39692e-10
-2.58234e-10
1.30801e-10
-1.20578e-10
1.08796e-09
-2.47788e-10
-2.67643e-10
-2.3889e-10
-2.51618e-10
9.51707e-11
-1.00584e-10
1.06158e-09
-2.48718e-10
-2.65205e-10
-2.39623e-10
-2.50476e-10
7.17171e-11
-9.51387e-11
1.04904e-09
-2.49572e-10
-2.6241e-10
-2.40575e-10
-2.49593e-10
5.40538e-11
-8.32839e-11
1.0398e-09
-2.50554e-10
-2.60619e-10
-2.41894e-10
-2.4929e-10
4.06423e-11
-7.92999e-11
1.03414e-09
-2.51195e-10
-2.58953e-10
-2.42783e-10
-2.48605e-10
2.88528e-11
-7.17547e-11
1.03009e-09
-2.52012e-10
-2.57824e-10
-2.43789e-10
-2.48209e-10
1.87203e-11
-6.94535e-11
1.02747e-09
-2.52679e-10
-2.56649e-10
-2.44513e-10
-2.47517e-10
9.13513e-12
-6.5975e-11
1.02585e-09
-2.53442e-10
-2.55788e-10
-2.45242e-10
-2.47012e-10
-6.51179e-11
1.02503e-09
-2.54178e-10
-2.54924e-10
-2.4584e-10
-2.46387e-10
-1.24742e-10
-8.97986e-12
4.28106e-11
-7.64028e-12
9.85519e-11
5.34961e-10
9.02613e-11
9.70322e-10
-2.50594e-10
-3.51981e-10
-2.34113e-10
-3.24627e-10
7.78835e-12
7.59974e-11
-2.30446e-10
-1.95236e-10
-1.49528e-11
-1.6248e-10
-1.80569e-10
3.43925e-10
-2.1013e-10
1.33947e-09
-2.60089e-10
-3.26033e-10
-2.46341e-10
-3.07898e-10
1.93444e-10
-1.6412e-10
1.22579e-09
-2.54801e-10
-2.885e-10
-2.4119e-10
-2.66924e-10
1.34521e-10
-1.62687e-10
1.11608e-09
-2.50272e-10
-2.72046e-10
-2.39723e-10
-2.5301e-10
1.00615e-10
-1.34428e-10
1.07508e-09
-2.4999e-10
-2.67876e-10
-2.39445e-10
-2.50026e-10
7.86626e-11
-1.30756e-10
1.06161e-09
-2.50455e-10
-2.65202e-10
-2.39634e-10
-2.48747e-10
6.05681e-11
-1.11451e-10
1.05023e-09
-2.51472e-10
-2.63077e-10
-2.40844e-10
-2.48578e-10
4.63705e-11
-1.06524e-10
1.04384e-09
-2.52057e-10
-2.6079e-10
-2.41732e-10
-2.47842e-10
3.31342e-11
-9.39084e-11
1.03829e-09
-2.52956e-10
-2.59468e-10
-2.42938e-10
-2.47542e-10
2.16025e-11
-9.06263e-11
1.03493e-09
-2.53701e-10
-2.58097e-10
-2.437e-10
-2.46727e-10
1.05334e-11
-8.50586e-11
1.03265e-09
-2.546e-10
-2.57189e-10
-2.4448e-10
-2.46231e-10
-8.38079e-11
1.03153e-09
-2.55434e-10
-2.56235e-10
-2.45053e-10
-2.45567e-10
-2.84658e-10
8.64771e-13
5.76212e-11
3.58528e-12
3.12849e-10
4.13015e-10
-2.05966e-10
1.07455e-09
-2.40912e-10
-3.28064e-10
-2.23576e-10
-3.07369e-10
-3.37544e-11
3.22119e-11
-2.06291e-10
-1.83976e-10
2.45818e-10
-2.06461e-10
1.28522e-09
-2.57159e-10
-3.03853e-10
-2.3903e-10
-2.75641e-10
1.62829e-10
-2.45273e-10
1.19498e-09
-2.54419e-10
-2.79945e-10
-2.40532e-10
-2.54508e-10
1.20649e-10
-1.93296e-10
1.11606e-09
-2.52952e-10
-2.72015e-10
-2.39737e-10
-2.50309e-10
9.45485e-11
-1.86705e-10
1.08799e-09
-2.5159e-10
-2.67622e-10
-2.38911e-10
-2.47815e-10
7.30157e-11
-1.51435e-10
1.06693e-09
-2.52296e-10
-2.65786e-10
-2.3968e-10
-2.47653e-10
5.58107e-11
-1.45151e-10
1.05839e-09
-2.52628e-10
-2.62893e-10
-2.40252e-10
-2.46789e-10
3.89701e-11
-1.24204e-10
1.05037e-09
-2.53715e-10
-2.61084e-10
-2.41766e-10
-2.46674e-10
2.49711e-11
-1.20664e-10
1.04571e-09
-2.5441e-10
-2.5917e-10
-2.42531e-10
-2.45563e-10
1.20324e-11
-1.12319e-10
1.0422e-09
-2.55411e-10
-2.5819e-10
-2.43359e-10
-2.45038e-10
-1.10605e-10
1.04035e-09
-2.56291e-10
-2.57104e-10
-2.43838e-10
-2.44276e-10
-3.92949e-11
6.2308e-12
-2.94411e-12
3.60082e-11
3.03541e-10
7.6556e-11
9.33816e-10
-2.48298e-10
-3.40454e-10
-2.29247e-10
-3.22397e-10
6.74807e-11
5.87255e-11
-1.73369e-10
-1.293e-10
1.2575e-11
-1.02885e-10
-1.12713e-10
2.0642e-10
-3.0244e-10
1.33032e-09
-2.72569e-10
-3.28156e-10
-2.63918e-10
-2.72575e-10
1.64117e-10
-4.1246e-10
1.28503e-09
-2.75491e-10
-3.0382e-10
-2.39003e-10
-2.57223e-10
1.40263e-10
-3.43911e-10
1.22589e-09
-2.66898e-10
-2.88466e-10
-2.41232e-10
-2.54825e-10
1.16306e-10
-3.03868e-10
1.16472e-09
-2.58225e-10
-2.76205e-10
-2.39728e-10
-2.49449e-10
9.23874e-11
-2.20809e-10
1.10832e-09
-2.55901e-10
-2.70868e-10
-2.39835e-10
-2.48425e-10
7.20934e-11
-2.04467e-10
1.0864e-09
-2.54175e-10
-2.66245e-10
-2.39716e-10
-2.46656e-10
5.05467e-11
-1.65641e-10
1.06989e-09
-2.55151e-10
-2.64134e-10
-2.41312e-10
-2.4631e-10
3.19191e-11
-1.60972e-10
1.06356e-09
-2.56213e-10
-2.61778e-10
-2.41956e-10
-2.44677e-10
1.51463e-11
-1.48766e-10
1.05857e-09
-2.57657e-10
-2.60818e-10
-2.42756e-10
-2.44112e-10
-1.46604e-10
1.05582e-09
-2.58783e-10
-2.59625e-10
-2.42992e-10
-2.43243e-10
-6.02659e-11
4.35517e-11
9.32713e-11
2.06926e-10
5.88312e-11
9.36503e-10
-3.23006e-10
-3.40612e-10
-2.29859e-10
-2.49016e-10
1.22145e-11
7.62334e-11
-1.12467e-10
-1.0298e-10
6.74491e-11
-1.29259e-10
-1.73399e-10
2.11109e-10
3.21027e-11
1.07592e-09
-3.07379e-10
-3.28142e-10
-2.23708e-10
-2.40978e-10
-3.3826e-11
-1.84267e-10
-2.06371e-10
2.02548e-10
-5.34923e-10
1.33997e-09
-3.07913e-10
-3.26013e-10
-2.46391e-10
-2.60084e-10
1.59523e-10
-4.89275e-10
1.3069e-09
-2.85687e-10
-3.02736e-10
-2.37072e-10
-2.52973e-10
1.29419e-10
-3.71841e-10
1.23359e-09
-2.70178e-10
-2.88482e-10
-2.39475e-10
-2.54316e-10
9.66974e-11
-3.17279e-10
1.16804e-09
-2.58856e-10
-2.73887e-10
-2.39981e-10
-2.49788e-10
6.16589e-11
-2.3102e-10
1.11546e-09
-2.57418e-10
-2.67215e-10
-2.42391e-10
-2.48017e-10
3.55712e-11
-2.2496e-10
1.09514e-09
-2.56804e-10
-2.62063e-10
-2.42152e-10
-2.44051e-10
1.63535e-11
-2.10286e-10
1.08513e-09
-2.5821e-10
-2.61198e-10
-2.42221e-10
-2.42763e-10
-2.0772e-10
1.08029e-09
-2.59505e-10
-2.60093e-10
-2.41661e-10
-2.41501e-10
-5.94393e-11
1.81366e-11
1.00134e-10
-2.19858e-10
-2.63209e-11
7.51194e-11
-3.92062e-11
2.42367e-10
2.65803e-10
7.59807e-11
9.70442e-10
-3.24679e-10
-3.52001e-10
-2.34139e-10
-2.50604e-10
-1.50213e-11
9.02288e-11
-1.80574e-10
-1.62482e-10
7.78283e-12
-1.9523e-10
-2.3043e-10
2.33899e-10
2.20125e-11
1.10526e-09
-3.1301e-10
-3.36135e-10
-2.1649e-10
-2.41163e-10
-4.54006e-11
-2.09221e-10
-2.23225e-10
2.03366e-10
-5.4395e-10
1.33846e-09
-3.04152e-10
-3.25746e-10
-2.4089e-10
-2.65033e-10
1.4833e-10
-4.96351e-10
1.31361e-09
-2.79201e-10
-3.00436e-10
-2.39096e-10
-2.60767e-10
9.38712e-11
-3.63811e-10
1.24546e-09
-2.68056e-10
-2.83122e-10
-2.47345e-10
-2.59691e-10
4.58052e-11
-3.3277e-10
1.19079e-09
-2.65247e-10
-2.7244e-10
-2.48923e-10
-2.48304e-10
1.85615e-11
-3.11071e-10
1.15897e-09
-2.70196e-10
-2.72506e-10
-2.45541e-10
-2.42704e-10
-3.10291e-10
1.14965e-09
-2.7309e-10
-2.72902e-10
-2.41742e-10
-2.40662e-10
-2.07128e-10
5.134e-12
1.19949e-11
4.46157e-12
2.61519e-10
-2.26011e-10
-2.47309e-11
6.54436e-11
-4.41427e-11
2.51454e-10
2.89252e-10
7.78013e-11
9.24186e-10
-2.95615e-10
-3.46874e-10
-2.11838e-10
-2.70147e-10
-1.71988e-11
8.88482e-11
-1.96136e-10
-1.92552e-10
6.68307e-12
-1.83836e-10
-2.16525e-10
2.08938e-10
1.85951e-11
1.12103e-09
-2.99969e-10
-3.30709e-10
-2.1862e-10
-2.62926e-10
-5.16074e-11
-1.85506e-10
-2.06318e-10
1.0805e-10
-4.90358e-10
1.37488e-09
-2.95725e-10
-3.15339e-10
-2.57459e-10
-2.78921e-10
1.85874e-11
-5.26203e-10
1.37977e-09
-2.93571e-10
-2.93881e-10
-2.58762e-10
-2.50659e-10
3.13154e-12
-5.16392e-10
1.29581e-09
-2.98848e-10
-2.95045e-10
-2.45901e-10
-2.3524e-10
-5.1659e-10
1.27532e-09
-2.99527e-10
-2.97877e-10
-2.35469e-10
-2.3282e-10
-4.46798e-11
3.89923e-12
-2.29144e-12
4.3072e-11
-2.41751e-10
1.37535e-11
1.80325e-11
4.81512e-12
2.82954e-10
-2.31781e-10
-3.58574e-11
7.98495e-11
-3.88963e-11
2.4528e-10
1.92555e-10
5.1975e-11
9.67578e-10
-2.9669e-10
-3.46399e-10
-2.32548e-10
-3.02107e-10
-1.58023e-11
7.6482e-11
-1.89495e-10
-1.61141e-10
1.03582e-11
-1.20431e-10
-1.24697e-10
1.53816e-11
-1.78916e-11
1.19864e-09
-3.44478e-10
-3.36097e-10
-2.96668e-10
-2.64548e-10
4.40339e-11
-1.5184e-10
-1.80181e-10
-8.58196e-12
3.1504e-11
1.03001e-09
-3.39187e-10
-3.24824e-10
-2.48e-10
-2.18018e-10
3.71209e-11
-2.31815e-10
-2.29221e-10
2.36599e-11
1.02576e-09
-3.37687e-10
-3.35788e-10
-2.25913e-10
-2.24918e-10
2.36143e-11
-2.37462e-10
-2.3614e-10
-8.64625e-11
-1.13662e-11
2.23513e-11
1.27455e-10
-1.64395e-10
2.93717e-12
-6.3423e-11
2.06987e-10
-2.2036e-10
3.95009e-11
-2.66957e-11
-1.8337e-11
2.57395e-10
-2.17516e-10
8.78847e-12
-4.66668e-12
-2.09194e-11
2.57976e-10
-6.08258e-11
-1.63818e-11
6.24983e-13
7.64668e-11
1.38552e-10
-1.05816e-11
9.62743e-10
6.10942e-11
6.12426e-11
-9.36646e-11
-9.39995e-11
1.36605e-10
-9.80803e-12
1.28681e-09
1.44926e-10
-2.28139e-11
1.16396e-09
1.23063e-10
-1.60244e-11
1.11811e-09
1.05899e-10
-1.54996e-11
1.08844e-09
8.72798e-11
-1.2648e-11
1.07161e-09
7.25312e-11
-1.17248e-11
1.05799e-09
5.88593e-11
-1.05501e-11
1.04925e-09
4.71072e-11
-9.92467e-12
1.04297e-09
3.63697e-11
-9.41709e-12
1.03865e-09
2.65938e-11
-9.05823e-12
1.03568e-09
1.74056e-11
-8.83358e-12
1.03367e-09
8.61364e-12
-8.66823e-12
1.03245e-09
-8.59682e-12
1.03188e-09
-4.83528e-11
-8.79012e-13
-1.75337e-11
3.4415e-13
6.64214e-11
1.31864e-10
-1.84786e-11
9.60429e-10
6.45203e-11
6.4823e-11
-9.21749e-11
-9.21232e-11
1.35826e-10
-1.30601e-11
1.29469e-09
1.45921e-10
-4.68726e-11
1.17273e-09
1.24449e-10
-3.26722e-11
1.12317e-09
1.06678e-10
-3.13012e-11
1.09211e-09
8.79621e-11
-2.56019e-11
1.07385e-09
7.3009e-11
-2.36587e-11
1.05953e-09
5.92703e-11
-2.13674e-11
1.05041e-09
4.74197e-11
-2.0071e-11
1.0439e-09
3.66258e-11
-1.9077e-11
1.03944e-09
2.67802e-11
-1.8327e-11
1.03637e-09
1.75314e-11
-1.78814e-11
1.03431e-09
8.67161e-12
-1.75282e-11
1.03305e-09
-1.73877e-11
1.03245e-09
-8.32511e-12
1.04309e-12
-1.21294e-11
1.94114e-11
1.54074e-10
-4.58817e-11
1.1074e-09
5.73019e-11
3.89876e-11
-7.99444e-11
-5.21609e-11
1.6408e-10
-9.14423e-12
1.3655e-09
1.6239e-10
-6.26347e-11
1.20802e-09
1.36636e-10
-4.77125e-11
1.13583e-09
1.13582e-10
-4.54872e-11
1.10074e-09
9.24333e-11
-3.81868e-11
1.07941e-09
7.57612e-11
-3.53705e-11
1.06329e-09
6.11405e-11
-3.23528e-11
1.05307e-09
4.86492e-11
-3.0451e-11
1.04596e-09
3.74801e-11
-2.91054e-11
1.04116e-09
2.73421e-11
-2.79609e-11
1.03785e-09
1.78899e-11
-2.73363e-11
1.03565e-09
8.84489e-12
-2.67768e-11
1.03431e-09
-2.65761e-11
1.03367e-09
1.13788e-10
6.70943e-11
8.43092e-10
4.5401e-11
5.42407e-11
-5.33541e-11
-5.86219e-11
4.50005e-11
-7.5813e-11
-5.92588e-11
1.46193e-10
-6.67167e-12
1.33984e-09
1.49342e-10
-7.1815e-11
1.25135e-09
1.35849e-10
-6.74928e-11
1.14864e-09
1.14084e-10
-6.07782e-11
1.10689e-09
9.37465e-11
-5.23767e-11
1.08487e-09
7.6833e-11
-4.7959e-11
1.06778e-09
6.22446e-11
-4.43672e-11
1.05669e-09
4.95736e-11
-4.164e-11
1.04898e-09
3.82908e-11
-3.99733e-11
1.04383e-09
2.79611e-11
-3.82978e-11
1.04023e-09
1.83301e-11
-3.74809e-11
1.03786e-09
9.06544e-12
-3.66284e-11
1.03637e-09
-3.63558e-11
1.03568e-09
-9.19919e-11
9.75457e-12
-1.34959e-11
1.86611e-11
1.44168e-10
1.53953e-10
-5.57735e-11
1.05372e-09
4.01357e-11
6.12337e-11
-6.55531e-11
-7.34225e-11
1.56715e-10
-7.45658e-11
1.31347e-09
1.46738e-10
-8.28255e-11
1.19325e-09
1.2403e-10
-7.50287e-11
1.1233e-09