/*--------------------------------*- C++ -*----------------------------------*\
| =========                 |                                                 |
| \\      /  F ield         | OpenFOAM: The Open Source CFD Toolbox           |
|  \\    /   O peration     | Version:  2.1.1                                 |
|   \\  /    A nd           | Web:      www.OpenFOAM.org                      |
|    \\/     M anipulation  |                                                 |
\*---------------------------------------------------------------------------*/
FoamFile
{
    version     2.0;
    format      ascii;
    class       volVectorField;
    location    "0.0015";
    object      U;
}
// * * * * * * * * * * * * * * * * * * * * * * * * * * * * * * * * * * * * * //

dimensions      [0 1 -1 0 0 0 0];

internalField   nonuniform List<vector> 
10233
(
(0.000290107 0.000302027 0.0730296)
(0.016309 0.000433143 0.0804461)
(0.00690669 9.98071e-05 0.0838259)
(0.00315647 -2.35279e-05 0.08471)
(0.00130386 -6.14537e-05 0.0847561)
(0.00114194 -7.49832e-05 0.0848335)
(0.000831741 -7.8034e-05 0.0849341)
(0.000734108 -7.78301e-05 0.0850277)
(0.000568834 -7.5281e-05 0.0851088)
(0.000474136 -7.24505e-05 0.0851831)
(0.00036069 -6.97325e-05 0.0852507)
(0.000273943 -6.74307e-05 0.085315)
(0.000180946 -6.64753e-05 0.0853772)
(9.9358e-05 -6.60898e-05 0.0854387)
(1.39757e-05 -6.48035e-05 0.0855001)
(0.00158622 0.00225675 0.0703626)
(0.0146931 0.00232481 0.0801645)
(0.0060547 -0.000114837 0.0836103)
(0.00303328 -0.00024024 0.0847597)
(0.00135266 -0.00021996 0.0848781)
(0.00116816 -0.000219053 0.0849345)
(0.000844817 -0.000205075 0.085022)
(0.000736062 -0.00019451 0.085107)
(0.000569242 -0.000183339 0.0851825)
(0.000472728 -0.000174359 0.0852526)
(0.000358746 -0.000166202 0.0853173)
(0.000271999 -0.000159678 0.0853802)
(0.000179807 -0.000154808 0.0854409)
(9.82802e-05 -0.000151363 0.0855019)
(1.48839e-05 -0.000149338 0.0855638)
(-0.00631868 0.011674 0.044706)
(0.00803116 0.00284382 0.0816429)
(0.00384601 -0.000353246 0.0838317)
(0.00259306 -0.000831991 0.0849905)
(0.00138156 -0.000613889 0.0850844)
(0.00118631 -0.000477025 0.0850609)
(0.000863665 -0.000391071 0.0851158)
(0.000743658 -0.0003429 0.0851876)
(0.000575791 -0.000309574 0.0852553)
(0.000476374 -0.000286998 0.0853213)
(0.000360789 -0.000269619 0.0853841)
(0.000272812 -0.000257162 0.0854448)
(0.000179365 -0.000248057 0.0855052)
(9.79193e-05 -0.000241612 0.0855671)
(1.32948e-05 -0.0002376 0.0856306)
(-0.00892414 -0.00271159 0.081483)
(0.00196248 -0.00154618 0.0838166)
(0.00237825 -0.00187918 0.0856026)
(0.00150307 -0.00111611 0.0854225)
(0.00114388 -0.000738109 0.085228)
(0.000853668 -0.000560126 0.0852293)
(0.000732186 -0.00047785 0.0852788)
(0.000575432 -0.000427923 0.0853365)
(0.000477743 -0.00039601 0.0853956)
(0.000362055 -0.00037276 0.0854559)
(0.000273483 -0.000354783 0.0855142)
(0.000179517 -0.000341612 0.0855753)
(9.82459e-05 -0.000332293 0.0856389)
(1.14161e-05 -0.000327196 0.0857038)
(-0.0131255 0.00631594 0.0745317)
(0.00576426 -0.00128984 0.0822853)
(0.00358283 -0.00290926 0.0851683)
(0.00218135 -0.0018335 0.085694)
(0.00130357 -0.00112711 0.0854008)
(0.000905819 -0.000814323 0.0853279)
(0.000752328 -0.000667266 0.085365)
(0.000586921 -0.000585496 0.0854138)
(0.000487388 -0.000532778 0.0854697)
(0.000366497 -0.00049765 0.0855274)
(0.000278961 -0.000470138 0.0855874)
(0.000180847 -0.000451289 0.0856502)
(9.92802e-05 -0.000438694 0.0857148)
(9.68719e-06 -0.000432027 0.0857825)
(-0.000882918 -0.0033695 0.0630825)
(0.00845667 -0.00310705 0.080916)
(0.00550204 -0.00306825 0.0838483)
(0.00335411 -0.00241815 0.0858533)
(0.00166489 -0.00141068 0.0855849)
(0.0010045 -0.000971057 0.0854477)
(0.000789377 -0.000804473 0.0854607)
(0.000600745 -0.000720668 0.0855089)
(0.00049753 -0.000662267 0.0855592)
(0.000370983 -0.0006205 0.0856132)
(0.0002846 -0.000585591 0.085672)
(0.000182018 -0.000561904 0.0857358)
(0.000101473 -0.000544867 0.0858039)
(8.35318e-06 -0.000536188 0.0858764)
(-0.00253719 -0.00340355 0.0849308)
(0.00980971 -0.00366123 0.0814532)
(0.00490404 -0.00324812 0.0850285)
(0.00248926 -0.00190767 0.0858225)
(0.00126911 -0.00128384 0.0856093)
(0.000916079 -0.00104453 0.0855774)
(0.000657118 -0.000935364 0.0856159)
(0.000532101 -0.000853174 0.0856618)
(0.000381137 -0.00079261 0.0857107)
(0.000294761 -0.000740461 0.0857673)
(0.000183231 -0.000707827 0.0858324)
(0.000105608 -0.000685299 0.0859046)
(7.49545e-06 -0.000675416 0.0859819)
(0.00216582 0.00789605 0.0626859)
(0.00910804 -0.00123777 0.0806155)
(0.00625099 -0.00279485 0.0838561)
(0.00340113 -0.0021919 0.0861597)
(0.00159565 -0.00156743 0.0859329)
(0.00105354 -0.00129928 0.0857866)
(0.000734676 -0.00117645 0.0857816)
(0.000590837 -0.00107207 0.0858065)
(0.000394615 -0.000987186 0.0858426)
(0.000307389 -0.000907435 0.0858929)
(0.000182864 -0.000855335 0.0859608)
(0.000113036 -0.000821978 0.0860401)
(8.34203e-06 -0.000809522 0.0861256)
(-0.00614102 0.00151266 0.0821753)
(0.00913216 -0.00239324 0.0825727)
(0.00484665 -0.00301654 0.0861643)
(0.00219093 -0.00232502 0.0866318)
(0.00140586 -0.0020059 0.0863178)
(0.000867524 -0.001729 0.0861052)
(0.000719691 -0.00149546 0.0860332)
(0.000430015 -0.0013245 0.0860142)
(0.00032979 -0.00118109 0.0860447)
(0.000171889 -0.00109584 0.0861127)
(0.000121927 -0.00104839 0.0862002)
(1.14315e-05 -0.00103612 0.0862951)
(-0.00487227 -0.00406439 0.0593974)
(0.0122303 -0.00424267 0.0853073)
(0.00572629 -0.00408577 0.0861237)
(0.0032682 -0.00419294 0.0882301)
(0.00199907 -0.00354704 0.0876299)
(0.00118728 -0.00290715 0.0869555)
(0.000987876 -0.00229918 0.0865797)
(0.000525155 -0.00185334 0.0863435)
(0.000385466 -0.00154607 0.0862879)
(0.000161487 -0.00135942 0.0863529)
(0.000142443 -0.00127174 0.0864663)
(2.57524e-05 -0.00125311 0.0865826)
(-0.00292972 0.00297183 0.0617965)
(0.00957839 -0.00594241 0.0911025)
(0.00422214 -0.00547903 0.0874824)
(0.0034517 -0.00601197 0.0889138)
(0.00205534 -0.00542032 0.0887578)
(0.00180486 -0.00409672 0.0878699)
(0.000877162 -0.00306412 0.0870633)
(0.000552146 -0.00237023 0.0867473)
(0.000119547 -0.00198596 0.0867194)
(0.00016488 -0.00185115 0.0868609)
(5.38932e-05 -0.00184435 0.0870062)
(-0.00368901 -0.000271384 0.0622624)
(0.00684053 0.00272937 0.0863423)
(0.00590041 -0.00481511 0.0868488)
(0.00347364 -0.00602081 0.0874766)
(0.00338725 -0.00549045 0.0886132)
(0.00201653 -0.00483794 0.0883801)
(0.00122675 -0.00379466 0.0878201)
(0.000239445 -0.00298738 0.0877707)
(0.00020044 -0.00275547 0.0881107)
(0.000107751 -0.00272131 0.0883921)
(-0.00637925 0.00666686 0.0746754)
(0.00340026 -0.0018573 0.0867051)
(0.00746128 -0.00336635 0.0852329)
(0.00402632 -0.0030657 0.0864173)
(0.00250247 -0.00431499 0.0880647)
(2.66916e-05 -0.0047242 0.08976)
(-0.00022972 -0.00525627 0.0904541)
(-6.22399e-06 -0.00538198 0.0906497)
(0.000221689 0.00581322 0.0542498)
(0.000937125 0.0115887 0.0768397)
(0.00721457 0.0119981 0.084354)
(0.00579664 -0.00242582 0.0852615)
(-0.00198545 -0.00137982 0.0878305)
(-0.00252701 -0.00488265 0.089983)
(-0.000838198 -0.00751718 0.0900951)
(0.00138197 0.0027997 0.0612055)
(-0.0184887 0.00851729 0.0628444)
(-0.0095282 -0.00149957 0.0848273)
(-0.00247925 -0.000115492 0.0858293)
(-0.0064719 0.000895405 0.058241)
(0.051355 0.000750483 0.122389)
(0.0218836 0.000516315 0.144015)
(0.0159841 -2.48142e-05 0.139414)
(0.00958 -0.000173359 0.13443)
(0.00809307 -0.000304891 0.134119)
(0.0057507 -0.000282325 0.13348)
(0.0047586 -0.000287232 0.133476)
(0.00361249 -0.000265756 0.133248)
(0.00292328 -0.000254738 0.133243)
(0.00221854 -0.000242957 0.133161)
(0.00168299 -0.000233751 0.133159)
(0.0011532 -0.000227766 0.133131)
(0.000689256 -0.000223064 0.133132)
(0.000221768 -0.00022039 0.133126)
(-0.00579658 0.0021957 0.052613)
(0.046398 0.000805162 0.123856)
(0.0194474 0.000314073 0.145967)
(0.0150742 -0.00157819 0.140401)
(0.00934979 -0.00151109 0.134871)
(0.00801841 -0.00149308 0.134294)
(0.0057818 -0.00119221 0.133596)
(0.00477966 -0.00105867 0.133528)
(0.00364656 -0.000919799 0.133282)
(0.00294669 -0.00083935 0.133262)
(0.00223979 -0.000780966 0.133176)
(0.0016982 -0.000738208 0.13317)
(0.0011638 -0.000713914 0.13314)
(0.000695726 -0.000695197 0.133139)
(0.000223835 -0.000688275 0.133132)
(-0.00274543 -0.000275224 0.0240636)
(0.0380343 -0.00450997 0.136699)
(0.0180375 0.000771596 0.151948)
(0.0144981 -0.00247689 0.142418)
(0.00988579 -0.00207527 0.135223)
(0.00847694 -0.00225081 0.134259)
(0.00621378 -0.00183639 0.133602)
(0.00504151 -0.00167869 0.133514)
(0.00383698 -0.00149586 0.133278)
(0.00306419 -0.00138183 0.133257)
(0.00232094 -0.00130083 0.133173)
(0.00175055 -0.00123287 0.13317)
(0.00119637 -0.00119603 0.133139)
(0.000714812 -0.00116348 0.133139)
(0.000229323 -0.00115248 0.133131)
(0.0244457 -0.0215085 0.116913)
(0.0209044 -0.0106151 0.152245)
(0.0131005 -0.00753726 0.146829)
(0.0097895 -0.00476938 0.137229)
(0.0082815 -0.00387265 0.134646)
(0.00637049 -0.00300829 0.133848)
(0.00512424 -0.00256458 0.133642)
(0.0039463 -0.00225643 0.133371)
(0.00314293 -0.00204195 0.133315)
(0.00238981 -0.00191834 0.133217)
(0.00180335 -0.00180358 0.133208)
(0.00123322 -0.00175004 0.133171)
(0.00073897 -0.00169804 0.13317)
(0.000235291 -0.00168189 0.133159)
(-0.00878872 -0.0153937 0.0953973)
(0.0337521 -0.0128952 0.122646)
(0.0220151 -0.00878722 0.148442)
(0.0134049 -0.00612854 0.140225)
(0.0100903 -0.00473385 0.135097)
(0.00749954 -0.00386565 0.133831)
(0.00578274 -0.00330689 0.133636)
(0.00435588 -0.00298839 0.133373)
(0.00340115 -0.00270168 0.133321)
(0.00255925 -0.0025599 0.133221)
(0.00191885 -0.0023907 0.133217)
(0.00130157 -0.00232104 0.133173)
(0.000782381 -0.00224045 0.133175)
(0.000244953 -0.0022177 0.133162)
(-0.00375444 0.00336808 0.0457556)
(0.0364892 -0.0257333 0.106391)
(0.0283632 -0.0156601 0.149883)
(0.0147921 -0.00907113 0.145804)
(0.0102342 -0.00639092 0.136993)
(0.00769954 -0.005229 0.134289)
(0.00597385 -0.00438331 0.133857)
(0.00454253 -0.00401157 0.133545)
(0.00356896 -0.00357116 0.133453)
(0.00270074 -0.00340257 0.133322)
(0.00204224 -0.00314479 0.133316)
(0.00138241 -0.00306502 0.133258)
(0.000840989 -0.00294787 0.133261)
(0.000256757 -0.00292247 0.133243)
(-0.00286539 -0.0195072 0.116579)
(0.0384084 -0.0118807 0.123324)
(0.0237334 -0.00845917 0.148396)
(0.0136068 -0.00695361 0.1404)
(0.00937701 -0.00622653 0.135045)
(0.00696944 -0.00540137 0.134024)
(0.00516094 -0.00516289 0.13364)
(0.00401006 -0.00454561 0.133546)
(0.00298808 -0.00435777 0.133374)
(0.00225754 -0.00394899 0.133371)
(0.00149724 -0.00383788 0.13328)
(0.000922749 -0.00364855 0.133282)
(0.00026832 -0.0036111 0.133248)
(-0.00302708 0.00546119 0.0505853)
(0.0405327 -0.0232781 0.113802)
(0.0289551 -0.0148074 0.15119)
(0.0138298 -0.00891575 0.145622)
(0.00915915 -0.008459 0.137279)
(0.00697427 -0.00698457 0.134721)
(0.00539801 -0.00697561 0.134028)
(0.00438091 -0.0059796 0.13386)
(0.00330631 -0.00578645 0.13364)
(0.00256588 -0.00512819 0.133644)
(0.00168004 -0.00504309 0.133518)
(0.00106255 -0.00478277 0.133528)
(0.000290203 -0.00475698 0.133478)
(-0.000281857 -0.0150937 0.103506)
(0.0359124 -0.00813503 0.124262)
(0.0203867 -0.00895318 0.149018)
(0.0111535 -0.0111685 0.142428)
(0.00845011 -0.00916797 0.137279)
(0.00622773 -0.00938312 0.135051)
(0.00522996 -0.00770457 0.134292)
(0.00386734 -0.00750356 0.133837)
(0.00301175 -0.006375 0.133851)
(0.00183873 -0.00621601 0.133607)
(0.0011983 -0.00578631 0.133596)
(0.000286828 -0.0057482 0.133482)
(-0.00843832 0.00372088 0.0335997)
(0.0247158 -0.0199093 0.119029)
(0.0161027 -0.0162256 0.154732)
(0.0089453 -0.0204386 0.149034)
(0.00890887 -0.0138562 0.145637)
(0.00695331 -0.0136219 0.140412)
(0.00639125 -0.0102429 0.137)
(0.00473424 -0.0100964 0.135106)
(0.00387627 -0.00828792 0.134653)
(0.00225238 -0.00848058 0.134268)
(0.00150162 -0.00802482 0.134296)
(0.000310141 -0.00809074 0.134125)
(0.00215908 -0.0293081 0.0619097)
(0.0198599 -0.0246842 0.119133)
(0.00823547 -0.0359131 0.1243)
(0.0148492 -0.0289548 0.151208)
(0.00848237 -0.0237398 0.148408)
(0.00908255 -0.0147949 0.14581)
(0.00613322 -0.0134088 0.140234)
(0.00477581 -0.00979661 0.137236)
(0.00207799 -0.00988883 0.135236)
(0.00152316 -0.00936153 0.134877)
(0.000181667 -0.00957521 0.134437)
(0.00233652 -0.0317563 0.0619511)
(0.00433028 -0.0275111 0.115968)
(0.0232857 -0.0405172 0.113816)
(0.0118761 -0.0384045 0.123335)
(0.0156612 -0.0283609 0.14989)
(0.0087833 -0.0220162 0.148453)
(0.00754184 -0.0131066 0.14684)
(0.00247356 -0.0145046 0.142441)
(0.00159484 -0.0150887 0.140413)
(3.70003e-05 -0.0159825 0.13943)
(-0.00323068 -0.00619761 0.0952038)
(0.00247284 -0.0300569 0.110288)
(0.0257356 -0.0364909 0.106391)
(0.0128927 -0.0337572 0.122651)
(0.0106165 -0.0209155 0.152256)
(-0.000777098 -0.0180439 0.151977)
(-0.000295951 -0.0194914 0.145987)
(-0.00049127 -0.021873 0.144031)
(-0.00350468 -0.000926427 0.0319145)
(0.00368933 -0.00264431 0.0948336)
(0.00841356 -0.0226615 0.107317)
(0.0215198 -0.024454 0.116919)
(0.004486 -0.03807 0.136732)
(-0.000787333 -0.0464536 0.123863)
(-0.00072498 -0.0513625 0.122418)
(-0.00349502 -0.0251617 0.0654338)
(-0.00462763 -0.0359063 0.0836329)
(-0.0103849 -0.0199833 0.115919)
(-0.00421285 -0.0257505 0.114118)
(-0.00598756 0.000428774 0.0303521)
(0.0114989 0.000101751 0.0945004)
(0.0033082 0.000395274 0.124129)
(0.00961843 -0.000283998 0.107741)
(0.007126 -0.000217045 0.100548)
(0.00756931 -0.000360404 0.097179)
(0.00596608 -0.00032832 0.095253)
(0.00544221 -0.000350243 0.0938888)
(0.00439099 -0.000333924 0.0930023)
(0.00371118 -0.00033014 0.0924098)
(0.00290676 -0.000321375 0.0920039)
(0.00224826 -0.000314684 0.0917343)
(0.00156389 -0.000309891 0.0915533)
(0.000940926 -0.000305883 0.0914461)
(0.000305498 -0.000303809 0.0913951)
(-0.00621946 0.000611471 0.0268568)
(0.0102154 -0.00220584 0.0939315)
(0.00243952 -0.00116326 0.123951)
(0.00898489 -0.00250262 0.107838)
(0.0070554 -0.00164121 0.100756)
(0.00745639 -0.00161396 0.0974194)
(0.00597194 -0.00131265 0.0954444)
(0.00543345 -0.00123816 0.0940284)
(0.00440895 -0.00112252 0.0931119)
(0.00372247 -0.00106505 0.0924969)
(0.00292152 -0.00101709 0.0920781)
(0.0022594 -0.00098212 0.0917984)
(0.00157245 -0.000961591 0.0916115)
(0.000946211 -0.000945088 0.0914996)
(0.000306366 -0.000938811 0.0914462)
(-0.00283396 -0.00129715 0.0125484)
(0.0106891 -0.00192206 0.103841)
(0.00416977 0.000996059 0.12899)
(0.00939321 -0.00297919 0.110323)
(0.00800108 -0.00204655 0.101624)
(0.00787805 -0.00231873 0.0980792)
(0.00633688 -0.0019759 0.0959516)
(0.00562856 -0.00194395 0.0943861)
(0.00456261 -0.00181099 0.0933705)
(0.00381577 -0.00174219 0.0926941)
(0.00298935 -0.00168189 0.0922392)
(0.00230357 -0.00162898 0.0919342)
(0.00160088 -0.00159997 0.091733)
(0.000963683 -0.00157191 0.0916113)
(0.000311175 -0.00156207 0.091554)
(0.00581117 -0.00422672 0.0821198)
(0.00356224 4.66154e-05 0.125981)
(0.00642581 -0.00396928 0.115071)
(0.00759499 -0.00334432 0.103114)
(0.00750304 -0.00336154 0.0986282)
(0.00634895 -0.00294436 0.0964808)
(0.00559508 -0.00280869 0.094832)
(0.0046091 -0.00263146 0.0937352)
(0.00385051 -0.00250744 0.0929882)
(0.00303429 -0.00242607 0.0924943)
(0.00234109 -0.00234076 0.0921552)
(0.00162953 -0.00230285 0.0919348)
(0.000984138 -0.00225892 0.0917982)
(0.000315921 -0.00224661 0.0917352)
(-0.00760209 0.00110208 0.0342158)
(0.00641785 0.00150754 0.100605)
(0.00637668 -0.00338797 0.123982)
(0.00805353 -0.00424952 0.109221)
(0.00820975 -0.00409221 0.10076)
(0.00691697 -0.00373043 0.0977004)
(0.00594676 -0.00355467 0.0957146)
(0.00486407 -0.00339858 0.0943866)
(0.00402079 -0.00323935 0.093476)
(0.00315598 -0.00315672 0.0928996)
(0.00242681 -0.00303555 0.0924948)
(0.00168296 -0.00298998 0.0922394)
(0.0010201 -0.00292227 0.0920779)
(0.000323255 -0.00290576 0.0920046)
(-0.00590601 0.00120202 0.0237649)
(0.00983416 -0.00727988 0.0805899)
(0.00540918 -0.00380183 0.1263)
(0.00654327 -0.00502253 0.115756)
(0.00775076 -0.00501122 0.102771)
(0.00689811 -0.00468797 0.0986384)
(0.00594052 -0.00444479 0.0965674)
(0.00492628 -0.00431559 0.0951844)
(0.00409194 -0.0040954 0.0941233)
(0.0032381 -0.00402317 0.0934764)
(0.00250789 -0.00385335 0.0929885)
(0.00174324 -0.00381708 0.0926945)
(0.00106872 -0.00372434 0.0924971)
(0.000332214 -0.00371038 0.0924104)
(-0.00887233 0.000657437 0.0371874)
(0.00765084 0.000399261 0.101042)
(0.00633109 -0.00411078 0.124542)
(0.00800677 -0.00568154 0.109216)
(0.00743878 -0.00549952 0.101313)
(0.00634083 -0.00530427 0.0981953)
(0.00521954 -0.00522343 0.0965769)
(0.00431319 -0.00493101 0.0951842)
(0.00339845 -0.00486773 0.0943871)
(0.00263326 -0.00461323 0.0937353)
(0.00181304 -0.00456458 0.0933709)
(0.00112765 -0.00441189 0.0931117)
(0.000337177 -0.00438967 0.0930024)
(-0.0054236 0.000825457 0.0272482)
(0.0108063 -0.00801714 0.0841596)
(0.00616609 -0.00391107 0.126524)
(0.00639251 -0.00577739 0.115289)
(0.0070484 -0.00625777 0.104122)
(0.00618213 -0.00619539 0.0996692)
(0.00529936 -0.00634903 0.0981964)
(0.00444148 -0.0059483 0.0965683)
(0.00355399 -0.0059524 0.0957154)
(0.00281082 -0.00560077 0.0948326)
(0.0019462 -0.00563171 0.0943867)
(0.0012451 -0.00543735 0.0940286)
(0.000354538 -0.00544059 0.0938895)
(-0.00638253 0.000238791 0.040716)
(0.00786948 0.000316972 0.100719)
(0.00571044 -0.00506328 0.123444)
(0.00691957 -0.00695003 0.113243)
(0.00624861 -0.00706314 0.104119)
(0.00550046 -0.00744721 0.101315)
(0.00468823 -0.00690487 0.0986396)
(0.00373244 -0.00692196 0.0977022)
(0.00294865 -0.00635507 0.0964824)
(0.00197974 -0.00633979 0.0959526)
(0.00132258 -0.00597716 0.0954455)
(0.000334943 -0.00596315 0.0952537)
(-0.00647652 -0.00129886 0.0194467)
(0.00479244 -0.00768215 0.0788633)
(0.0039523 -0.00404047 0.127424)
(0.00504664 -0.00576194 0.123448)
(0.00578058 -0.00641377 0.115294)
(0.0056843 -0.00801996 0.109221)
(0.00501236 -0.00775882 0.102775)
(0.00409247 -0.00821533 0.100765)
(0.00336579 -0.00751018 0.0986318)
(0.00232189 -0.00788232 0.0980827)
(0.00162681 -0.00746346 0.0974224)
(0.000368614 -0.00756759 0.0971809)
(0.000187568 -0.0137346 0.0129572)
(0.00766781 -0.00476325 0.0790565)
(-0.00027064 -0.0078604 0.100782)
(0.00394083 -0.00616031 0.126565)
(0.00412751 -0.00633291 0.124564)
(0.00503137 -0.00654398 0.115767)
(0.00425258 -0.00805567 0.109229)
(0.00334995 -0.00760143 0.103121)
(0.0020506 -0.00800364 0.10163)
(0.00165729 -0.0070674 0.100763)
(0.000229793 -0.00712009 0.10055)
(0.00534458 -0.0100062 0.014087)
(-0.00205581 3.35241e-06 0.0263177)
(0.00801175 -0.0107919 0.0841605)
(-0.000405209 -0.00764673 0.101052)
(0.0038008 -0.0054066 0.126306)
(0.00338183 -0.00637621 0.123991)
(0.00397262 -0.00643204 0.115081)
(0.00297667 -0.00939896 0.110336)
(0.00252442 -0.00899756 0.107854)
(0.000300295 -0.00961728 0.107747)
(-0.00232014 0.00156742 0.0374744)
(-0.00523297 0.00121878 0.0280938)
(0.007281 -0.00983551 0.080592)
(-0.0015126 -0.00642215 0.10061)
(-4.94547e-05 -0.00357189 0.125995)
(-0.000999499 -0.00417092 0.129012)
(0.00118779 -0.00246524 0.12398)
(-0.000365111 -0.00329568 0.124138)
(-0.00315973 0.00108918 0.0238026)
(-0.00182349 0.00229324 0.0409451)
(-0.0043672 0.00192135 0.0280391)
(0.00423247 -0.00581667 0.0821324)
(0.00190488 -0.0107129 0.103853)
(0.00223597 -0.0102452 0.0939544)
(-7.90337e-05 -0.0115154 0.0945079)
(-0.0037076 -0.00790058 0.0214035)
(0.00372653 -0.00606569 0.0264695)
(-0.000978126 0.00258157 0.0334492)
(-0.000359518 0.00294283 0.0318193)
(-0.00519833 5.40149e-05 0.0231402)
(-0.00223846 0.000359684 0.0902358)
(0.00254654 0.000229733 0.118488)
(0.00742308 -0.00014956 0.109885)
(0.00606803 -0.000146291 0.108803)
(0.00629216 -0.000286106 0.107001)
(0.00511639 -0.000271745 0.106076)
(0.004705 -0.00029909 0.105066)
(0.00383463 -0.00028882 0.104454)
(0.00327011 -0.000289351 0.103951)
(0.00257531 -0.000283456 0.10361)
(0.00200561 -0.000279341 0.103359)
(0.00139826 -0.000276098 0.103191)
(0.000845525 -0.000273639 0.103085)
(0.000272869 -0.000271266 0.103036)
(-0.00489192 -0.000422599 0.0207463)
(-0.00213656 -0.00122607 0.0901394)
(0.00195388 -0.00129732 0.11794)
(0.00704284 -0.00169992 0.109994)
(0.00594077 -0.00117937 0.108974)
(0.00616945 -0.00126081 0.107208)
(0.00510077 -0.00108415 0.106205)
(0.00468581 -0.00105466 0.10517)
(0.00384264 -0.000973226 0.104537)
(0.0032741 -0.000936052 0.104023)
(0.00258435 -0.000900799 0.103674)
(0.00201235 -0.000875377 0.103416)
(0.00140383 -0.000860641 0.103244)
(0.000849088 -0.000848108 0.103136)
(0.000274386 -0.00084413 0.103085)
(-0.00131352 -0.00150233 0.0102799)
(-0.00142089 -0.000972294 0.0975455)
(0.00282593 -0.000631345 0.121751)
(0.00745575 -0.0025745 0.111861)
(0.00648435 -0.0016671 0.109632)
(0.00639362 -0.00190007 0.107835)
(0.00532352 -0.00166687 0.106612)
(0.00481441 -0.00167007 0.105462)
(0.00395253 -0.00157115 0.10475)
(0.00334193 -0.0015278 0.104195)
(0.00263569 -0.00148327 0.103819)
(0.00204562 -0.00144528 0.103543)
(0.00142548 -0.00142453 0.103361)
(0.000862035 -0.00140337 0.103245)
(0.000277515 -0.00139685 0.10319)
(-0.00158197 0.00229341 0.0766377)
(0.00142101 9.67098e-05 0.118461)
(0.00584498 -0.00300246 0.11406)
(0.00652755 -0.00259451 0.109718)
(0.00619398 -0.00268164 0.108058)
(0.00533337 -0.00244639 0.106933)
(0.00477746 -0.0023936 0.105772)
(0.00398309 -0.00227014 0.105015)
(0.00336093 -0.00218995 0.10443)
(0.00266646 -0.00213202 0.104034)
(0.00207091 -0.00207063 0.103737)
(0.00144574 -0.00204477 0.103543)
(0.000876807 -0.00201194 0.103416)
(0.000280792 -0.00200395 0.103358)
(-0.00586728 0.0012915 0.0291298)
(-0.00210483 0.00102632 0.0941529)
(0.0041258 -0.00323219 0.118074)
(0.0065147 -0.00350232 0.111913)
(0.00659724 -0.00335243 0.108894)
(0.00562797 -0.00311119 0.10767)
(0.00498375 -0.003031 0.106388)
(0.00415245 -0.00291894 0.105493)
(0.00347865 -0.00281455 0.104817)
(0.00275472 -0.00275496 0.104374)
(0.00213286 -0.0026672 0.104035)
(0.00148435 -0.00263572 0.103819)
(0.000903005 -0.00258484 0.103674)
(0.000285391 -0.00257423 0.103609)
(-0.00347114 0.000917415 0.0184804)
(-0.00095025 0.00134503 0.0745455)
(0.00114579 -0.00197832 0.118286)
(0.0058018 -0.0035893 0.114432)
(0.00656171 -0.00388906 0.109228)
(0.00569186 -0.00374743 0.108071)
(0.00496635 -0.00371574 0.106953)
(0.0041941 -0.00364814 0.106037)
(0.00352312 -0.00352551 0.105289)
(0.00281381 -0.00347996 0.104818)
(0.00219045 -0.00336277 0.104431)
(0.00152852 -0.00334262 0.104196)
(0.000938587 -0.00327541 0.104024)
(0.000291259 -0.00326907 0.10395)
(-0.00845664 0.00212047 0.0311403)
(-0.00189495 0.000101803 0.0929746)
(0.0036868 -0.00377588 0.118222)
(0.00622712 -0.00451862 0.111652)
(0.00585113 -0.00437514 0.109146)
(0.00509758 -0.00436906 0.107924)
(0.00434024 -0.00434195 0.106966)
(0.00364676 -0.00419709 0.106038)
(0.00291923 -0.0041544 0.105495)
(0.0022716 -0.003986 0.105016)
(0.00157276 -0.00395358 0.104751)
(0.000977152 -0.00384475 0.104538)
(0.000291515 -0.00383286 0.104453)
(-0.00431468 -6.32916e-06 0.0208878)
(-0.00108954 0.00120938 0.076973)
(0.00163089 -0.00179894 0.118915)
(0.00537051 -0.00424109 0.114472)
(0.00572369 -0.00475377 0.109827)
(0.00500087 -0.00501526 0.108576)
(0.00436557 -0.00510334 0.107924)
(0.0037128 -0.0049719 0.106955)
(0.00303032 -0.00498707 0.10639)
(0.00239501 -0.0047816 0.105774)
(0.00167159 -0.00481586 0.105464)
(0.00106 -0.00468844 0.105171)
(0.000302434 -0.00470282 0.105066)
(-0.0056384 0.000810442 0.0319777)
(-0.00151482 -0.000329842 0.0935366)
(0.00291664 -0.00385085 0.117931)
(0.00499618 -0.00501201 0.113085)
(0.00474642 -0.00573073 0.10983)
(0.00438108 -0.00585423 0.10915)
(0.00374877 -0.00569561 0.108075)
(0.00311316 -0.00563065 0.107675)
(0.0024498 -0.00533717 0.106937)
(0.00167002 -0.00532421 0.106615)
(0.00109172 -0.00510455 0.106208)
(0.000276337 -0.00511288 0.106076)
(-0.00448833 -0.00116264 0.0147408)
(-0.00151873 0.000505534 0.0732985)
(0.00186178 -0.00190603 0.120099)
(0.00383739 -0.0029401 0.117946)
(0.00423729 -0.00537624 0.114482)
(0.00452132 -0.00623461 0.11166)
(0.00388872 -0.00656626 0.109234)
(0.0033522 -0.00660016 0.108901)
(0.00268513 -0.00619798 0.108065)
(0.00190167 -0.0063952 0.107841)
(0.00127037 -0.00617426 0.107214)
(0.000291188 -0.00628943 0.107001)
(0.00268803 -0.012043 0.0146923)
(-0.000527091 0.00153891 0.0733799)
(0.000351636 0.00152197 0.0935688)
(0.00181394 -0.0016279 0.118943)
(0.00378688 -0.00368855 0.118239)
(0.00359567 -0.00580267 0.114443)
(0.00350468 -0.00651601 0.111922)
(0.00259933 -0.006532 0.109728)
(0.00166954 -0.00648513 0.109641)
(0.0011911 -0.00594992 0.108983)
(0.000153684 -0.00606098 0.108804)
(0.0045634 -0.0090651 0.0171029)
(-1.34901e-05 -0.00137712 0.024846)
(-0.0012181 0.00110077 0.0769756)
(-0.00010422 0.0018983 0.0929821)
(0.00197653 -0.00114336 0.118292)
(0.00322757 -0.00412538 0.118083)
(0.00300643 -0.00584906 0.114072)
(0.00257153 -0.00745949 0.111872)
(0.00171697 -0.00705184 0.110011)
(0.000157615 -0.00742007 0.109886)
(-0.00234273 0.00198611 0.0293014)
(-0.00377962 -0.000461408 0.0249503)
(-0.00134519 0.000950046 0.0745511)
(-0.00103019 0.00210224 0.0941596)
(-9.78187e-05 -0.00142635 0.118478)
(0.000628743 -0.00282396 0.121772)
(0.00131568 -0.00197643 0.117971)
(-0.000212627 -0.0025269 0.118494)
(-0.00276135 0.00113781 0.017385)
(-0.00267333 0.00232488 0.0321815)
(-0.00288353 -0.000432326 0.0259419)
(-0.00229073 0.0015808 0.0766518)
(0.000949717 0.00141296 0.0975573)
(0.0012601 0.00213084 0.09017)
(-0.00034436 0.00222805 0.0902272)
(-0.00255756 -0.00704662 0.0213928)
(0.0030461 -0.00738272 0.0240209)
(-0.00106559 0.00177064 0.029978)
(-0.000107861 0.00153802 0.0269588)
(-0.0052357 4.93345e-07 0.0224966)
(-0.000833306 0.000217265 0.0935573)
(0.00309631 0.000116015 0.118421)
(0.00431929 -6.25916e-05 0.113921)
(0.00389478 -9.04987e-05 0.113039)
(0.00426118 -0.000201482 0.110892)
(0.00378857 -0.000201623 0.109755)
(0.00361636 -0.000231675 0.108545)
(0.00306443 -0.000230771 0.107822)
(0.0026762 -0.000237191 0.107195)
(0.00214946 -0.000236328 0.10678)
(0.00169733 -0.000236297 0.106458)
(0.00119361 -0.000235273 0.106246)
(0.000726987 -0.000234647 0.106107)
(0.000234807 -0.000233012 0.106043)
(-0.00494618 -0.000677067 0.0203276)
(-0.000709931 -0.000454262 0.0936675)
(0.00270337 -0.000696426 0.118432)
(0.00410218 -0.000793736 0.114212)
(0.00377131 -0.000696747 0.1133)
(0.00415367 -0.00084364 0.111131)
(0.00375762 -0.000790298 0.109904)
(0.00358631 -0.000805093 0.10867)
(0.00305793 -0.000772581 0.107923)
(0.0026697 -0.000763313 0.107284)
(0.00214954 -0.000749276 0.10686)
(0.0016977 -0.000738839 0.106531)
(0.00119507 -0.000733024 0.106315)
(0.000727873 -0.000726827 0.106173)
(0.000235519 -0.000725438 0.106107)
(-0.00134836 -0.00167113 0.0104897)
(-0.00076261 -0.000815954 0.0999591)
(0.00272469 -0.000682319 0.121993)
(0.00420062 -0.001334 0.11588)
(0.00387364 -0.000968583 0.114088)
(0.00418329 -0.00126812 0.111821)
(0.00383156 -0.00121024 0.110345)
(0.00363474 -0.00127039 0.109004)
(0.00310632 -0.00123908 0.108175)
(0.00269928 -0.00123769 0.107494)
(0.00217381 -0.0012242 0.107041)
(0.00171351 -0.00121096 0.106692)
(0.0012056 -0.00120461 0.106465)
(0.000734572 -0.0011945 0.106315)
(0.000236879 -0.00119227 0.106246)
(-0.000789544 0.000951178 0.0798356)
(0.00211302 -0.000760667 0.119623)
(0.00364246 -0.00156005 0.117613)
(0.00387086 -0.00146033 0.114451)
(0.00393966 -0.0016977 0.112308)
(0.00375647 -0.00171845 0.110772)
(0.00355637 -0.00178128 0.109381)
(0.0030899 -0.00175831 0.108494)
(0.00268394 -0.00175016 0.10778)
(0.002176 -0.00173804 0.107302)
(0.00171719 -0.00171671 0.106932)
(0.00121153 -0.00171249 0.106693)
(0.000740221 -0.00169727 0.106531)
(0.000237398 -0.00169595 0.106458)
(-0.00590566 0.00127075 0.0302343)
(-0.000537134 -0.000573391 0.0956304)
(0.00321604 -0.00199253 0.118957)
(0.00380207 -0.00197951 0.115826)
(0.00397871 -0.00206769 0.113223)
(0.00374094 -0.00212753 0.111606)
(0.00358728 -0.00221164 0.110064)
(0.00313418 -0.00221627 0.109046)
(0.00271827 -0.00220948 0.108246)
(0.00220693 -0.00220675 0.107717)
(0.00173906 -0.00217637 0.107303)
(0.00122514 -0.00217344 0.107042)
(0.000751187 -0.00214983 0.106861)
(0.000237903 -0.00214836 0.106781)
(-0.00338025 0.000555683 0.0184834)
(-0.000481147 0.000758283 0.07718)
(0.0019486 -0.0016518 0.118731)
(0.00381476 -0.00189587 0.117503)
(0.00387732 -0.00231051 0.113852)
(0.0036173 -0.00241754 0.112284)
(0.00345541 -0.00261389 0.110772)
(0.00308629 -0.00267645 0.10968)
(0.00269192 -0.00269339 0.108812)
(0.0022091 -0.00271885 0.108246)
(0.00175082 -0.00268512 0.107781)
(0.00123834 -0.00269955 0.107495)
(0.00076542 -0.00267048 0.107285)
(0.000238601 -0.00267505 0.107196)
(-0.00875566 0.00183909 0.0323685)
(-0.00053477 -0.0010021 0.0941404)
(0.00292877 -0.00235454 0.118833)
(0.00355707 -0.00257886 0.115384)
(0.0034804 -0.00269695 0.113382)
(0.00332253 -0.00291431 0.111866)
(0.00304939 -0.00305128 0.110702)
(0.00267584 -0.00308864 0.109682)
(0.00221674 -0.00313525 0.109048)
(0.00175966 -0.00309184 0.108496)
(0.00124042 -0.00310662 0.108177)
(0.000775893 -0.00305934 0.107924)
(0.000232883 -0.00306262 0.107822)
(-0.00463394 -0.000418179 0.0200543)
(-0.000677276 0.00081158 0.0795091)
(0.00212523 -0.00160218 0.119424)
(0.00343353 -0.00241957 0.117447)
(0.00330652 -0.00282519 0.11423)
(0.00310795 -0.00311678 0.112886)
(0.0029114 -0.00332495 0.111868)
(0.002613 -0.00345892 0.110776)
(0.00221168 -0.00358904 0.110068)
(0.00178273 -0.00355913 0.109385)
(0.00127158 -0.00363509 0.109007)
(0.000809295 -0.00358798 0.108673)
(0.000234039 -0.00361438 0.108546)
(-0.00584576 0.000511086 0.0326348)
(-0.000558115 -0.00110814 0.0951944)
(0.00219886 -0.00207926 0.118885)
(0.00279439 -0.00279983 0.116209)
(0.00282093 -0.00331025 0.114245)
(0.00269959 -0.00348086 0.113392)
(0.00241807 -0.00361943 0.112292)
(0.00212908 -0.00374228 0.111613)
(0.00172133 -0.0037587 0.110778)
(0.0012127 -0.00383144 0.11035)
(0.000795924 -0.00376001 0.109909)
(0.000204679 -0.0037856 0.109756)
(-0.00440461 -0.00171687 0.0150408)
(-0.000754636 0.000663835 0.0758618)
(0.00195965 -0.00198816 0.119879)
(0.00207256 -0.00220909 0.1189)
(0.00241687 -0.00343865 0.117465)
(0.00258102 -0.00356212 0.115395)
(0.00231019 -0.00388003 0.113861)
(0.00206793 -0.00398035 0.113231)
(0.00170073 -0.00394187 0.112317)
(0.00126918 -0.0041838 0.111828)
(0.000850626 -0.00415637 0.111139)