/*--------------------------------*- C++ -*----------------------------------*\
| =========                 |                                                 |
| \\      /  F ield         | OpenFOAM: The Open Source CFD Toolbox           |
|  \\    /   O peration     | Version:  2.1.1                                 |
|   \\  /    A nd           | Web:      www.OpenFOAM.org                      |
|    \\/     M anipulation  |                                                 |
\*---------------------------------------------------------------------------*/
FoamFile
{
    version     2.0;
    format      ascii;
    class       volScalarField;
    location    "0.155";
    object      p;
}
// * * * * * * * * * * * * * * * * * * * * * * * * * * * * * * * * * * * * * //

dimensions      [0 2 -2 0 0 0 0];

internalField   nonuniform List<scalar> 
163952
(
0.0416756
0.0410993
0.0363634
0.0311686
0.0299718
0.0273604
0.0267703
0.0264466
0.0366835
0.0323414
0.0272999
0.0248101
0.0235665
0.0227875
0.0224732
0.0223319
0.0337147
0.0279779
0.0244741
0.0228344
0.0219218
0.0213839
0.0210452
0.0208649
0.0207794
0.0335846
0.0260857
0.0232513
0.0219047
0.0211493
0.0206705
0.0203509
0.0201392
0.020013
0.0199495
0.0335858
0.0255437
0.0227271
0.0214488
0.0207339
0.0202701
0.0199461
0.0197152
0.0195557
0.0194551
0.0194027
0.0337151
0.0260859
0.0227271
0.0213053
0.0205427
0.0200539
0.0197084
0.0194544
0.0192678
0.0191357
0.0190501
0.0190046
0.0366834
0.027978
0.0232514
0.0214489
0.0205428
0.0199843
0.019596
0.0193093
0.0190936
0.0189329
0.018818
0.0187424
0.018702
0.0323417
0.0244743
0.0219049
0.0207341
0.020054
0.0195961
0.0192624
0.0190106
0.0188193
0.0186759
0.0185727
0.0185045
0.0184677
0.0363637
0.0273002
0.0228347
0.0211496
0.0202703
0.0197086
0.0193094
0.0190107
0.0187826
0.0186082
0.0184771
0.0183823
0.0183194
0.0182854
0.0311691
0.0248105
0.0219221
0.0206708
0.0199463
0.0194546
0.0190937
0.0188194
0.0186082
0.0184462
0.0183239
0.0182353
0.0181763
0.0181443
0.0299723
0.0235669
0.0213843
0.0203512
0.0197155
0.019268
0.0189331
0.0186761
0.0184772
0.018324
0.018208
0.0181238
0.0180676
0.0180371
0.0273609
0.0227879
0.0210456
0.0201396
0.019556
0.019136
0.0188182
0.018573
0.0183825
0.0182354
0.0181239
0.0180428
0.0179885
0.0179591
0.0416761
0.0267708
0.0224737
0.0208654
0.0200135
0.0194555
0.0190504
0.0187428
0.0185048
0.0183196
0.0181764
0.0180678
0.0179886
0.0179357
0.0179069
0.0410998
0.0264472
0.0223325
0.0207799
0.01995
0.0194032
0.019005
0.0187023
0.018468
0.0182856
0.0181445
0.0180373
0.0179592
0.0179069
0.0178785
0.0235016
0.0235584
0.0224964
0.0237057
0.0224367
0.0221226
0.0220777
0.0220568
0.0226012
0.0244152
0.0221023
0.0217901
0.0215295
0.0213386
0.0212639
0.0212121
0.0233795
0.0221543
0.0217363
0.0213243
0.0209835
0.0207049
0.0205201
0.020424
0.0203745
0.0221239
0.0218336
0.0213963
0.0209549
0.0205622
0.0202509
0.0200147
0.019855
0.0197628
0.0197185
0.0221246
0.0217044
0.0212122
0.0207082
0.0202812
0.0199387
0.0196791
0.0194878
0.019356
0.0192757
0.0192371
0.0233798
0.0218338
0.0212122
0.0206283
0.0201393
0.0197613
0.0194721
0.0192541
0.0190933
0.018981
0.0189106
0.0188766
0.0226016
0.0221545
0.0213965
0.0207083
0.0201394
0.0197027
0.0193733
0.0191228
0.0189334
0.018793
0.018694
0.0186311
0.0186005
0.0244154
0.0217366
0.0209552
0.0202814
0.0197614
0.0193733
0.0190804
0.0188571
0.0186875
0.0185612
0.0184716
0.0184142
0.0183862
0.0224968
0.0221027
0.0213246
0.0205624
0.0199389
0.0194722
0.0191229
0.0188572
0.0186534
0.0184979
0.0183815
0.0182986
0.0182452
0.0182192
0.023706
0.0217905
0.0209839
0.0202512
0.0196794
0.0192544
0.0189336
0.0186876
0.0184979
0.0183524
0.0182431
0.0181651
0.0181147
0.01809
0.0224371
0.0215299
0.0207052
0.020015
0.0194881
0.0190936
0.0187932
0.0185614
0.0183816
0.0182432
0.018139
0.0180644
0.0180162
0.0179926
0.022123
0.0213391
0.0205205
0.0198554
0.0193564
0.0189813
0.0186943
0.0184718
0.0182987
0.0181652
0.0180645
0.0179922
0.0179455
0.0179226
0.0235021
0.0220782
0.0212644
0.0204244
0.0197632
0.0192761
0.018911
0.0186314
0.0184145
0.0182455
0.0181149
0.0180163
0.0179456
0.0178998
0.0178774
0.023559
0.0220574
0.0212127
0.020375
0.019719
0.0192376
0.0188771
0.0186009
0.0183865
0.0182194
0.0180903
0.0179928
0.0179227
0.0178774
0.0178552
0.0198579
0.0198722
0.0199372
0.0203191
0.0205426
0.0204269
0.0203193
0.0202788
0.0199441
0.020788
0.0203378
0.0202597
0.0201649
0.020126
0.0200966
0.0200712
0.0201545
0.0203517
0.0202513
0.0201307
0.0199939
0.0198494
0.019758
0.019703
0.0196725
0.0205017
0.0202848
0.0201596
0.0199797
0.0197877
0.0196218
0.0194819
0.0193818
0.0193195
0.0192882
0.0205025
0.0202396
0.0200866
0.0198649
0.01964
0.0194373
0.0192712
0.0191398
0.0190452
0.0189851
0.0189556
0.0201547
0.0202851
0.0200866
0.0198271
0.0195612
0.0193276
0.0191311
0.0189728
0.01885
0.0187615
0.0187049
0.0186771
0.0199443
0.020352
0.0201599
0.0198651
0.0195613
0.0192902
0.0190618
0.0188744
0.0187253
0.0186109
0.0185283
0.0184751
0.0184489
0.0207882
0.0202515
0.0199799
0.0196402
0.0193277
0.0190619
0.0188421
0.0186643
0.0185238
0.0184165
0.0183391
0.018289
0.0182643
0.0199375
0.0203381
0.020131
0.0197879
0.0194375
0.0191312
0.0188745
0.0186643
0.0184954
0.0183623
0.0182608
0.0181875
0.0181399
0.0181166
0.0203194
0.0202601
0.0199943
0.0196221
0.0192714
0.018973
0.0187255
0.018524
0.0183624
0.0182353
0.0181383
0.0180682
0.0180227
0.0180003
0.0205431
0.0201653
0.0198498
0.0194823
0.0191401
0.0188503
0.0186111
0.0184167
0.0182609
0.0181384
0.0180448
0.0179771
0.0179331
0.0179115
0.0204274
0.0201265
0.0197585
0.0193822
0.0190455
0.0187619
0.0185286
0.0183393
0.0181877
0.0180683
0.0179772
0.0179112
0.0178683
0.0178472
0.0198585
0.0203199
0.0200972
0.0197035
0.01932
0.0189856
0.0187053
0.0184754
0.0182892
0.0181402
0.0180229
0.0179332
0.0178684
0.0178262
0.0178054
0.0198728
0.0202793
0.0200718
0.0196731
0.0192887
0.018956
0.0186775
0.0184493
0.0182647
0.0181168
0.0180005
0.0179117
0.0178473
0.0178055
0.0177849
0.0185107
0.018521
0.0186281
0.018855
0.019186
0.0191855
0.019133
0.019111
0.0186431
0.019069
0.019109
0.0190964
0.0190671
0.0190685
0.0190672
0.0190637
0.018784
0.019113
0.0191004
0.0190933
0.0190646
0.0190128
0.018977
0.0189515
0.0189372
0.0192164
0.0191164
0.0191103
0.01906
0.0189938
0.0189294
0.0188666
0.0188167
0.018782
0.0187637
0.0192171
0.0190967
0.0190917
0.0190286
0.0189391
0.0188457
0.0187598
0.0186852
0.0186281
0.0185899
0.0185705
0.0187841
0.0191166
0.0190917
0.0190173
0.0189085
0.0187923
0.0186819
0.0185848
0.0185044
0.0184439
0.0184039
0.0183838
0.0186433
0.0191132
0.0191105
0.0190287
0.0189086
0.0187737
0.0186417
0.0185221
0.0184202
0.0183382
0.018277
0.0182366
0.0182166
0.0190692
0.0191007
0.0190602
0.0189392
0.0187924
0.0186417
0.018501
0.0183775
0.0182746
0.0181929
0.0181323
0.0180925
0.0180727
0.0186284
0.0191093
0.0190936
0.018994
0.0188459
0.0186821
0.0185222
0.0183776
0.0182534
0.0181511
0.0180706
0.0180111
0.0179721
0.0179527
0.0188554
0.0190968
0.0190649
0.0189298
0.0187601
0.0185851
0.0184204
0.0182747
0.0181512
0.0180502
0.017971
0.0179127
0.0178745
0.0178555
0.0191864
0.0190676
0.0190132
0.018867
0.0186856
0.0185047
0.0183384
0.0181931
0.0180707
0.0179711
0.0178932
0.017836
0.0177984
0.0177798
0.019186
0.019069
0.0189774
0.0188172
0.0186285
0.0184442
0.0182773
0.0181326
0.0180113
0.0179129
0.0178361
0.0177796
0.0177426
0.0177243
0.0185113
0.0191336
0.0190678
0.0189521
0.0187825
0.0185903
0.0184043
0.018237
0.0180928
0.0179723
0.0178747
0.0177985
0.0177427
0.017706
0.0176879
0.0185216
0.0191116
0.0190643
0.0189378
0.0187643
0.018571
0.0183843
0.018217
0.0180731
0.017953
0.0178558
0.01778
0.0177244
0.017688
0.0176699
0.0177927
0.0178008
0.0178539
0.0180025
0.018219
0.0182624
0.0182527
0.0182511
0.017879
0.0181114
0.0182193
0.0182383
0.0182437
0.018256
0.0182642
0.0182687
0.017969
0.0182208
0.018247
0.0182801
0.0182984
0.0182978
0.0182947
0.0182886
0.0182843
0.0182534
0.0182429
0.0182868
0.0183
0.0183002
0.0182925
0.0182771
0.018261
0.0182472
0.0182392
0.0182538
0.0182377
0.0182937
0.018309
0.0182965
0.0182713
0.0182397
0.0182068
0.0181789
0.0181589
0.0181483
0.0179691
0.0182431
0.0182937
0.0183117
0.0182936
0.0182544
0.0182066
0.0181578
0.0181131
0.0180774
0.0180527
0.0180401
0.0178793
0.0182211
0.018287
0.0183092
0.0182937
0.0182484
0.0181881
0.0181241
0.018064
0.0180123
0.017972
0.0179446
0.0179307
0.0181117
0.0182473
0.0183003
0.0182967
0.0182546
0.0181881
0.0181124
0.0180379
0.017971
0.0179151
0.0178723
0.0178435
0.017829
0.0178543
0.0182196
0.0182804
0.0183005
0.0182715
0.0182068
0.0181242
0.018038
0.017957
0.0178861
0.0178279
0.0177838
0.0177542
0.0177394
0.0180029
0.0182387
0.0182987
0.0182929
0.01824
0.018158
0.0180642
0.0179712
0.0178862
0.017813
0.0177537
0.0177089
0.017679
0.0176641
0.0182194
0.0182442
0.0182982
0.0182775
0.0182072
0.0181134
0.0180125
0.0179153
0.017828
0.0177537
0.0176938
0.0176488
0.0176189
0.0176039
0.0182629
0.0182565
0.0182952
0.0182614
0.0181793
0.0180778
0.0179723
0.0178726
0.017784
0.017709
0.0176489
0.0176038
0.0175739
0.0175589
0.0177933
0.0182533
0.0182647
0.0182891
0.0182477
0.0181594
0.0180531
0.017945
0.0178438
0.0177545
0.0176792
0.017619
0.0175739
0.017544
0.0175291
0.0178015
0.0182517
0.0182693
0.0182849
0.0182397
0.0181488
0.0180406
0.0179312
0.0178293
0.0177397
0.0176644
0.0176041
0.0175591
0.0175292
0.0175143
0.0172825
0.0172892
0.017302
0.0173948
0.01752
0.0175702
0.0175753
0.0175814
0.0173243
0.0174683
0.0175502
0.0175811
0.0176024
0.0176217
0.0176322
0.0176382
0.0173793
0.0175509
0.0175923
0.0176363
0.0176701
0.0176907
0.0177045
0.0177101
0.0177119
0.0175515
0.0175783
0.0176364
0.0176748
0.0177039
0.0177236
0.0177336
0.0177379
0.0177381
0.0177373
0.0175518
0.0175826
0.0176532
0.0176991
0.0177245
0.0177372
0.0177394
0.0177347
0.0177278
0.0177215
0.0177178
0.0173795
0.0175784
0.0176532
0.0177076
0.0177352
0.0177423
0.0177364
0.0177225
0.0177055
0.0176898
0.0176779
0.0176715
0.0173246
0.0175511
0.0176366
0.0176992
0.0177352
0.0177438
0.0177329
0.0177109
0.0176843
0.0176581
0.017636
0.0176202
0.017612
0.0174686
0.0175926
0.0176751
0.0177246
0.0177424
0.017733
0.0177065
0.0176719
0.017636
0.0176032
0.0175767
0.0175583
0.0175488
0.0173024
0.0175506
0.0176366
0.0177042
0.0177375
0.0177366
0.017711
0.017672
0.0176281
0.0175857
0.0175485
0.0175191
0.0174989
0.0174886
0.0173952
0.0175816
0.0176705
0.0177239
0.0177397
0.0177228
0.0176845
0.0176361
0.0175857
0.0175388
0.0174987
0.0174674
0.0174461
0.0174353
0.0175206
0.0176029
0.0176911
0.0177341
0.0177351
0.0177058
0.0176584
0.0176034
0.0175486
0.0174988
0.0174568
0.0174243
0.0174022
0.0173911
0.0175708
0.0176222
0.017705
0.0177384
0.0177283
0.0176901
0.0176363
0.017577
0.0175193
0.0174676
0.0174243
0.0173911
0.0173686
0.0173573
0.0172831
0.017576
0.0176328
0.0177107
0.0177386
0.017722
0.0176783
0.0176206
0.0175586
0.0174992
0.0174463
0.0174024
0.0173687
0.0173459
0.0173345
0.0172899
0.0175821
0.0176388
0.0177125
0.0177379
0.0177183
0.0176721
0.0176124
0.0175492
0.0174889
0.0174356
0.0173913
0.0173574
0.0173345
0.017323
0.0168491
0.0168566
0.0168498
0.0169093
0.0169764
0.0170222
0.0170312
0.017039
0.0168679
0.016969
0.0170163
0.0170475
0.0170726
0.0170953
0.0171074
0.0171141
0.0169023
0.0170166
0.01706
0.017104
0.0171403
0.017167
0.0171876
0.0171992
0.0172045
0.0170037
0.0170423
0.0171008
0.0171464
0.0171855
0.0172167
0.0172391
0.0172543
0.0172628
0.0172664
0.0170039
0.0170499
0.0171193
0.0171743
0.0172162
0.0172481
0.0172697
0.0172825
0.0172896
0.0172929
0.017294
0.0169025
0.0170424
0.0171193
0.0171844
0.0172326
0.0172654
0.0172855
0.0172952
0.017298
0.0172972
0.0172952
0.0172938
0.0168682
0.0170168
0.017101
0.0171744
0.0172327
0.0172712
0.017292
0.0172993
0.0172977
0.0172914
0.017284
0.0172779
0.0172744
0.0169694
0.0170603
0.0171466
0.0172164
0.0172655
0.017292
0.0173001
0.0172958
0.0172847
0.0172712
0.0172587
0.0172494
0.0172444
0.0168502
0.0170167
0.0171043
0.0171858
0.0172484
0.0172857
0.0172994
0.0172959
0.017282
0.0172634
0.0172446
0.0172283
0.0172166
0.0172105
0.0169098
0.017048
0.0171407
0.0172171
0.01727
0.0172955
0.0172979
0.0172848
0.0172635
0.0172395
0.0172167
0.0171978
0.0171845
0.0171775
0.0169769
0.0170731
0.0171675
0.0172396
0.017283
0.0172983
0.0172917
0.0172715
0.0172447
0.0172168
0.0171913
0.0171706
0.017156
0.0171486
0.0170228
0.0170959
0.0171881
0.0172549
0.0172901
0.0172976
0.0172844
0.017259
0.0172286
0.017198
0.0171706
0.0171487
0.0171334
0.0171256
0.0168497
0.0170319
0.017108
0.0171998
0.0172633
0.0172934
0.0172957
0.0172783
0.0172497
0.0172169
0.0171847
0.0171562
0.0171335
0.0171177
0.0171097
0.0168573
0.0170398
0.0171148
0.0172052
0.0172671
0.0172946
0.0172944
0.0172749
0.0172448
0.0172109
0.0171778
0.0171488
0.0171257
0.0171098
0.0171017
0.016459
0.0164669
0.0164565
0.0164954
0.0165275
0.0165656
0.0165753
0.0165829
0.01647
0.0165472
0.0165685
0.0165959
0.0166193
0.0166419
0.0166543
0.0166612
0.016493
0.0165688
0.0166087
0.0166488
0.0166828
0.0167094
0.0167313
0.016745
0.0167517
0.0165507
0.0165904
0.0166442
0.0166893
0.0167299
0.0167644
0.0167915
0.0168117
0.0168243
0.0168303
0.0165509
0.0165982
0.0166613
0.0167163
0.0167634
0.0168033
0.0168346
0.0168572
0.0168727
0.0168819
0.0168861
0.0164932
0.0165906
0.0166613
0.0167261
0.0167814
0.0168265
0.016861
0.0168852
0.0169008
0.0169103
0.0169155
0.0169177
0.0164702
0.016569
0.0166444
0.0167164
0.0167814
0.0168343
0.0168734
0.0168995
0.0169151
0.0169234
0.016927
0.0169283
0.0169286
0.0165475
0.0166091
0.0166896
0.0167636
0.0168266
0.0168734
0.0169038
0.0169208
0.0169282
0.0169298
0.0169285
0.0169266
0.0169252
0.016457
0.0165689
0.0166491
0.0167302
0.0168036
0.0168612
0.0168996
0.0169209
0.0169294
0.0169298
0.0169259
0.0169207
0.0169162
0.0169136
0.0164959
0.0165964
0.0166833
0.0167649
0.016835
0.0168855
0.0169153
0.0169284
0.0169299
0.0169246
0.0169165
0.0169083
0.0169019
0.0168985
0.0165281
0.0166199
0.0167099
0.016792
0.0168576
0.0169012
0.0169237
0.01693
0.016926
0.0169166
0.0169054
0.016895
0.0168873
0.0168832
0.0165663
0.0166425
0.0167319
0.0168123
0.0168732
0.0169108
0.0169274
0.0169288
0.0169209
0.0169085
0.0168951
0.0168833
0.0168746
0.0168701
0.0164596
0.016576
0.016655
0.0167457
0.0168249
0.0168825
0.016916
0.0169288
0.0169269
0.0169165
0.0169022
0.0168875
0.0168747
0.0168654
0.0168606
0.0164676
0.0165838
0.016662
0.0167525
0.016831
0.0168868
0.0169183
0.0169291
0.0169257
0.016914
0.0168988
0.0168834
0.0168702
0.0168607
0.0168557
0.0161035
0.016111
0.0161032
0.016129
0.0161407
0.0161711
0.01618
0.0161867
0.0161132
0.0161747
0.016179
0.0162019
0.0162222
0.0162424
0.0162539
0.0162605
0.0161299
0.0161795
0.0162144
0.0162494
0.0162796
0.0163038
0.0163244
0.016338
0.0163449
0.0161607
0.0161973
0.0162447
0.0162861
0.0163242
0.0163579
0.0163854
0.0164069
0.016421
0.0164279
0.0161608
0.0162044
0.0162597
0.0163106
0.0163569
0.0163984
0.0164331
0.0164601
0.0164798
0.0164923
0.0164984
0.0161301
0.0161975
0.0162598
0.0163194
0.0163745
0.0164234
0.0164645
0.0164964
0.0165196
0.0165355
0.0165452
0.0165498
0.0161135
0.0161797
0.0162449
0.0163107
0.0163746
0.0164321
0.0164799
0.0165167
0.0165432
0.0165611
0.0165725
0.0165791
0.0165821
0.0161751
0.0162147
0.0162864
0.0163571
0.0164236
0.01648
0.0165232
0.0165539
0.0165741
0.0165865
0.0165937
0.0165974
0.016599
0.0161037
0.0161794
0.0162498
0.0163246
0.0163987
0.0164647
0.0165169
0.016554
0.0165781
0.0165924
0.0165999
0.0166034
0.0166048
0.0166051
0.0161296
0.0162025
0.0162801
0.0163584
0.0164335
0.0164967
0.0165434
0.0165743
0.0165924
0.0166017
0.0166053
0.0166059
0.0166053
0.0166047
0.0161413
0.0162228
0.0163043
0.016386
0.0164606
0.01652
0.0165614
0.0165868
0.0166001
0.0166054
0.0166059
0.0166043
0.0166023
0.016601
0.0161719
0.0162431
0.0163251
0.0164076
0.0164804
0.016536
0.0165729
0.016594
0.0166037
0.016606
0.0166043
0.0166012
0.0165982
0.0165964
0.0161042
0.0161808
0.0162547
0.0163387
0.0164217
0.016493
0.0165458
0.0165796
0.0165978
0.0166051
0.0166055
0.0166024
0.0165983
0.0165946
0.0165926
0.0161117
0.0161876
0.0162614
0.0163457
0.0164287
0.0164991
0.0165505
0.0165827
0.0165995
0.0166055
0.016605
0.0166013
0.0165966
0.0165927
0.0165905
0.0157773
0.0157837
0.0157797
0.0157973
0.0157962
0.0158203
0.0158278
0.0158332
0.0157874
0.0158377
0.0158305
0.0158494
0.0158664
0.0158837
0.0158937
0.0158995
0.0158004
0.0158314
0.0158612
0.0158912
0.0159172
0.0159383
0.0159566
0.0159689
0.0159753
0.015814
0.0158463
0.0158872
0.0159237
0.0159578
0.0159885
0.0160143
0.0160349
0.0160488
0.0160558
0.0158141
0.0158526
0.0159002
0.0159453
0.0159879
0.0160274
0.0160618
0.0160897
0.0161108
0.0161246
0.0161314
0.0158006
0.0158465
0.0159002
0.0159531
0.0160042
0.0160521
0.0160944
0.0161293
0.0161562
0.0161755
0.0161878
0.0161938
0.0157878
0.0158317
0.0158874
0.0159454
0.0160043
0.0160607
0.0161109
0.0161526
0.0161849
0.0162086
0.0162249
0.016235
0.0162398
0.0158381
0.0158616
0.015924
0.0159881
0.0160523
0.016111
0.0161603
0.0161987
0.0162269
0.0162466
0.0162596
0.0162674
0.016271
0.0157802
0.015831
0.0158917
0.0159582
0.0160277
0.0160947
0.0161528
0.0161987
0.0162327
0.0162565
0.0162723
0.0162822
0.0162879
0.0162905
0.0157979
0.01585
0.0159178
0.015989
0.0160623
0.0161297
0.0161852
0.0162271
0.0162566
0.0162762
0.0162886
0.0162959
0.0162999
0.0163017
0.0157969
0.0158671
0.0159389
0.0160149
0.0160902
0.0161566
0.016209
0.0162469
0.0162725
0.0162887
0.0162983
0.0163036
0.0163063
0.0163073
0.0158211
0.0158845
0.0159573
0.0160356
0.0161114
0.016176
0.0162254
0.01626
0.0162825
0.0162961
0.0163037
0.0163075
0.0163092
0.0163098
0.015778
0.0158287
0.0158945
0.0159697
0.0160496
0.0161253
0.0161884
0.0162356
0.0162679
0.0162883
0.0163002
0.0163065
0.0163093
0.0163104
0.0163107
0.0157845
0.0158342
0.0159005
0.0159762
0.0160567
0.0161322
0.0161945
0.0162405
0.0162716
0.016291
0.016302
0.0163076
0.01631
0.0163107
0.0163109
0.0154746
0.0154799
0.0154791
0.0154917
0.0154817
0.0155008
0.0155068
0.0155113
0.0154854
0.0155273
0.0155121
0.0155276
0.0155417
0.015556
0.0155642
0.0155692
0.0154962
0.0155137
0.0155389
0.0155642
0.0155861
0.0156039
0.0156194
0.01563
0.0156356
0.0154983
0.0155264
0.0155612
0.0155926
0.0156221
0.015649
0.0156718
0.0156904
0.0157032
0.0157097
0.0154984
0.0155318
0.0155725
0.0156114
0.015649
0.0156846
0.0157166
0.0157431
0.0157637
0.0157774
0.0157843
0.0154964
0.0155266
0.0155725
0.0156183
0.0156636
0.0157077
0.0157482
0.0157828
0.0158105
0.0158309
0.0158443
0.0158509
0.0154858
0.015514
0.0155614
0.0156116
0.0156637
0.0157158
0.0157645
0.0158069
0.0158414
0.0158678
0.0158867
0.0158988
0.0159047
0.0155278
0.0155393
0.0155929
0.0156492
0.0157079
0.0157646
0.0158149
0.0158566
0.015889
0.015913
0.0159297
0.0159402
0.0159451
0.0154796
0.0155127
0.0155647
0.0156225
0.015685
0.0157485
0.0158071
0.0158567
0.015896
0.0159255
0.0159467
0.015961
0.0159698
0.015974
0.0154924
0.0155283
0.0155867
0.0156495
0.015717
0.0157832
0.0158417
0.0158892
0.0159256
0.0159521
0.0159706
0.0159829
0.0159902
0.0159937
0.0154825
0.0155425
0.0156046
0.0156725
0.0157437
0.0158109
0.0158682
0.0159133
0.0159469
0.0159707
0.015987
0.0159975
0.0160037
0.0160065
0.0155017
0.0155569
0.0156202
0.0156912
0.0157643
0.0158315
0.0158873
0.0159301
0.0159613
0.0159831
0.0159976
0.0160068
0.0160121
0.0160145
0.0154754
0.0155078
0.0155652
0.0156309
0.015704
0.0157782
0.015845
0.0158994
0.0159407
0.0159702
0.0159905
0.0160039
0.0160122
0.016017
0.0160191
0.0154808
0.0155124
0.0155703
0.0156366
0.0157107
0.0157852
0.0158517
0.0159054
0.0159458
0.0159745
0.0159941
0.0160069
0.0160148
0.0160192
0.0160213
0.0151903
0.0151945
0.0151963
0.0152067
0.0151895
0.0152047
0.0152092
0.0152128
0.015202
0.0152375
0.0152165
0.0152292
0.0152406
0.0152522
0.0152586
0.0152627
0.0152112
0.015219
0.01524
0.0152612
0.0152792
0.0152938
0.0153064
0.0153151
0.0153198
0.0152056
0.01523
0.0152594
0.0152859
0.0153107
0.0153334
0.0153528
0.0153687
0.0153798
0.0153855
0.0152057
0.0152347
0.0152692
0.0153022
0.0153343
0.0153652
0.0153933
0.0154172
0.015436
0.0154488
0.0154552
0.0152115
0.0152302
0.0152693
0.0153082
0.0153472
0.015386
0.0154226
0.0154549
0.0154813
0.0155013
0.0155146
0.0155213
0.0152023
0.0152194
0.0152597
0.0153024
0.0153473
0.0153934
0.015438
0.0154782
0.0155122
0.0155391
0.0155589
0.0155718
0.0155781
0.015238
0.0152405
0.0152863
0.0153346
0.0153862
0.0154381
0.0154862
0.0155277
0.0155615
0.0155874
0.015606
0.0156179
0.0156237
0.0151969
0.0152171
0.0152617
0.0153112
0.0153656
0.0154229
0.0154784
0.0155278
0.0155689
0.0156013
0.0156255
0.0156425
0.0156533
0.0156585
0.0152074
0.0152299
0.0152799
0.015334
0.0153938
0.0154553
0.0155125
0.0155617
0.0156014
0.0156319
0.0156543
0.0156697
0.0156794
0.015684
0.0151903
0.0152414
0.0152945
0.0153535
0.0154178
0.0154818
0.0155395
0.0155877
0.0156257
0.0156544
0.015675
0.0156891
0.0156979
0.015702
0.0152056
0.0152531
0.0153073
0.0153696
0.0154367
0.015502
0.0155594
0.0156064
0.0156429
0.0156699
0.0156893
0.0157023
0.0157104
0.0157142
0.0151912
0.0152103
0.0152596
0.0153161
0.0153807
0.0154496
0.0155154
0.0155724
0.0156185
0.0156538
0.0156797
0.0156981
0.0157105
0.015718
0.0157216
0.0151956
0.015214
0.0152639
0.0153209
0.0153866
0.0154562
0.0155222
0.0155789
0.0156244
0.0156591
0.0156845
0.0157024
0.0157144
0.0157217
0.0157252
0.01492
0.0149234
0.0149275
0.0149362
0.0149143
0.0149263
0.0149294
0.0149323
0.014933
0.0149638
0.0149389
0.014949
0.014958
0.0149669
0.0149716
0.0149749
0.0149415
0.0149425
0.0149598
0.0149771
0.0149915
0.0150028
0.0150126
0.0150193
0.015023
0.0149308
0.0149521
0.0149769
0.0149986
0.0150187
0.015037
0.0150527
0.0150657
0.0150747
0.0150794
0.0149309
0.0149562
0.0149854
0.0150127
0.0150391
0.0150647
0.0150883
0.0151087
0.0151249
0.0151361
0.0151418
0.0149418
0.0149523
0.0149855
0.0150178
0.0150502
0.015083
0.0151145
0.015143
0.0151669
0.0151853
0.0151978
0.015204
0.0149335
0.0149428
0.0149772
0.0150129
0.0150504
0.0150895
0.0151284
0.0151647
0.0151963
0.015222
0.0152412
0.015254
0.0152603
0.0149643
0.0149603
0.014999
0.0150394
0.0150832
0.0151285
0.0151722
0.0152113
0.0152442
0.0152702
0.0152893
0.0153017
0.0153078
0.0149282
0.0149395
0.0149777
0.0150192
0.0150651
0.0151148
0.0151649
0.0152114
0.0152517
0.0152846
0.01531
0.0153283
0.0153401
0.0153459
0.014937
0.0149498
0.0149922
0.0150377
0.0150889
0.0151434
0.0151966
0.0152444
0.0152847
0.0153168
0.0153412
0.0153585
0.0153696
0.015375
0.0149152
0.0149589
0.0150037
0.0150535
0.0151094
0.0151675
0.0152224
0.0152706
0.0153102
0.0153413
0.0153646
0.015381
0.0153914
0.0153965
0.0149274
0.014968
0.0150136
0.0150666
0.0151257
0.015186
0.0152418
0.0152898
0.0153287
0.0153588
0.0153812
0.0153968
0.0154067
0.0154115
0.0149211
0.0149305
0.0149727
0.0150204
0.0150757
0.0151371
0.0151986
0.0152548
0.0153024
0.0153406
0.01537
0.0153917
0.0154068
0.0154164
0.015421
0.0149247
0.0149336
0.0149762
0.0150242
0.0150806
0.0151429
0.015205
0.0152612
0.0153086
0.0153465
0.0153755
0.0153969
0.0154117
0.0154211
0.0154256
0.0146605
0.0146635
0.0146698
0.0146773
0.0146526
0.0146622
0.0146634
0.0146658
0.0146757
0.0147032
0.0146756
0.0146834
0.0146899
0.0146964
0.0146992
0.0147017
0.0146839
0.0146807
0.0146947
0.0147082
0.0147191
0.0147271
0.0147339
0.0147384
0.0147411
0.0146707
0.0146893
0.0147098
0.0147269
0.0147423
0.0147561
0.0147678
0.0147774
0.0147842
0.0147878
0.0146709
0.0146926
0.0147172
0.014739
0.0147595
0.0147794
0.0147981
0.0148143
0.0148275
0.0148367
0.0148415
0.0146842
0.0146896
0.0147173
0.0147434
0.0147689
0.014795
0.0148207
0.0148445
0.0148649
0.014881
0.014892
0.0148976
0.0146761
0.0146811
0.0147101
0.0147392
0.014769
0.0148006
0.0148328
0.0148639
0.0148918
0.0149151
0.014933
0.014945
0.014951
0.0147037
0.0146952
0.0147274
0.0147599
0.0147952
0.014833
0.0148707
0.0149058
0.0149363
0.014961
0.0149796
0.0149919
0.014998
0.0146706
0.0146763
0.0147089
0.0147429
0.0147799
0.0148211
0.0148642
0.0149059
0.0149435
0.0149752
0.0150004
0.015019
0.0150311
0.0150371
0.0146781
0.0146842
0.0147199
0.0147568
0.0147987
0.014845
0.0148922
0.0149365
0.0149754
0.0150074
0.0150324
0.0150506
0.0150624
0.0150682
0.0146536
0.0146909
0.0147281
0.0147686
0.0148151
0.0148656
0.0149156
0.0149614
0.0150007
0.0150325
0.015057
0.0150747
0.0150861
0.0150917
0.0146634
0.0146975
0.014735
0.0147784
0.0148284
0.0148818
0.0149336
0.0149802
0.0150194
0.0150509
0.0150749
0.0150921
0.0151031
0.0151085
0.0146617
0.0146647
0.0147005
0.0147396
0.0147853
0.0148378
0.014893
0.0149458
0.0149926
0.0150317
0.0150628
0.0150864
0.0151033
0.0151141
0.0151194
0.0146649
0.0146673
0.0147032
0.0147425
0.0147892
0.0148427
0.0148987
0.014952
0.0149988
0.0150378
0.0150687
0.0150921
0.0151088
0.0151195
0.0151247
0.0144093
0.0144119
0.0144211
0.0144275
0.0144025
0.0144096
0.0144086
0.0144107
0.0144278
0.0144532
0.0144243
0.0144298
0.0144338
0.0144375
0.0144383
0.0144401
0.0144363
0.0144315
0.0144422
0.0144518
0.0144588
0.0144633
0.0144669
0.014469
0.0144707
0.0144237
0.0144393
0.0144555
0.0144678
0.014478
0.0144869
0.0144943
0.0145004
0.0145047
0.0145072
0.0144239
0.0144415
0.0144617
0.0144777
0.0144921
0.0145059
0.014519
0.0145308
0.0145406
0.0145476
0.0145513
0.0144366
0.0144396
0.0144618
0.0144814
0.0144997
0.0145186
0.0145378
0.0145564
0.0145728
0.0145861
0.0145953
0.0146001
0.0144283
0.0144319
0.0144559
0.014478
0.0144998
0.0145231
0.0145481
0.0145732
0.0145966
0.0146168
0.0146326
0.0146435
0.014649
0.0144538
0.0144428
0.0144683
0.0144924
0.0145188
0.0145482
0.0145791
0.0146092
0.0146363
0.014659
0.0146764
0.0146881
0.0146939
0.0144218
0.0144251
0.0144525
0.0144787
0.0145064
0.0145382
0.0145734
0.0146093
0.014643
0.0146725
0.0146966
0.0147147
0.0147267
0.0147327
0.0144284
0.0144307
0.0144597
0.0144877
0.0145197
0.0145569
0.014597
0.0146366
0.0146726
0.0147034
0.0147281
0.0147464
0.0147584
0.0147643
0.0144036
0.0144348
0.0144643
0.0144952
0.0145317
0.0145735
0.0146173
0.0146594
0.0146969
0.0147282
0.014753
0.0147712
0.0147831
0.0147889
0.0144109
0.0144388
0.014468
0.0145015
0.0145416
0.0145869
0.0146334
0.014677
0.0147151
0.0147467
0.0147713
0.0147894
0.0148011
0.0148069
0.0144106
0.01441
0.0144397
0.0144703
0.014506
0.0145487
0.0145964
0.0146444
0.0146888
0.0147273
0.0147589
0.0147834
0.0148013
0.0148129
0.0148185
0.0144135
0.0144123
0.0144417
0.0144722
0.0145087
0.0145526
0.0146013
0.01465
0.0146948
0.0147334
0.014765
0.0147894
0.0148072
0.0148187
0.0148244
0.0141637
0.0141662
0.0141789
0.014185
0.0141635
0.0141671
0.0141629
0.014165
0.0141871
0.0142121
0.0141837
0.0141863
0.0141873
0.0141876
0.014186
0.0141872
0.014197
0.0141943
0.0142008
0.0142053
0.0142079
0.0142083
0.014208
0.0142074
0.0142081
0.0141898
0.0142006
0.0142117
0.0142183
0.0142226
0.0142259
0.0142286
0.0142308
0.0142326
0.0142339
0.0141899
0.0142007
0.0142163
0.0142257
0.014233
0.0142401
0.0142474
0.0142545
0.0142607
0.0142654
0.014268
0.0141974
0.0142009
0.0142164
0.0142286
0.0142387
0.0142497
0.0142622
0.0142751
0.0142874
0.0142977
0.0143051
0.014309
0.0141876
0.0141947
0.0142121
0.014226
0.0142388
0.0142533
0.0142704
0.0142892
0.0143078
0.0143247
0.0143383
0.0143478
0.0143527
0.0142128
0.0142013
0.0142188
0.0142334
0.01425
0.0142705
0.0142942
0.0143189
0.0143423
0.0143625
0.0143784
0.0143893
0.0143948
0.0141797
0.0141845
0.0142061
0.0142232
0.0142406
0.0142626
0.0142895
0.014319
0.0143484
0.0143752
0.0143977
0.0144149
0.0144266
0.0144324
0.014186
0.0141872
0.0142087
0.0142267
0.0142481
0.0142757
0.0143083
0.0143426
0.0143753
0.0144043
0.0144281
0.014446
0.014458
0.0144639
0.0141647
0.0141884
0.0142093
0.0142296
0.0142554
0.0142881
0.0143253
0.014363
0.014398
0.0144282
0.0144526
0.0144709
0.014483
0.014489
0.0141685
0.014189
0.0142092
0.014232
0.0142618
0.0142986
0.0143391
0.0143791
0.0144154
0.0144464
0.0144711
0.0144894
0.0145015
0.0145075
0.0141652
0.0141645
0.0141875
0.0142089
0.0142339
0.0142666
0.0143062
0.0143488
0.0143901
0.0144272
0.0144585
0.0144833
0.0145017
0.0145137
0.0145197
0.0141679
0.0141668
0.0141889
0.0142097
0.0142354
0.0142694
0.0143103
0.0143539
0.0143958
0.0144332
0.0144646
0.0144895
0.0145078
0.0145198
0.0145258
0.0139199
0.0139224
0.0139398
0.0139472
0.0139369
0.0139342
0.0139247
0.0139275
0.01395
0.0139785
0.0139533
0.0139514
0.0139486
0.013944
0.0139389
0.0139397
0.0139645
0.0139694
0.0139692
0.013966
0.0139624
0.0139579
0.0139529
0.0139493
0.0139489
0.0139785
0.0139718
0.0139752
0.0139744
0.0139712
0.0139682
0.0139658
0.013964
0.0139631
0.0139633
0.0139787
0.0139673
0.0139768
0.0139782
0.0139773
0.013977
0.0139783
0.0139807
0.0139836
0.0139862
0.0139878
0.013965
0.0139722
0.013977
0.0139802
0.0139808
0.0139835
0.0139891
0.0139967
0.014005
0.0140127
0.0140185
0.0140216
0.0139505
0.0139699
0.0139756
0.0139785
0.013981
0.013986
0.0139953
0.0140081
0.0140224
0.0140361
0.0140478
0.0140562
0.0140605
0.0139791
0.0139698
0.0139749
0.0139778
0.0139838
0.0139955
0.0140123
0.014032
0.0140519
0.0140699
0.0140845
0.0140946
0.0140997
0.0139405
0.0139541
0.0139668
0.013972
0.0139777
0.0139896
0.0140084
0.0140321
0.0140575
0.0140817
0.0141027
0.0141191
0.0141303
0.014136
0.0139482
0.0139524
0.0139634
0.0139691
0.0139791
0.0139974
0.0140229
0.0140523
0.0140819
0.014109
0.0141319
0.0141494
0.0141612
0.0141671
0.0139386
0.0139499
0.013959
0.0139669
0.0139817
0.0140059
0.0140368
0.0140704
0.014103
0.014132
0.014156
0.0141741
0.0141862
0.0141923
0.0139357
0.0139454
0.0139542
0.0139652
0.0139848
0.0140137
0.0140487
0.0140852
0.0141197
0.0141498
0.0141743
0.0141928
0.014205
0.0142111
0.0139214
0.0139263
0.0139405
0.0139509
0.0139646
0.0139875
0.0140197
0.0140572
0.0140955
0.014131
0.0141618
0.0141866
0.0142052
0.0142175
0.0142236
0.0139243
0.0139294
0.0139416
0.0139507
0.013965
0.0139894
0.014023
0.0140617
0.0141008
0.0141369
0.0141678
0.0141928
0.0142114
0.0142238
0.0142299
0.0136694
0.0136728
0.0136947
0.0137099
0.0137305
0.0137089
0.0136906
0.0136961
0.0137081
0.0137534
0.0137329
0.0137229
0.0137154
0.0137021
0.013692
0.0136926
0.0137374
0.0137576
0.0137454
0.0137283
0.0137156
0.0137051
0.0136949
0.0136881
0.0136869
0.0138153
0.0137567
0.013739
0.0137288
0.0137167
0.0137064
0.0136989
0.0136936
0.0136906
0.0136901
0.0138156
0.0137465
0.0137389
0.0137274
0.0137175
0.0137098
0.0137055
0.0137042
0.0137046
0.0137056
0.0137067
0.0137379
0.0137572
0.0137391
0.0137291
0.0137187
0.0137133
0.0137129
0.0137163
0.0137218
0.0137277
0.0137325