/*--------------------------------*- C++ -*----------------------------------*\
| =========                 |                                                 |
| \\      /  F ield         | OpenFOAM: The Open Source CFD Toolbox           |
|  \\    /   O peration     | Version:  2.1.1                                 |
|   \\  /    A nd           | Web:      www.OpenFOAM.org                      |
|    \\/     M anipulation  |                                                 |
\*---------------------------------------------------------------------------*/
FoamFile
{
    version     2.0;
    format      ascii;
    class       volScalarField;
    location    "0.06";
    object      p;
}
// * * * * * * * * * * * * * * * * * * * * * * * * * * * * * * * * * * * * * //

dimensions      [0 2 -2 0 0 0 0];

internalField   nonuniform List<scalar> 
163952
(
0.0416489
0.0410727
0.0363365
0.0311418
0.0299451
0.0273337
0.0267437
0.02642
0.0366565
0.0323144
0.027273
0.0247833
0.0235398
0.0227609
0.0224466
0.0223054
0.0336876
0.0279508
0.0244471
0.0228075
0.021895
0.0213573
0.0210186
0.0208384
0.020753
0.0335574
0.0260586
0.0232243
0.0218778
0.0211226
0.0206439
0.0203244
0.0201128
0.0199867
0.0199232
0.0335586
0.0255166
0.0227
0.0214219
0.0207071
0.0202435
0.0199196
0.0196889
0.0195294
0.0194289
0.0193766
0.0336879
0.0260586
0.0227
0.0212784
0.0205159
0.0200273
0.0196819
0.0194281
0.0192415
0.0191096
0.0190241
0.0189787
0.0366562
0.0279507
0.0232243
0.0214219
0.0205159
0.0199576
0.0195695
0.0192829
0.0190674
0.0189069
0.018792
0.0187166
0.0186762
0.0323145
0.0244471
0.0218778
0.0207071
0.0200273
0.0195695
0.019236
0.0189844
0.0187932
0.01865
0.0185469
0.0184788
0.0184421
0.0363365
0.027273
0.0228076
0.0211226
0.0202435
0.0196819
0.0192829
0.0189844
0.0187564
0.0185823
0.0184513
0.0183567
0.0182939
0.0182599
0.0311419
0.0247833
0.0218951
0.0206439
0.0199196
0.0194281
0.0190674
0.0187932
0.0185823
0.0184204
0.0182982
0.0182098
0.0181509
0.0181189
0.0299451
0.0235398
0.0213573
0.0203244
0.0196889
0.0192415
0.0189069
0.01865
0.0184513
0.0182982
0.0181825
0.0180984
0.0180423
0.0180119
0.0273337
0.0227609
0.0210187
0.0201128
0.0195294
0.0191096
0.018792
0.0185469
0.0183567
0.0182098
0.0180984
0.0180174
0.0179633
0.0179339
0.0416489
0.0267437
0.0224466
0.0208384
0.0199867
0.0194289
0.019024
0.0187166
0.0184788
0.0182938
0.0181508
0.0180423
0.0179633
0.0179105
0.0178818
0.0410727
0.02642
0.0223054
0.0207529
0.0199232
0.0193766
0.0189787
0.0186761
0.018442
0.0182599
0.0181189
0.0180119
0.0179339
0.0178818
0.0178534
0.023475
0.0235318
0.0224696
0.0236788
0.0224099
0.0220959
0.0220511
0.0220303
0.0225742
0.0243882
0.0220754
0.0217633
0.0215028
0.0213121
0.0212374
0.0211857
0.0233524
0.0221272
0.0217094
0.0212975
0.0209568
0.0206783
0.0204936
0.0203976
0.0203482
0.0220967
0.0218064
0.0213693
0.0209281
0.0205355
0.0202244
0.0199883
0.0198287
0.0197365
0.0196923
0.0220974
0.0216772
0.0211852
0.0206814
0.0202545
0.0199122
0.0196527
0.0194615
0.0193298
0.0192496
0.0192111
0.0233525
0.0218067
0.0211852
0.0206014
0.0201126
0.0197348
0.0194457
0.0192279
0.0190672
0.018955
0.0188847
0.0188508
0.0225744
0.0221273
0.0213694
0.0206814
0.0201126
0.0196761
0.0193468
0.0190966
0.0189073
0.0187671
0.0186682
0.0186053
0.0185748
0.0243882
0.0217094
0.0209282
0.0202546
0.0197348
0.0193468
0.0190541
0.018831
0.0186616
0.0185354
0.0184459
0.0183886
0.0183607
0.0224696
0.0220754
0.0212976
0.0205355
0.0199122
0.0194457
0.0190966
0.018831
0.0186275
0.018472
0.0183558
0.018273
0.0182198
0.0181938
0.0236789
0.0217633
0.0209569
0.0202244
0.0196527
0.0192279
0.0189073
0.0186616
0.018472
0.0183267
0.0182176
0.0181396
0.0180894
0.0180648
0.0224099
0.0215028
0.0206783
0.0199883
0.0194615
0.0190672
0.0187671
0.0185354
0.0183558
0.0182176
0.0181136
0.0180391
0.017991
0.0179674
0.0220959
0.0213121
0.0204936
0.0198287
0.0193298
0.018955
0.0186681
0.0184459
0.018273
0.0181396
0.0180391
0.017967
0.0179204
0.0178975
0.023475
0.0220511
0.0212374
0.0203976
0.0197365
0.0192496
0.0188847
0.0186053
0.0183886
0.0182198
0.0180894
0.017991
0.0179204
0.0178747
0.0178523
0.0235318
0.0220303
0.0211856
0.0203482
0.0196923
0.0192111
0.0188507
0.0185748
0.0183606
0.0181937
0.0180647
0.0179674
0.0178975
0.0178523
0.0178301
0.0198313
0.0198456
0.0199103
0.0202922
0.0205157
0.0204001
0.0202927
0.0202521
0.019917
0.0207609
0.0203107
0.0202328
0.0201381
0.0200994
0.0200701
0.0200447
0.0201273
0.0203245
0.0202242
0.0201037
0.0199672
0.0198228
0.0197315
0.0196766
0.0196462
0.0204744
0.0202575
0.0201325
0.0199527
0.0197609
0.0195952
0.0194555
0.0193555
0.0192933
0.0192621
0.0204752
0.0202123
0.0200595
0.019838
0.0196132
0.0194107
0.0192447
0.0191135
0.019019
0.0189591
0.0189296
0.0201274
0.0202577
0.0200595
0.0198001
0.0195344
0.019301
0.0191047
0.0189465
0.0188239
0.0187356
0.018679
0.0186513
0.0199171
0.0203246
0.0201326
0.019838
0.0195344
0.0192635
0.0190354
0.0188482
0.0186993
0.018585
0.0185025
0.0184494
0.0184233
0.0207609
0.0202242
0.0199528
0.0196132
0.019301
0.0190354
0.0188158
0.0186382
0.0184979
0.0183908
0.0183135
0.0182634
0.0182389
0.0199103
0.0203108
0.0201038
0.0197609
0.0194108
0.0191047
0.0188482
0.0186382
0.0184694
0.0183366
0.0182352
0.018162
0.0181146
0.0180913
0.0202922
0.0202328
0.0199672
0.0195952
0.0192447
0.0189465
0.0186993
0.0184979
0.0183366
0.0182097
0.0181129
0.0180429
0.0179975
0.0179751
0.0205158
0.0201381
0.0198228
0.0194555
0.0191136
0.0188239
0.018585
0.0183908
0.0182352
0.0181129
0.0180195
0.0179519
0.017908
0.0178864
0.0204001
0.0200994
0.0197315
0.0193555
0.019019
0.0187356
0.0185025
0.0183135
0.018162
0.0180429
0.0179519
0.0178861
0.0178433
0.0178222
0.0198313
0.0202927
0.0200701
0.0196766
0.0192933
0.0189591
0.018679
0.0184494
0.0182634
0.0181146
0.0179974
0.017908
0.0178433
0.0178012
0.0177805
0.0198456
0.0202521
0.0200447
0.0196462
0.019262
0.0189295
0.0186512
0.0184233
0.0182389
0.0180912
0.0179751
0.0178864
0.0178222
0.0177805
0.0177599
0.018484
0.0184944
0.018601
0.0188281
0.019159
0.0191587
0.0191063
0.0190843
0.0186159
0.0190418
0.0190818
0.0190694
0.0190402
0.0190417
0.0190406
0.0190371
0.0187567
0.0190856
0.0190732
0.0190662
0.0190376
0.018986
0.0189504
0.0189251
0.0189109
0.0191889
0.019089
0.019083
0.0190329
0.0189669
0.0189028
0.0188401
0.0187904
0.0187558
0.0187376
0.0191895
0.0190693
0.0190644
0.0190015
0.0189122
0.018819
0.0187333
0.0186589
0.018602
0.0185639
0.0185445
0.0187568
0.0190891
0.0190643
0.0189902
0.0188816
0.0187656
0.0186555
0.0185586
0.0184784
0.018418
0.0183781
0.0183581
0.018616
0.0190857
0.0190831
0.0190015
0.0188816
0.018747
0.0186152
0.0184958
0.0183942
0.0183123
0.0182513
0.0182111
0.0181911
0.0190418
0.0190733
0.019033
0.0189122
0.0187657
0.0186152
0.0184747
0.0183515
0.0182488
0.0181672
0.0181069
0.0180671
0.0180474
0.0186011
0.0190819
0.0190663
0.0189669
0.018819
0.0186555
0.0184958
0.0183515
0.0182276
0.0181255
0.0180451
0.0179858
0.0179469
0.0179276
0.0188282
0.0190694
0.0190377
0.0189028
0.0187334
0.0185586
0.0183942
0.0182488
0.0181255
0.0180247
0.0179457
0.0178876
0.0178495
0.0178306
0.019159
0.0190403
0.0189861
0.0188401
0.018659
0.0184784
0.0183123
0.0181672
0.0180451
0.0179457
0.0178681
0.017811
0.0177735
0.017755
0.0191587
0.0190418
0.0189504
0.0187904
0.018602
0.018418
0.0182513
0.0181068
0.0179858
0.0178876
0.017811
0.0177547
0.0177178
0.0176996
0.018484
0.0191063
0.0190406
0.0189251
0.0187558
0.0185639
0.0183781
0.018211
0.0180671
0.0179469
0.0178494
0.0177735
0.0177178
0.0176813
0.0176632
0.0184944
0.0190843
0.0190371
0.0189109
0.0187375
0.0185445
0.0183581
0.018191
0.0180474
0.0179275
0.0178305
0.017755
0.0176995
0.0176632
0.0176452
0.017766
0.0177742
0.0178268
0.0179755
0.0181919
0.0182354
0.0182259
0.0182243
0.0178517
0.0180841
0.018192
0.0182111
0.0182167
0.0182291
0.0182374
0.018242
0.0179416
0.0181933
0.0182196
0.0182528
0.0182713
0.0182709
0.018268
0.0182621
0.0182578
0.0182258
0.0182153
0.0182593
0.0182727
0.0182731
0.0182657
0.0182505
0.0182346
0.0182209
0.018213
0.0182261
0.01821
0.0182662
0.0182817
0.0182695
0.0182445
0.0182132
0.0181805
0.0181528
0.0181329
0.0181224
0.0179416
0.0182154
0.0182661
0.0182844
0.0182666
0.0182277
0.0181802
0.0181316
0.0180871
0.0180516
0.018027
0.0180145
0.0178518
0.0181934
0.0182594
0.0182818
0.0182666
0.0182216
0.0181616
0.0180979
0.0180381
0.0179866
0.0179464
0.0179192
0.0179054
0.0180842
0.0182197
0.0182728
0.0182695
0.0182277
0.0181616
0.0180862
0.018012
0.0179453
0.0178897
0.017847
0.0178183
0.0178039
0.0178269
0.018192
0.0182529
0.0182732
0.0182445
0.0181802
0.0180979
0.018012
0.0179313
0.0178606
0.0178027
0.0177587
0.0177293
0.0177146
0.0179755
0.0182112
0.0182714
0.0182657
0.0182132
0.0181316
0.0180381
0.0179454
0.0178606
0.0177878
0.0177286
0.0176841
0.0176543
0.0176395
0.0181919
0.0182167
0.018271
0.0182505
0.0181805
0.0180872
0.0179866
0.0178897
0.0178027
0.0177286
0.0176689
0.0176241
0.0175943
0.0175794
0.0182355
0.0182292
0.0182681
0.0182346
0.0181529
0.0180516
0.0179464
0.017847
0.0177587
0.017684
0.0176241
0.0175792
0.0175494
0.0175346
0.017766
0.0182259
0.0182375
0.0182621
0.0182209
0.0181329
0.018027
0.0179192
0.0178183
0.0177293
0.0176543
0.0175943
0.0175494
0.0175196
0.0175048
0.0177742
0.0182244
0.018242
0.0182578
0.018213
0.0181224
0.0180145
0.0179054
0.0178039
0.0177145
0.0176394
0.0175794
0.0175345
0.0175048
0.0174899
0.0172558
0.0172625
0.0172748
0.0173677
0.0174928
0.0175432
0.0175484
0.0175545
0.0172968
0.0174408
0.0175227
0.0175538
0.0175752
0.0175947
0.0176054
0.0176114
0.0173517
0.0175231
0.0175646
0.0176088
0.0176429
0.0176637
0.0176777
0.0176835
0.0176854
0.0175236
0.0175504
0.0176087
0.0176473
0.0176767
0.0176966
0.017707
0.0177114
0.0177118
0.0177112
0.0175238
0.0175547
0.0176254
0.0176715
0.0176972
0.0177103
0.0177129
0.0177084
0.0177018
0.0176956
0.017692
0.0173518
0.0175505
0.0176253
0.01768
0.0177079
0.0177154
0.0177099
0.0176963
0.0176796
0.0176641
0.0176524
0.0176461
0.0172969
0.0175231
0.0176087
0.0176715
0.0177079
0.0177169
0.0177064
0.0176848
0.0176585
0.0176325
0.0176106
0.017595
0.0175869
0.0174409
0.0175647
0.0176474
0.0176973
0.0177154
0.0177064
0.0176803
0.0176461
0.0176105
0.017578
0.0175517
0.0175334
0.0175241
0.0172749
0.0175228
0.0176089
0.0176767
0.0177104
0.0177099
0.0176848
0.0176461
0.0176026
0.0175605
0.0175236
0.0174944
0.0174743
0.0174642
0.0173678
0.0175539
0.017643
0.0176967
0.0177129
0.0176964
0.0176585
0.0176105
0.0175605
0.0175139
0.017474
0.017443
0.0174218
0.0174111
0.0174929
0.0175753
0.0176638
0.017707
0.0177085
0.0176796
0.0176326
0.017578
0.0175236
0.017474
0.0174323
0.0174
0.0173781
0.0173671
0.0175433
0.0175948
0.0176778
0.0177115
0.0177018
0.0176641
0.0176107
0.0175517
0.0174944
0.017443
0.0174
0.017367
0.0173446
0.0173334
0.0172558
0.0175485
0.0176054
0.0176836
0.0177119
0.0176956
0.0176524
0.017595
0.0175334
0.0174743
0.0174218
0.0173781
0.0173446
0.017322
0.0173106
0.0172626
0.0175546
0.0176115
0.0176855
0.0177112
0.017692
0.0176461
0.0175869
0.0175241
0.0174641
0.017411
0.017367
0.0173333
0.0173106
0.0172992
0.0168223
0.0168299
0.0168223
0.0168821
0.016949
0.0169951
0.0170043
0.0170121
0.0168402
0.0169413
0.0169885
0.01702
0.0170452
0.0170682
0.0170805
0.0170873
0.0168745
0.0169885
0.0170321
0.0170763
0.0171129
0.0171398
0.0171607
0.0171725
0.017178
0.0169756
0.0170141
0.0170727
0.0171186
0.017158
0.0171897
0.0172123
0.0172279
0.0172365
0.0172403
0.0169758
0.0170217
0.0170912
0.0171465
0.0171887
0.0172211
0.0172431
0.0172563
0.0172637
0.0172671
0.0172684
0.0168746
0.0170142
0.0170911
0.0171565
0.0172051
0.0172384
0.0172589
0.0172691
0.0172722
0.0172717
0.01727
0.0172687
0.0168403
0.0169886
0.0170728
0.0171465
0.0172051
0.0172442
0.0172654
0.0172732
0.017272
0.0172661
0.017259
0.017253
0.0172497
0.0169414
0.0170322
0.0171187
0.0171888
0.0172384
0.0172654
0.017274
0.0172702
0.0172595
0.0172464
0.0172341
0.0172249
0.0172201
0.0168224
0.0169886
0.0170764
0.0171581
0.0172212
0.0172589
0.0172732
0.0172702
0.0172567
0.0172386
0.0172201
0.0172041
0.0171926
0.0171866
0.0168822
0.0170201
0.017113
0.0171897
0.0172431
0.0172691
0.017272
0.0172595
0.0172386
0.017215
0.0171925
0.0171739
0.0171607
0.0171539
0.0169491
0.0170453
0.0171399
0.0172124
0.0172563
0.0172722
0.0172661
0.0172464
0.0172201
0.0171925
0.0171673
0.0171469
0.0171325
0.0171252
0.0169952
0.0170683
0.0171608
0.017228
0.0172637
0.0172717
0.017259
0.0172341
0.0172041
0.0171739
0.0171469
0.0171251
0.0171101
0.0171024
0.0168224
0.0170044
0.0170806
0.0171726
0.0172366
0.0172672
0.01727
0.0172531
0.0172249
0.0171926
0.0171607
0.0171325
0.01711
0.0170945
0.0170866
0.0168299
0.0170122
0.0170873
0.017178
0.0172404
0.0172684
0.0172687
0.0172497
0.0172201
0.0171865
0.0171539
0.0171252
0.0171023
0.0170866
0.0170785
0.0164321
0.0164402
0.0164287
0.016468
0.0164999
0.0165384
0.0165483
0.016556
0.016442
0.0165191
0.0165405
0.0165681
0.0165918
0.0166146
0.0166273
0.0166344
0.016465
0.0165403
0.0165805
0.0166207
0.0166551
0.0166821
0.0167044
0.0167183
0.0167252
0.0165223
0.0165619
0.0166158
0.0166612
0.0167021
0.0167372
0.0167647
0.0167853
0.0167981
0.0168043
0.0165224
0.0165696
0.0166328
0.0166881
0.0167356
0.0167761
0.0168079
0.016831
0.0168468
0.0168563
0.0168608
0.016465
0.016562
0.0166328
0.0166979
0.0167536
0.0167993
0.0168344
0.0168591
0.0168752
0.0168851
0.0168905
0.0168929
0.0164421
0.0165404
0.0166159
0.0166882
0.0167537
0.0168072
0.0168468
0.0168735
0.0168897
0.0168984
0.0169024
0.016904
0.0169044
0.0165193
0.0165806
0.0166613
0.0167357
0.0167993
0.0168468
0.0168779
0.0168954
0.0169034
0.0169054
0.0169044
0.0169027
0.0169016
0.0164288
0.0165406
0.0166209
0.0167022
0.0167762
0.0168344
0.0168735
0.0168954
0.0169045
0.0169054
0.0169019
0.0168971
0.0168928
0.0168904
0.0164682
0.0165683
0.0166553
0.0167373
0.016808
0.0168592
0.0168897
0.0169034
0.0169054
0.0169007
0.016893
0.0168851
0.016879
0.0168756
0.0165001
0.0165919
0.0166822
0.0167648
0.0168311
0.0168753
0.0168984
0.0169054
0.0169019
0.016893
0.0168822
0.0168721
0.0168646
0.0168606
0.0165386
0.0166148
0.0167045
0.0167854
0.0168469
0.0168852
0.0169025
0.0169045
0.0168971
0.0168851
0.0168721
0.0168606
0.0168521
0.0168477
0.0164322
0.0165484
0.0166274
0.0167185
0.0167982
0.0168564
0.0168906
0.016904
0.0169027
0.0168928
0.0168789
0.0168646
0.0168521
0.0168431
0.0168384
0.0164403
0.0165561
0.0166345
0.0167253
0.0168044
0.0168608
0.0168929
0.0169044
0.0169016
0.0168904
0.0168756
0.0168606
0.0168477
0.0168383
0.0168335
0.0160766
0.0160842
0.0160751
0.0161016
0.0161129
0.0161438
0.0161529
0.0161597
0.0160849
0.0161464
0.0161506
0.0161738
0.0161944
0.0162151
0.0162269
0.0162336
0.0161016
0.0161505
0.0161857
0.016221
0.0162516
0.0162763
0.0162974
0.0163113
0.0163184
0.0161319
0.0161683
0.0162158
0.0162576
0.0162962
0.0163304
0.0163585
0.0163805
0.0163949
0.0164021
0.016132
0.0161753
0.0162308
0.016282
0.0163288
0.016371
0.0164064
0.016434
0.0164542
0.016467
0.0164733
0.0161016
0.0161684
0.0162308
0.0162908
0.0163464
0.0163961
0.0164378
0.0164704
0.0164943
0.0165107
0.0165207
0.0165255
0.016085
0.0161506
0.0162159
0.016282
0.0163465
0.0164047
0.0164533
0.0164909
0.016518
0.0165365
0.0165484
0.0165554
0.0165586
0.0161465
0.0161858
0.0162577
0.0163289
0.0163961
0.0164533
0.0164974
0.0165288
0.0165497
0.0165627
0.0165703
0.0165744
0.0165761
0.0160753
0.0161508
0.0162212
0.0162963
0.0163711
0.0164379
0.0164909
0.0165289
0.0165537
0.0165686
0.0165768
0.0165807
0.0165823
0.0165828
0.0161018
0.016174
0.0162518
0.0163306
0.0164065
0.0164705
0.0165181
0.0165497
0.0165686
0.0165785
0.0165826
0.0165836
0.0165833
0.0165829
0.0161131
0.0161946
0.0162764
0.0163587
0.0164341
0.0164944
0.0165366
0.0165628
0.0165768
0.0165826
0.0165836
0.0165824
0.0165806
0.0165795
0.016144
0.0162153
0.0162976
0.0163807
0.0164543
0.0165108
0.0165485
0.0165704
0.0165807
0.0165836
0.0165824
0.0165796
0.0165768
0.0165752
0.0160767
0.0161531
0.0162271
0.0163114
0.0163951
0.0164672
0.0165208
0.0165554
0.0165744
0.0165823
0.0165833
0.0165806
0.0165768
0.0165734
0.0165715
0.0160843
0.0161599
0.0162338
0.0163186
0.0164022
0.0164734
0.0165256
0.0165586
0.0165761
0.0165828
0.0165829
0.0165795
0.0165752
0.0165715
0.0165694
0.0157504
0.015757
0.0157512
0.0157695
0.0157682
0.0157928
0.0158007
0.0158063
0.0157587
0.015809
0.0158017
0.015821
0.0158384
0.0158562
0.0158666
0.0158727
0.0157717
0.0158019
0.015832
0.0158624
0.0158889
0.0159106
0.0159294
0.0159422
0.0159489
0.0157847
0.0158168
0.0158578
0.0158947
0.0159294
0.0159608
0.0159873
0.0160085
0.0160229
0.0160302
0.0157848
0.015823
0.0158707
0.0159162
0.0159594
0.0159998
0.016035
0.0160637
0.0160854
0.0160997
0.0161068
0.0157718
0.0158169
0.0158707
0.015924
0.0159758
0.0160245
0.0160678
0.0161036
0.0161312
0.0161512
0.0161639
0.0161702
0.0157589
0.0158021
0.0158579
0.0159163
0.0159758
0.0160331
0.0160844
0.016127
0.0161602
0.0161847
0.0162016
0.0162121
0.0162172
0.0158091
0.0158322
0.0158948
0.0159595
0.0160246
0.0160844
0.0161347
0.0161741
0.0162032
0.0162236
0.0162372
0.0162454
0.0162492
0.0157514
0.0158019
0.0158626
0.0159295
0.0159999
0.0160679
0.0161271
0.0161741
0.0162091
0.0162336
0.0162501
0.0162606
0.0162667
0.0162694
0.0157698
0.0158213
0.0158892
0.015961
0.0160352
0.0161037
0.0161603
0.0162032
0.0162337
0.0162541
0.0162671
0.0162749
0.0162792
0.0162812
0.0157685
0.0158387
0.0159108
0.0159875
0.0160639
0.0161313
0.0161848
0.0162237
0.0162501
0.0162671
0.0162773
0.0162831
0.0162861
0.0162873
0.0157931
0.0158565
0.0159297
0.0160088
0.0160856
0.0161513
0.0162017
0.0162372
0.0162606
0.0162749
0.0162831
0.0162873
0.0162893
0.0162901
0.0157505
0.0158009
0.0158669
0.0159424
0.0160231
0.0160999
0.0161641
0.0162122
0.0162454
0.0162667
0.0162793
0.0162861
0.0162893
0.0162907
0.0162911
0.0157571
0.0158066
0.0158729
0.0159491
0.0160304
0.016107
0.0161703
0.0162173
0.0162493
0.0162695
0.0162812
0.0162873
0.0162901
0.0162911
0.0162914
0.0154477
0.0154533
0.0154502
0.0154637
0.0154535
0.0154733
0.0154797
0.0154843
0.0154563
0.015498
0.0154828
0.0154988
0.0155134
0.0155284
0.0155371
0.0155424
0.0154671
0.0154835
0.015509
0.0155348
0.0155574
0.0155759
0.0155922
0.0156034
0.0156094
0.0154685
0.0154962
0.0155311
0.015563
0.0155932
0.015621
0.0156447
0.0156642
0.0156776
0.0156845
0.0154685
0.0155016
0.0155423
0.0155817
0.0156201
0.0156568
0.0156897
0.0157173
0.0157387
0.0157531
0.0157604
0.0154672
0.0154963
0.0155423
0.0155885
0.0156348
0.01568
0.0157216
0.0157574
0.015786
0.0158073
0.0158213
0.0158282
0.0154565
0.0154836
0.0155312
0.0155818
0.0156348
0.0156881
0.015738
0.0157817
0.0158173
0.0158448
0.0158645
0.0158771
0.0158833
0.0154983
0.0155092
0.0155632
0.0156202
0.0156801
0.0157381
0.0157898
0.0158327
0.0158663
0.0158912
0.0159086
0.0159195
0.0159248
0.0154505
0.0154831
0.0155351
0.0155934
0.0156569
0.0157217
0.0157817
0.0158327
0.0158732
0.0159038
0.0159259
0.0159408
0.0159501
0.0159545
0.015464
0.0154992
0.0155577
0.0156212
0.01569
0.0157575
0.0158174
0.0158663
0.0159039
0.0159313
0.0159506
0.0159634
0.0159712
0.0159749
0.0154538
0.0155138
0.0155763
0.015645
0.0157175
0.0157862
0.0158449
0.0158913
0.0159259
0.0159506
0.0159676
0.0159787
0.0159852
0.0159883
0.0154737
0.0155288
0.0155926
0.0156645
0.015739
0.0158075
0.0158646
0.0159087
0.0159409
0.0159635
0.0159787
0.0159884
0.0159941
0.0159967
0.0154479
0.0154801
0.0155375
0.0156037
0.0156779
0.0157533
0.0158215
0.0158772
0.0159196
0.0159501
0.0159712
0.0159852
0.0159941
0.0159992
0.0160015
0.0154535
0.0154847
0.0155427
0.0156097
0.0156848
0.0157606
0.0158284
0.0158834
0.0159248
0.0159545
0.0159749
0.0159883
0.0159967
0.0160015
0.0160037
0.0151635
0.0151682
0.0151671
0.0151777
0.0151609
0.0151771
0.0151822
0.015186
0.0151723
0.0152076
0.0151866
0.0151999
0.015212
0.0152245
0.0152316
0.015236
0.0151817
0.0151878
0.0152093
0.0152311
0.0152501
0.0152656
0.0152793
0.0152887
0.0152939
0.0151751
0.0151989
0.0152285
0.0152555
0.0152813
0.0153051
0.0153257
0.0153428
0.0153547
0.0153609
0.0151752
0.0152038
0.0152382
0.0152718
0.0153049
0.0153371
0.0153666
0.0153918
0.0154117
0.0154253
0.0154322
0.0151818
0.0151991
0.0152383
0.0152777
0.0153178
0.0153581
0.0153962
0.0154299
0.0154577
0.0154788
0.0154929
0.0154999
0.0151726
0.0151881
0.0152286
0.0152719
0.0153179
0.0153655
0.0154117
0.0154536
0.0154891
0.0155172
0.015538
0.0155515
0.0155583
0.0152079
0.0152096
0.0152558
0.0153051
0.0153582
0.0154118
0.0154616
0.0155048
0.01554
0.0155671
0.0155865
0.015599
0.0156052
0.0151674
0.015187
0.0152314
0.0152816
0.0153373
0.0153964
0.0154537
0.0155049
0.0155475
0.0155812
0.0156064
0.0156242
0.0156356
0.0156411
0.0151781
0.0152003
0.0152504
0.0153054
0.0153668
0.0154301
0.0154892
0.0155401
0.0155812
0.0156129
0.0156362
0.0156524
0.0156625
0.0156674
0.0151614
0.0152125
0.015266
0.0153261
0.0153921
0.0154579
0.0155174
0.0155672
0.0156065
0.0156362
0.0156577
0.0156725
0.0156817
0.0156861
0.0151776
0.0152249
0.0152797
0.0153432
0.015412
0.015479
0.0155382
0.0155866
0.0156243
0.0156524
0.0156725
0.0156862
0.0156946
0.0156987
0.0151639
0.0151827
0.0152321
0.0152892
0.0153551
0.0154256
0.0154931
0.0155517
0.0155992
0.0156356
0.0156626
0.0156817
0.0156946
0.0157026
0.0157064
0.0151685
0.0151866
0.0152365
0.0152943
0.0153613
0.0154325
0.0155001
0.0155584
0.0156053
0.0156411
0.0156675
0.0156861
0.0156987
0.0157064
0.01571
0.0148935
0.0148976
0.0148979
0.0149071
0.0148854
0.0148987
0.0149025
0.0149058
0.0149029
0.0149331
0.014908
0.0149191
0.014929
0.0149392
0.0149448
0.0149485
0.0149114
0.01491
0.014928
0.0149461
0.0149618
0.0149745
0.0149857
0.0149933
0.0149976
0.0148997
0.01492
0.0149448
0.0149673
0.0149887
0.0150086
0.0150258
0.0150403
0.0150504
0.0150557
0.0148998
0.0149244
0.0149534
0.0149815
0.0150092
0.0150364
0.0150619
0.0150839
0.0151016
0.0151139
0.0151202
0.0149116
0.0149202
0.0149535
0.0149866
0.0150204
0.015055
0.0150885
0.0151189
0.0151444
0.0151642
0.0151777
0.0151844
0.0149032
0.0149103
0.014945
0.0149816
0.0150205
0.0150615
0.0151026
0.015141
0.0151745
0.0152017
0.0152222
0.0152359
0.0152427
0.0149335
0.0149284
0.0149676
0.0150094
0.0150551
0.0151027
0.0151486
0.0151898
0.0152244
0.0152519
0.015272
0.0152852
0.0152918
0.0148984
0.0149085
0.0149466
0.0149891
0.0150367
0.0150887
0.0151411
0.0151898
0.015232
0.0152665
0.0152932
0.0153125
0.0153249
0.0153311
0.0149077
0.0149196
0.0149623
0.015009
0.0150622
0.0151191
0.0151746
0.0152245
0.0152666
0.0153001
0.0153256
0.0153438
0.0153555
0.0153612
0.014886
0.0149296
0.014975
0.0150263
0.0150843
0.0151447
0.0152019
0.015252
0.0152933
0.0153257
0.01535
0.0153671
0.0153781
0.0153834
0.0148994
0.0149398
0.0149862
0.0150407
0.015102
0.0151646
0.0152225
0.0152722
0.0153126
0.0153439
0.0153672
0.0153835
0.0153939
0.0153989
0.0148941
0.0149032
0.0149454
0.0149939
0.0150508
0.0151143
0.015178
0.0152361
0.0152854
0.015325
0.0153556
0.0153781
0.0153939
0.0154038
0.0154087
0.0148981
0.0149065
0.0149492
0.0149982
0.0150562
0.0151206
0.0151847
0.0152429
0.0152919
0.0153311
0.0153612
0.0153834
0.0153989
0.0154087
0.0154134
0.0146345
0.0146383
0.0146399
0.0146482
0.0146233
0.0146344
0.0146369
0.0146398
0.014645
0.0146715
0.0146436
0.0146527
0.0146606
0.0146688
0.0146729
0.014676
0.0146532
0.0146466
0.0146614
0.0146762
0.0146888
0.0146986
0.0147073
0.0147132
0.0147167
0.0146388
0.014656
0.0146764
0.0146946
0.0147116
0.0147275
0.0147413
0.0147529
0.0147611
0.0147655
0.0146389
0.01466
0.0146842
0.0147068
0.0147291
0.0147512
0.0147722
0.0147907
0.0148058
0.0148163
0.0148218
0.0146535
0.0146561
0.0146842
0.0147113
0.0147388
0.0147672
0.0147954
0.0148217
0.0148443
0.0148621
0.0148743
0.0148805
0.0146454
0.014647
0.0146767
0.014707
0.0147389
0.0147729
0.014808
0.0148417
0.014872
0.0148972
0.0149166
0.0149296
0.0149362
0.014672
0.0146619
0.0146949
0.0147294
0.0147674
0.014808
0.0148486
0.0148863
0.0149189
0.0149454
0.0149653
0.0149785
0.0149851
0.0146405
0.0146443
0.0146768
0.0147121
0.0147516
0.0147957
0.0148419
0.0148864
0.0149263
0.01496
0.0149866
0.0150063
0.0150192
0.0150257
0.0146489
0.0146535
0.0146894
0.014728
0.0147726
0.014822
0.0148722
0.0149191
0.01496
0.0149938
0.01502
0.0150392
0.0150517
0.0150578
0.0146241
0.0146614
0.0146993
0.0147419
0.0147912
0.0148446
0.0148975
0.0149456
0.0149867
0.0150201
0.0150458
0.0150643
0.0150763
0.0150822
0.0146353
0.0146695
0.014708
0.0147535
0.0148063
0.0148625
0.0149168
0.0149655
0.0150065
0.0150393
0.0150643
0.0150823
0.0150938
0.0150995
0.0146353
0.0146377
0.0146736
0.0147139
0.0147617
0.0148168
0.0148747
0.0149299
0.0149787
0.0150194
0.0150517
0.0150763
0.0150939
0.0151051
0.0151107
0.0146391
0.0146407
0.0146768
0.0147174
0.0147661
0.0148223
0.0148809
0.0149365
0.0149853
0.0150258
0.0150579
0.0150822
0.0150995
0.0151107
0.0151161
0.014384
0.0143878
0.0143907
0.0143985
0.0143728
0.0143818
0.0143826
0.0143855
0.0143963
0.0144204
0.014391
0.0143982
0.014404
0.01441
0.0144127
0.0144153
0.0144049
0.0143951
0.0144069
0.0144184
0.0144279
0.0144349
0.014441
0.0144451
0.0144477
0.0143909
0.0144044
0.0144205
0.0144342
0.0144468
0.0144586
0.0144688
0.0144774
0.0144836
0.0144871
0.014391
0.0144083
0.0144276
0.0144447
0.0144614
0.0144781
0.0144944
0.0145091
0.0145212
0.0145299
0.0145345
0.0144051
0.0144046
0.0144277
0.0144486
0.0144695
0.0144915
0.0145141
0.0145357
0.0145548
0.0145702
0.0145809
0.0145864
0.0143968
0.0143956
0.0144208
0.0144449
0.0144696
0.0144963
0.0145248
0.0145532
0.0145796
0.0146021
0.0146198
0.0146318
0.014638
0.014421
0.0144075
0.0144346
0.0144617
0.0144917
0.0145249
0.0145594
0.0145926
0.0146223
0.014647
0.0146659
0.0146786
0.014685
0.0143916
0.0143919
0.0144192
0.0144474
0.0144786
0.0145144
0.0145534
0.0145927
0.0146292
0.014661
0.0146867
0.0147061
0.0147189
0.0147254
0.0143995
0.0143992
0.0144287
0.0144592
0.0144949
0.0145361
0.0145798
0.0146225
0.014661
0.0146937
0.0147198
0.0147392
0.0147519
0.0147582
0.0143739
0.014405
0.0144357
0.0144695
0.0145096
0.0145552
0.0146024
0.0146472
0.0146869
0.0147199
0.0147459
0.014765
0.0147775
0.0147837
0.0143828
0.014411
0.0144418
0.0144782
0.0145218
0.0145706
0.0146201
0.0146662
0.0147062
0.0147392
0.014765
0.0147838
0.0147961
0.0148021
0.014385
0.0143837
0.0144137
0.0144459
0.0144844
0.0145305
0.0145814
0.0146322
0.0146789
0.0147191
0.014752
0.0147775
0.0147961
0.0148082
0.0148141
0.0143888
0.0143866
0.0144164
0.0144486
0.0144879
0.0145351
0.0145869
0.0146383
0.0146853
0.0147255
0.0147583
0.0147837
0.0148021
0.0148141
0.01482
0.0141395
0.0141436
0.0141486
0.0141567
0.0141329
0.014139
0.0141379
0.0141411
0.0141549
0.0141777
0.0141487
0.0141537
0.014157
0.0141605
0.0141616
0.014164
0.0141644
0.014154
0.0141625
0.0141705
0.0141765
0.0141803
0.0141835
0.0141856
0.0141875
0.0141568
0.0141635
0.0141748
0.0141834
0.0141912
0.0141985
0.0142049
0.0142105
0.0142147
0.0142172
0.0141568
0.0141674
0.0141811
0.0141922
0.0142027
0.0142138
0.0142251
0.0142358
0.014245
0.0142517
0.0142554
0.0141646
0.0141636
0.0141812
0.0141955
0.0142092
0.0142244
0.0142411
0.0142579
0.0142734
0.0142862
0.0142953
0.0143001
0.0141555
0.0141545
0.0141752
0.0141925
0.0142093
0.0142284
0.01425
0.0142729
0.014295
0.0143146
0.0143303
0.0143411
0.0143467
0.0141785
0.0141632
0.014184
0.0142031
0.0142247
0.0142502
0.0142783
0.0143066
0.014333
0.0143555
0.014373
0.014385
0.0143911
0.0141498
0.0141499
0.0141715
0.014192
0.0142143
0.0142415
0.0142732
0.0143068
0.0143394
0.0143686
0.0143929
0.0144115
0.014424
0.0144303
0.014158
0.0141549
0.0141776
0.0141994
0.0142258
0.0142584
0.0142954
0.0143332
0.0143687
0.0143996
0.0144249
0.014444
0.0144566
0.014463
0.0141343
0.0141583
0.0141814
0.0142058
0.0142365
0.0142739
0.014315
0.0143557
0.014393
0.014425
0.0144507
0.0144698
0.0144825
0.0144888
0.0141402
0.0141616
0.0141845
0.0142114
0.0142457
0.0142868
0.0143307
0.0143733
0.0144117
0.0144441
0.0144698
0.0144889
0.0145015
0.0145078
0.0141408
0.0141392
0.0141628
0.0141867
0.0142156
0.0142525
0.0142959
0.0143416
0.0143853
0.0144242
0.0144568
0.0144825
0.0145015
0.014514
0.0145202
0.0141449
0.0141424
0.0141652
0.0141886
0.0142181
0.0142561
0.0143007
0.0143472
0.0143914
0.0144305
0.0144631
0.0144888
0.0145078
0.0145202
0.0145264
0.0138975
0.0139025
0.0139108
0.0139208
0.0139044
0.0139049
0.0139013
0.0139056
0.0139181
0.0139422
0.013916
0.0139177
0.0139177
0.0139174
0.0139168
0.0139192
0.0139299
0.0139225
0.0139265
0.0139298
0.0139315
0.0139314
0.0139311
0.0139312
0.0139325
0.0139475
0.0139313
0.0139366
0.0139391
0.0139411
0.0139435
0.0139458
0.0139482
0.0139503
0.013952
0.0139473
0.0139348
0.0139412
0.0139454
0.013949
0.0139541
0.0139605
0.0139673
0.0139736
0.0139785
0.0139814
0.0139299
0.0139313
0.0139412
0.0139478
0.0139537
0.0139619
0.0139728
0.0139851
0.0139971
0.0140075
0.0140151
0.0140192
0.0139186
0.0139229
0.0139369
0.0139457
0.0139538
0.013965
0.01398
0.0139976
0.0140157
0.0140325
0.0140462
0.014056
0.014061
0.0139432
0.0139274
0.0139398
0.0139495
0.0139623
0.0139801
0.0140022
0.014026
0.014049
0.0140694
0.0140855
0.0140967
0.0141024
0.0139126
0.0139178
0.0139312
0.0139421
0.0139548
0.0139733
0.0139979
0.0140261
0.0140549
0.0140816
0.0141043
0.014122
0.014134
0.0141401
0.0139228
0.0139195
0.013933
0.0139446
0.0139613
0.0139857
0.0140161
0.0140493
0.0140817
0.0141108
0.014135
0.0141535
0.014166
0.0141722
0.0139059
0.0139192
0.0139327
0.0139469
0.0139681
0.0139977
0.0140329
0.0140697
0.0141045
0.0141351
0.0141601
0.0141791
0.0141917
0.014198
0.0139063
0.0139188
0.0139324
0.0139492
0.0139745
0.0140081
0.0140467
0.0140859
0.0141222
0.0141536
0.0141791
0.0141982
0.0142109
0.0142172
0.013899
0.0139028
0.0139182
0.0139324
0.0139514
0.0139794
0.0140158
0.0140565
0.0140971
0.0141343
0.0141661
0.0141918
0.0142109
0.0142236
0.0142299
0.013904
0.0139072
0.0139207
0.0139338
0.0139531
0.0139822
0.0140199
0.0140615
0.0141028
0.0141404
0.0141724
0.0141981
0.0142172
0.0142299
0.0142362
0.013652
0.0136589
0.0136709
0.0136877
0.0136958
0.013678
0.0136703
0.0136776
0.0136803
0.0137136
0.0136934
0.0136887
0.0136838
0.0136771
0.013674
0.013677
0.0136999
0.0136997
0.0136966
0.0136924
0.0136878
0.0136827
0.0136787
0.0136766
0.0136776
0.0137897
0.0137107
0.013701
0.0136956
0.0136911
0.0136879
0.013686
0.0136856
0.013686
0.0136871
0.0137892
0.0137178
0.0137043
0.0136984
0.0136946
0.0136939
0.0136958
0.0136992
0.0137032
0.0137068
0.013709
0.0136993
0.0137102
0.0137042
0.0136999
0.0136973
0.013699
0.013705
0.0137134
0.0137227