/*--------------------------------*- C++ -*----------------------------------*\
| =========                 |                                                 |
| \\      /  F ield         | OpenFOAM: The Open Source CFD Toolbox           |
|  \\    /   O peration     | Version:  2.1.1                                 |
|   \\  /    A nd           | Web:      www.OpenFOAM.org                      |
|    \\/     M anipulation  |                                                 |
\*---------------------------------------------------------------------------*/
FoamFile
{
    version     2.0;
    format      ascii;
    class       volScalarField;
    location    "0.095";
    object      p;
}
// * * * * * * * * * * * * * * * * * * * * * * * * * * * * * * * * * * * * * //

dimensions      [0 2 -2 0 0 0 0];

internalField   nonuniform List<scalar> 
163952
(
0.041692
0.0411157
0.0363796
0.0311849
0.0299881
0.0273768
0.0267867
0.0264631
0.0366996
0.0323575
0.0273161
0.0248264
0.0235828
0.0228039
0.0224896
0.0223485
0.0337307
0.0279939
0.0244902
0.0228506
0.0219381
0.0214003
0.0210617
0.0208814
0.0207959
0.0336005
0.0261017
0.0232674
0.0219209
0.0211656
0.0206869
0.0203674
0.0201558
0.0200297
0.0199662
0.0336017
0.0255597
0.0227431
0.021465
0.0207502
0.0202865
0.0199626
0.0197318
0.0195724
0.0194719
0.0194195
0.033731
0.0261018
0.0227431
0.0213214
0.020559
0.0200703
0.0197249
0.019471
0.0192844
0.0191524
0.0190669
0.0190215
0.0366993
0.0279938
0.0232674
0.0214649
0.0205589
0.0200006
0.0196124
0.0193258
0.0191102
0.0189497
0.0188348
0.0187594
0.018719
0.0323576
0.0244902
0.0219209
0.0207502
0.0200703
0.0196124
0.0192789
0.0190273
0.018836
0.0186928
0.0185897
0.0185215
0.0184848
0.0363796
0.0273161
0.0228506
0.0211656
0.0202865
0.0197249
0.0193258
0.0190273
0.0187993
0.0186251
0.0184941
0.0183994
0.0183366
0.0183026
0.031185
0.0248264
0.0219381
0.0206869
0.0199626
0.019471
0.0191102
0.018836
0.0186251
0.0184631
0.018341
0.0182525
0.0181935
0.0181616
0.0299882
0.0235829
0.0214003
0.0203674
0.0197318
0.0192844
0.0189497
0.0186928
0.0184941
0.018341
0.0182252
0.0181411
0.018085
0.0180545
0.0273768
0.0228039
0.0210617
0.0201558
0.0195724
0.0191525
0.0188348
0.0185897
0.0183994
0.0182525
0.0181411
0.01806
0.0180059
0.0179765
0.041692
0.0267867
0.0224896
0.0208814
0.0200297
0.0194719
0.0190669
0.0187594
0.0185215
0.0183366
0.0181935
0.018085
0.0180059
0.017953
0.0179243
0.0411158
0.0264631
0.0223485
0.020796
0.0199662
0.0194195
0.0190215
0.018719
0.0184848
0.0183026
0.0181616
0.0180545
0.0179765
0.0179243
0.017896
0.0235181
0.0235749
0.0225127
0.0237219
0.022453
0.0221389
0.0220941
0.0220733
0.0226173
0.0244313
0.0221185
0.0218064
0.0215458
0.0213551
0.0212804
0.0212287
0.0233955
0.0221703
0.0217525
0.0213406
0.0209999
0.0207213
0.0205366
0.0204406
0.0203911
0.0221399
0.0218496
0.0214124
0.0209712
0.0205785
0.0202674
0.0200312
0.0198716
0.0197795
0.0197352
0.0221405
0.0217203
0.0212283
0.0207245
0.0202976
0.0199551
0.0196957
0.0195045
0.0193727
0.0192925
0.019254
0.0233956
0.0218498
0.0212283
0.0206444
0.0201556
0.0197777
0.0194886
0.0192708
0.0191101
0.0189978
0.0189276
0.0188936
0.0226175
0.0221704
0.0214124
0.0207244
0.0201556
0.0197191
0.0193898
0.0191395
0.0189502
0.0188099
0.018711
0.0186481
0.0186176
0.0244313
0.0217525
0.0209712
0.0202976
0.0197777
0.0193898
0.019097
0.0188739
0.0187044
0.0185782
0.0184886
0.0184313
0.0184034
0.0225127
0.0221186
0.0213406
0.0205785
0.0199551
0.0194886
0.0191395
0.0188739
0.0186703
0.0185148
0.0183986
0.0183157
0.0182625
0.0182364
0.0237219
0.0218064
0.0209999
0.0202674
0.0196957
0.0192708
0.0189502
0.0187044
0.0185148
0.0183694
0.0182603
0.0181823
0.018132
0.0181074
0.022453
0.0215459
0.0207213
0.0200313
0.0195045
0.0191101
0.0188099
0.0185782
0.0183986
0.0182603
0.0181563
0.0180817
0.0180336
0.01801
0.022139
0.0213551
0.0205366
0.0198716
0.0193727
0.0189978
0.018711
0.0184886
0.0183157
0.0181823
0.0180817
0.0180096
0.017963
0.0179401
0.0235181
0.0220941
0.0212804
0.0204406
0.0197795
0.0192925
0.0189276
0.0186481
0.0184313
0.0182625
0.018132
0.0180336
0.017963
0.0179173
0.0178948
0.0235749
0.0220733
0.0212287
0.0203911
0.0197352
0.019254
0.0188936
0.0186176
0.0184034
0.0182364
0.0181074
0.01801
0.0179401
0.0178948
0.0178726
0.0198744
0.0198887
0.0199534
0.0203353
0.0205589
0.0204432
0.0203357
0.0202952
0.0199601
0.020804
0.0203539
0.0202759
0.0201812
0.0201424
0.0201131
0.0200877
0.0201705
0.0203676
0.0202673
0.0201468
0.0200102
0.0198658
0.0197745
0.0197195
0.0196892
0.0205175
0.0203007
0.0201756
0.0199958
0.019804
0.0196382
0.0194984
0.0193985
0.0193362
0.019305
0.0205183
0.0202555
0.0201026
0.0198811
0.0196563
0.0194537
0.0192877
0.0191565
0.0190619
0.019002
0.0189724
0.0201705
0.0203009
0.0201026
0.0198432
0.0195774
0.019344
0.0191476
0.0189894
0.0188668
0.0187784
0.0187218
0.0186941
0.0199602
0.0203677
0.0201757
0.0198811
0.0195774
0.0193065
0.0190783
0.0188911
0.0187421
0.0186278
0.0185453
0.0184921
0.0184661
0.0208041
0.0202674
0.0199959
0.0196563
0.019344
0.0190783
0.0188587
0.018681
0.0185408
0.0184336
0.0183562
0.0183062
0.0182816
0.0199534
0.0203539
0.0201469
0.019804
0.0194538
0.0191476
0.0188911
0.018681
0.0185122
0.0183793
0.0182779
0.0182047
0.0181572
0.0181339
0.0203353
0.0202759
0.0200103
0.0196382
0.0192877
0.0189894
0.0187421
0.0185408
0.0183793
0.0182524
0.0181555
0.0180855
0.0180401
0.0180177
0.0205589
0.0201812
0.0198658
0.0194985
0.0191565
0.0188668
0.0186278
0.0184336
0.018278
0.0181555
0.0180621
0.0179945
0.0179506
0.017929
0.0204432
0.0201425
0.0197746
0.0193985
0.0190619
0.0187784
0.0185453
0.0183562
0.0182047
0.0180855
0.0179945
0.0179286
0.0178858
0.0178648
0.0198744
0.0203358
0.0201131
0.0197196
0.0193362
0.019002
0.0187218
0.0184922
0.0183062
0.0181572
0.0180401
0.0179506
0.0178858
0.0178437
0.017823
0.0198887
0.0202952
0.0200878
0.0196892
0.019305
0.0189724
0.0186941
0.0184661
0.0182816
0.0181339
0.0180177
0.017929
0.0178648
0.017823
0.0178024
0.0185271
0.0185375
0.0186442
0.0188713
0.0192021
0.0192018
0.0191494
0.0191274
0.018659
0.0190849
0.019125
0.0191126
0.0190834
0.0190849
0.0190837
0.0190801
0.0187999
0.0191288
0.0191164
0.0191094
0.0190808
0.0190291
0.0189934
0.0189681
0.0189539
0.0192321
0.0191322
0.0191262
0.019076
0.0190099
0.0189458
0.0188831
0.0188334
0.0187987
0.0187805
0.0192327
0.0191125
0.0191075
0.0190446
0.0189552
0.018862
0.0187763
0.0187019
0.0186449
0.0186068
0.0185874
0.0187999
0.0191323
0.0191075
0.0190333
0.0189246
0.0188086
0.0186985
0.0186015
0.0185212
0.0184608
0.0184209
0.0184009
0.0186591
0.0191289
0.0191262
0.0190446
0.0189247
0.01879
0.0186581
0.0185387
0.0184371
0.0183551
0.0182941
0.0182538
0.0182338
0.019085
0.0191164
0.0190761
0.0189553
0.0188087
0.0186582
0.0185176
0.0183943
0.0182916
0.01821
0.0181496
0.0181098
0.0180901
0.0186442
0.019125
0.0191094
0.01901
0.018862
0.0186985
0.0185387
0.0183943
0.0182703
0.0181682
0.0180878
0.0180285
0.0179895
0.0179702
0.0188713
0.0191126
0.0190808
0.0189458
0.0187763
0.0186015
0.0184371
0.0182916
0.0181682
0.0180674
0.0179884
0.0179302
0.017892
0.0178731
0.0192022
0.0190834
0.0190291
0.0188831
0.0187019
0.0185212
0.0183551
0.01821
0.0180878
0.0179884
0.0179107
0.0178535
0.0178161
0.0177975
0.0192018
0.0190849
0.0189934
0.0188334
0.0186449
0.0184608
0.0182941
0.0181496
0.0180285
0.0179302
0.0178535
0.0177973
0.0177603
0.017742
0.0185271
0.0191494
0.0190837
0.0189681
0.0187988
0.0186068
0.0184209
0.0182538
0.0181098
0.0179895
0.017892
0.0178161
0.0177603
0.0177238
0.0177057
0.0185375
0.0191274
0.0190802
0.0189539
0.0187805
0.0185874
0.0184009
0.0182338
0.0180901
0.0179702
0.0178731
0.0177975
0.017742
0.0177057
0.0176877
0.0178091
0.0178173
0.01787
0.0180186
0.0182351
0.0182786
0.018269
0.0182675
0.0178949
0.0181273
0.0182352
0.0182543
0.0182598
0.0182723
0.0182805
0.0182851
0.0179848
0.0182365
0.0182628
0.018296
0.0183145
0.0183141
0.0183111
0.0183051
0.0183009
0.018269
0.0182585
0.0183025
0.0183159
0.0183163
0.0183088
0.0182935
0.0182776
0.0182639
0.018256
0.0182694
0.0182533
0.0183094
0.0183249
0.0183126
0.0182876
0.0182562
0.0182235
0.0181957
0.0181758
0.0181653
0.0179848
0.0182586
0.0183093
0.0183275
0.0183096
0.0182707
0.0182231
0.0181745
0.01813
0.0180944
0.0180698
0.0180573
0.017895
0.0182366
0.0183025
0.0183249
0.0183097
0.0182646
0.0182045
0.0181408
0.0180809
0.0180293
0.0179892
0.0179619
0.0179481
0.0181273
0.0182629
0.0183159
0.0183126
0.0182707
0.0182045
0.0181291
0.0180548
0.0179881
0.0179324
0.0178897
0.017861
0.0178465
0.01787
0.0182352
0.018296
0.0183163
0.0182876
0.0182231
0.0181408
0.0180548
0.017974
0.0179033
0.0178453
0.0178013
0.0177718
0.0177571
0.0180187
0.0182543
0.0183145
0.0183088
0.0182562
0.0181745
0.0180809
0.0179881
0.0179033
0.0178304
0.0177712
0.0177266
0.0176968
0.0176819
0.0182351
0.0182599
0.0183141
0.0182936
0.0182235
0.01813
0.0180294
0.0179324
0.0178453
0.0177712
0.0177115
0.0176666
0.0176367
0.0176218
0.0182786
0.0182723
0.0183111
0.0182776
0.0181958
0.0180944
0.0179892
0.0178897
0.0178013
0.0177266
0.0176666
0.0176217
0.0175918
0.0175769
0.0178091
0.0182691
0.0182806
0.0183051
0.0182639
0.0181758
0.0180699
0.0179619
0.017861
0.0177718
0.0176968
0.0176367
0.0175918
0.017562
0.0175471
0.0178173
0.0182675
0.0182851
0.0183009
0.018256
0.0181653
0.0180573
0.0179481
0.0178465
0.0177571
0.0176819
0.0176218
0.0175769
0.0175471
0.0175323
0.0172989
0.0173057
0.017318
0.0174109
0.0175361
0.0175865
0.0175916
0.0175977
0.0173401
0.017484
0.017566
0.0175971
0.0176185
0.0176379
0.0176486
0.0176546
0.017395
0.0175664
0.0176079
0.0176521
0.0176861
0.0177069
0.0177208
0.0177266
0.0177285
0.0175669
0.0175937
0.0176519
0.0176906
0.0177198
0.0177398
0.01775
0.0177545
0.0177548
0.0177541
0.0175671
0.0175979
0.0176687
0.0177147
0.0177404
0.0177534
0.0177559
0.0177514
0.0177447
0.0177385
0.0177348
0.017395
0.0175938
0.0176686
0.0177232
0.017751
0.0177585
0.0177528
0.0177392
0.0177224
0.0177069
0.0176952
0.0176889
0.0173401
0.0175664
0.017652
0.0177147
0.0177511
0.01776
0.0177494
0.0177276
0.0177013
0.0176753
0.0176533
0.0176377
0.0176295
0.0174841
0.0176079
0.0176906
0.0177404
0.0177585
0.0177494
0.0177231
0.0176888
0.0176532
0.0176206
0.0175943
0.017576
0.0175666
0.017318
0.017566
0.0176521
0.0177199
0.0177534
0.0177528
0.0177276
0.0176889
0.0176453
0.0176031
0.0175661
0.0175369
0.0175168
0.0175066
0.0174109
0.0175971
0.0176861
0.0177398
0.0177559
0.0177393
0.0177013
0.0176532
0.0176031
0.0175564
0.0175165
0.0174854
0.0174642
0.0174535
0.0175361
0.0176185
0.0177069
0.0177501
0.0177514
0.0177225
0.0176753
0.0176207
0.0175661
0.0175165
0.0174747
0.0174424
0.0174205
0.0174094
0.0175865
0.0176379
0.0177209
0.0177545
0.0177447
0.0177069
0.0176533
0.0175943
0.0175369
0.0174854
0.0174424
0.0174093
0.0173869
0.0173756
0.0172989
0.0175917
0.0176486
0.0177266
0.0177548
0.0177385
0.0176952
0.0176377
0.017576
0.0175168
0.0174642
0.0174205
0.0173869
0.0173643
0.0173529
0.0173057
0.0175978
0.0176546
0.0177285
0.0177541
0.0177349
0.0176889
0.0176296
0.0175666
0.0175066
0.0174535
0.0174094
0.0173756
0.0173529
0.0173415
0.0168655
0.016873
0.0168656
0.0169254
0.0169923
0.0170384
0.0170476
0.0170554
0.0168835
0.0169846
0.0170319
0.0170633
0.0170886
0.0171115
0.0171237
0.0171305
0.0169178
0.0170319
0.0170755
0.0171196
0.0171562
0.0171831
0.0172039
0.0172157
0.0172211
0.0170189
0.0170574
0.0171161
0.0171619
0.0172013
0.0172328
0.0172555
0.017271
0.0172796
0.0172833
0.0170191
0.017065
0.0171345
0.0171897
0.0172319
0.0172642
0.0172861
0.0172992
0.0173066
0.01731
0.0173112
0.0169178
0.0170575
0.0171344
0.0171997
0.0172483
0.0172815
0.0173019
0.017312
0.017315
0.0173144
0.0173127
0.0173114
0.0168835
0.0170319
0.0171161
0.0171897
0.0172483
0.0172872
0.0173084
0.017316
0.0173148
0.0173088
0.0173016
0.0172956
0.0172923
0.0169847
0.0170755
0.0171619
0.0172319
0.0172815
0.0173084
0.0173168
0.0173129
0.0173021
0.0172889
0.0172766
0.0172674
0.0172625
0.0168656
0.0170319
0.0171196
0.0172013
0.0172642
0.0173019
0.017316
0.0173129
0.0172993
0.0172811
0.0172625
0.0172465
0.0172349
0.0172289
0.0169254
0.0170633
0.0171562
0.0172329
0.0172861
0.017312
0.0173148
0.0173021
0.0172811
0.0172574
0.0172349
0.0172162
0.017203
0.0171962
0.0169923
0.0170886
0.0171831
0.0172555
0.0172993
0.017315
0.0173088
0.0172889
0.0172625
0.0172349
0.0172096
0.0171891
0.0171747
0.0171674
0.0170384
0.0171115
0.0172039
0.017271
0.0173066
0.0173145
0.0173017
0.0172767
0.0172465
0.0172162
0.0171891
0.0171673
0.0171522
0.0171445
0.0168655
0.0170476
0.0171237
0.0172157
0.0172796
0.01731
0.0173127
0.0172956
0.0172674
0.0172349
0.017203
0.0171747
0.0171522
0.0171366
0.0171287
0.0168731
0.0170554
0.0171305
0.0172211
0.0172833
0.0173112
0.0173114
0.0172923
0.0172625
0.0172289
0.0171962
0.0171674
0.0171445
0.0171287
0.0171206
0.0164754
0.0164834
0.016472
0.0165114
0.0165433
0.0165818
0.0165916
0.0165993
0.0164853
0.0165625
0.0165839
0.0166116
0.0166352
0.016658
0.0166706
0.0166777
0.0165083
0.0165838
0.0166239
0.0166642
0.0166985
0.0167254
0.0167476
0.0167615
0.0167684
0.0165656
0.0166053
0.0166592
0.0167046
0.0167455
0.0167804
0.0168078
0.0168284
0.0168412
0.0168473
0.0165657
0.016613
0.0166762
0.0167315
0.0167789
0.0168193
0.016851
0.016874
0.0168897
0.0168992
0.0169036
0.0165083
0.0166053
0.0166762
0.0167412
0.0167969
0.0168424
0.0168774
0.016902
0.016918
0.0169278
0.0169332
0.0169355
0.0164853
0.0165838
0.0166592
0.0167315
0.0167969
0.0168502
0.0168897
0.0169163
0.0169324
0.016941
0.016945
0.0169465
0.0169469
0.0165626
0.0166239
0.0167046
0.0167789
0.0168424
0.0168897
0.0169206
0.0169381
0.0169459
0.0169478
0.0169468
0.0169451
0.0169439
0.0164721
0.0165839
0.0166642
0.0167455
0.0168193
0.0168774
0.0169163
0.0169381
0.0169471
0.0169478
0.0169443
0.0169393
0.016935
0.0169326
0.0165114
0.0166116
0.0166985
0.0167804
0.016851
0.016902
0.0169324
0.0169459
0.0169478
0.016943
0.0169352
0.0169273
0.016921
0.0169177
0.0165434
0.0166352
0.0167254
0.0168079
0.016874
0.016918
0.016941
0.0169478
0.0169443
0.0169352
0.0169243
0.0169142
0.0169066
0.0169026
0.0165818
0.016658
0.0167477
0.0168284
0.0168898
0.0169279
0.016945
0.0169468
0.0169393
0.0169273
0.0169142
0.0169026
0.0168941
0.0168896
0.0164753
0.0165916
0.0166706
0.0167616
0.0168412
0.0168992
0.0169332
0.0169465
0.0169451
0.016935
0.016921
0.0169066
0.0168941
0.016885
0.0168802
0.0164834
0.0165994
0.0166777
0.0167684
0.0168473
0.0169036
0.0169355
0.0169469
0.0169439
0.0169326
0.0169177
0.0169026
0.0168896
0.0168802
0.0168753
0.01612
0.0161275
0.0161186
0.016145
0.0161564
0.0161873
0.0161963
0.0162031
0.0161283
0.0161899
0.0161942
0.0162174
0.0162379
0.0162585
0.0162703
0.016277
0.0161449
0.0161941
0.0162292
0.0162645
0.0162951
0.0163197
0.0163407
0.0163545
0.0163616
0.0161753
0.0162118
0.0162593
0.0163011
0.0163396
0.0163738
0.0164017
0.0164236
0.016438
0.0164451
0.0161753
0.0162188
0.0162742
0.0163254
0.0163721
0.0164142
0.0164495
0.016477
0.0164971
0.0165099
0.0165161
0.016145
0.0162118
0.0162742
0.0163342
0.0163897
0.0164392
0.0164808
0.0165133
0.016537
0.0165533
0.0165633
0.0165681
0.0161283
0.0161941
0.0162594
0.0163254
0.0163897
0.0164478
0.0164962
0.0165336
0.0165607
0.0165791
0.0165908
0.0165977
0.0166009
0.0161899
0.0162292
0.0163011
0.0163721
0.0164392
0.0164962
0.0165401
0.0165714
0.0165921
0.016605
0.0166125
0.0166165
0.0166182
0.0161186
0.0161942
0.0162646
0.0163396
0.0164142
0.0164808
0.0165337
0.0165714
0.0165961
0.0166109
0.0166189
0.0166227
0.0166243
0.0166248
0.016145
0.0162174
0.0162951
0.0163738
0.0164495
0.0165133
0.0165607
0.0165922
0.0166109
0.0166206
0.0166246
0.0166255
0.0166251
0.0166247
0.0161565
0.016238
0.0163197
0.0164018
0.016477
0.016537
0.0165791
0.0166051
0.0166189
0.0166246
0.0166255
0.0166242
0.0166224
0.0166212
0.0161873
0.0162585
0.0163407
0.0164237
0.0164971
0.0165534
0.0165909
0.0166126
0.0166227
0.0166255
0.0166242
0.0166213
0.0166185
0.0166168
0.0161199
0.0161964
0.0162703
0.0163546
0.016438
0.0165099
0.0165633
0.0165977
0.0166165
0.0166243
0.0166251
0.0166224
0.0166185
0.016615
0.0166131
0.0161275
0.0162031
0.016277
0.0163617
0.0164452
0.0165161
0.0165681
0.0166009
0.0166182
0.0166248
0.0166247
0.0166212
0.0166168
0.0166131
0.016611
0.0157938
0.0158004
0.0157947
0.015813
0.0158118
0.0158364
0.0158442
0.0158497
0.0158022
0.0158525
0.0158454
0.0158647
0.0158821
0.0158998
0.0159101
0.0159161
0.0158152
0.0158456
0.0158757
0.0159061
0.0159325
0.0159541
0.0159729
0.0159855
0.0159922
0.0158282
0.0158604
0.0159014
0.0159383
0.0159729
0.0160042
0.0160306
0.0160517
0.016066
0.0160732
0.0158282
0.0158665
0.0159142
0.0159597
0.0160028
0.016043
0.0160782
0.0161067
0.0161283
0.0161425
0.0161495
0.0158152
0.0158604
0.0159142
0.0159674
0.0160191
0.0160677
0.0161108
0.0161464
0.0161739
0.0161937
0.0162064
0.0162126
0.0158022
0.0158456
0.0159014
0.0159597
0.0160191
0.0160762
0.0161273
0.0161697
0.0162028
0.0162271
0.0162439
0.0162543
0.0162593
0.0158525
0.0158757
0.0159383
0.0160028
0.0160677
0.0161273
0.0161773
0.0162165
0.0162454
0.0162657
0.0162792
0.0162873
0.0162911
0.0157948
0.0158454
0.0159061
0.0159729
0.0160431
0.0161108
0.0161697
0.0162165
0.0162513
0.0162757
0.016292
0.0163024
0.0163084
0.0163111
0.015813
0.0158647
0.0159326
0.0160042
0.0160782
0.0161464
0.0162028
0.0162455
0.0162757
0.0162959
0.0163088
0.0163165
0.0163208
0.0163227
0.0158118
0.0158821
0.0159541
0.0160306
0.0161067
0.0161739
0.0162271
0.0162657
0.016292
0.0163088
0.0163189
0.0163246
0.0163275
0.0163287
0.0158364
0.0158998
0.0159729
0.0160518
0.0161283
0.0161937
0.0162439
0.0162792
0.0163024
0.0163165
0.0163246
0.0163287
0.0163306
0.0163314
0.0157937
0.0158442
0.0159101
0.0159856
0.016066
0.0161425
0.0162064
0.0162543
0.0162873
0.0163084
0.0163208
0.0163275
0.0163306
0.0163319
0.0163323
0.0158003
0.0158498
0.0159161
0.0159922
0.0160733
0.0161496
0.0162126
0.0162593
0.0162911
0.0163111
0.0163227
0.0163287
0.0163314
0.0163323
0.0163326
0.0154912
0.0154967
0.0154939
0.0155073
0.0154972
0.015517
0.0155233
0.0155279
0.0154998
0.0155417
0.0155267
0.0155427
0.0155572
0.0155721
0.0155807
0.0155859
0.0155106
0.0155273
0.0155528
0.0155786
0.0156012
0.0156196
0.0156357
0.0156468
0.0156527
0.015512
0.0155398
0.0155748
0.0156067
0.0156368
0.0156645
0.0156881
0.0157074
0.0157207
0.0157275
0.015512
0.0155452
0.0155859
0.0156253
0.0156636
0.0157001
0.0157329
0.0157603
0.0157815
0.0157958
0.015803
0.0155106
0.0155398
0.0155858
0.015632
0.0156781
0.0157231
0.0157646
0.0158001
0.0158286
0.0158498
0.0158636
0.0158705
0.0154999
0.0155273
0.0155748
0.0156253
0.0156781
0.0157312
0.0157809
0.0158243
0.0158597
0.0158869
0.0159065
0.015919
0.0159251
0.0155418
0.0155528
0.0156067
0.0156636
0.0157231
0.0157809
0.0158323
0.0158749
0.0159083
0.015933
0.0159503
0.0159611
0.0159663
0.0154939
0.0155267
0.0155787
0.0156369
0.0157001
0.0157646
0.0158243
0.0158749
0.0159152
0.0159456
0.0159674
0.0159823
0.0159914
0.0159958
0.0155073
0.0155427
0.0156012
0.0156645
0.0157329
0.0158002
0.0158597
0.0159083
0.0159456
0.0159729
0.015992
0.0160047
0.0160124
0.016016
0.0154973
0.0155572
0.0156196
0.0156882
0.0157603
0.0158286
0.015887
0.015933
0.0159674
0.015992
0.0160088
0.0160197
0.0160262
0.0160292
0.015517
0.0155721
0.0156358
0.0157075
0.0157816
0.0158498
0.0159065
0.0159503
0.0159823
0.0160047
0.0160197
0.0160293
0.0160349
0.0160375
0.0154911
0.0155234
0.0155808
0.0156468
0.0157207
0.0157958
0.0158636
0.015919
0.0159611
0.0159914
0.0160124
0.0160262
0.0160349
0.01604
0.0160423
0.0154966
0.015528
0.015586
0.0156528
0.0157276
0.015803
0.0158705
0.0159251
0.0159663
0.0159958
0.016016
0.0160292
0.0160375
0.0160423
0.0160444
0.015207
0.0152117
0.0152109
0.0152215
0.0152049
0.0152209
0.0152259
0.0152297
0.0152159
0.0152514
0.0152307
0.015244
0.015256
0.0152683
0.0152752
0.0152796
0.0152252
0.0152318
0.0152534
0.0152751
0.015294
0.0153094
0.0153229
0.0153322
0.0153372
0.0152186
0.0152427
0.0152723
0.0152994
0.0153251
0.0153488
0.0153692
0.015386
0.0153977
0.0154038
0.0152187
0.0152474
0.0152819
0.0153155
0.0153485
0.0153804
0.0154097
0.0154347
0.0154544
0.0154678
0.0154747
0.0152252
0.0152427
0.0152819
0.0153213
0.0153612
0.0154012
0.0154391
0.0154726
0.0155001
0.015521
0.0155349
0.0155418
0.015216
0.0152318
0.0152723
0.0153155
0.0153612
0.0154085
0.0154544
0.015496
0.0155312
0.0155591
0.0155797
0.0155931
0.0155997
0.0152514
0.0152534
0.0152994
0.0153485
0.0154012
0.0154544
0.0155039
0.0155468
0.0155817
0.0156085
0.0156278
0.0156402
0.0156463
0.0152109
0.0152307
0.0152752
0.0153251
0.0153805
0.0154391
0.015496
0.0155468
0.0155891
0.0156225
0.0156476
0.0156652
0.0156764
0.0156818
0.0152216
0.015244
0.0152941
0.0153488
0.0154098
0.0154726
0.0155312
0.0155817
0.0156225
0.0156539
0.015677
0.0156931
0.0157031
0.015708
0.0152049
0.015256
0.0153094
0.0153692
0.0154347
0.0155001
0.0155591
0.0156085
0.0156476
0.015677
0.0156984
0.015713
0.0157221
0.0157265
0.015221
0.0152683
0.015323
0.0153861
0.0154544
0.015521
0.0155797
0.0156278
0.0156652
0.0156931
0.015713
0.0157266
0.0157349
0.0157389
0.015207
0.015226
0.0152753
0.0153322
0.0153978
0.0154679
0.0155349
0.0155931
0.0156402
0.0156764
0.0157031
0.0157221
0.0157349
0.0157428
0.0157465
0.0152116
0.0152298
0.0152797
0.0153373
0.0154039
0.0154747
0.0155419
0.0155998
0.0156463
0.0156819
0.015708
0.0157265
0.0157389
0.0157465
0.0157502
0.0149371
0.0149411
0.0149419
0.0149512
0.0149296
0.0149427
0.0149463
0.0149496
0.0149466
0.0149772
0.0149524
0.0149634
0.0149732
0.0149832
0.0149886
0.0149922
0.014955
0.0149542
0.0149723
0.0149904
0.015006
0.0150184
0.0150294
0.0150368
0.015041
0.0149431
0.0149638
0.0149888
0.0150114
0.0150327
0.0150523
0.0150693
0.0150834
0.0150933
0.0150985
0.0149432
0.014968
0.0149972
0.0150252
0.0150528
0.0150798
0.015105
0.0151267
0.0151442
0.0151562
0.0151624
0.014955
0.0149639
0.0149972
0.0150302
0.0150638
0.0150981
0.0151312
0.0151613
0.0151866
0.0152061
0.0152193
0.015226
0.0149466
0.0149542
0.0149889
0.0150252
0.0150638
0.0151045
0.0151452
0.0151831
0.0152163
0.0152432
0.0152635
0.0152769
0.0152836
0.0149772
0.0149723
0.0150114
0.0150528
0.0150981
0.0151452
0.0151906
0.0152314
0.0152657
0.0152928
0.0153128
0.0153258
0.0153323
0.0149419
0.0149524
0.0149905
0.0150327
0.0150798
0.0151313
0.0151832
0.0152314
0.0152732
0.0153073
0.0153337
0.0153528
0.0153652
0.0153712
0.0149512
0.0149635
0.015006
0.0150524
0.015105
0.0151613
0.0152163
0.0152657
0.0153073
0.0153406
0.0153659
0.0153839
0.0153954
0.0154011
0.0149296
0.0149733
0.0150185
0.0150694
0.0151268
0.0151866
0.0152432
0.0152928
0.0153337
0.0153659
0.01539
0.015407
0.0154178
0.0154231
0.0149428
0.0149833
0.0150294
0.0150835
0.0151442
0.0152061
0.0152635
0.0153128
0.0153528
0.0153839
0.015407
0.0154232
0.0154335
0.0154384
0.0149371
0.0149464
0.0149886
0.0150369
0.0150934
0.0151562
0.0152194
0.015277
0.0153259
0.0153652
0.0153955
0.0154178
0.0154335
0.0154433
0.0154481
0.0149411
0.0149497
0.0149923
0.0150411
0.0150986
0.0151624
0.015226
0.0152837
0.0153323
0.0153712
0.0154011
0.0154231
0.0154384
0.0154481
0.0154528
0.0146781
0.0146818
0.014684
0.0146924
0.0146678
0.0146786
0.0146808
0.0146836
0.0146887
0.0147158
0.0146885
0.0146975
0.0147051
0.0147129
0.0147167
0.0147197
0.0146968
0.0146911
0.0147061
0.0147209
0.0147332
0.0147428
0.0147511
0.0147566
0.0147599
0.0146821
0.0146998
0.0147206
0.0147388
0.0147558
0.0147714
0.0147848
0.014796
0.0148039
0.0148081
0.0146821
0.0147035
0.0147279
0.0147506
0.0147727
0.0147946
0.0148152
0.0148333
0.014848
0.0148582
0.0148636
0.0146969
0.0146998
0.0147279
0.0147548
0.014782
0.0148101
0.014838
0.0148638
0.014886
0.0149034
0.0149154
0.0149215
0.0146888
0.0146911
0.0147206
0.0147506
0.014782
0.0148156
0.0148502
0.0148834
0.0149132
0.0149381
0.0149572
0.01497
0.0149765
0.0147158
0.0147061
0.0147388
0.0147728
0.0148101
0.0148502
0.0148902
0.0149273
0.0149596
0.0149857
0.0150053
0.0150184
0.0150248
0.014684
0.0146885
0.0147209
0.0147558
0.0147946
0.014838
0.0148834
0.0149273
0.0149668
0.015
0.0150264
0.0150459
0.0150587
0.015065
0.0146924
0.0146975
0.0147333
0.0147714
0.0148152
0.0148638
0.0149133
0.0149596
0.0150001
0.0150334
0.0150595
0.0150784
0.0150908
0.0150969
0.0146679
0.0147052
0.0147429
0.0147848
0.0148333
0.014886
0.0149381
0.0149857
0.0150265
0.0150595
0.0150849
0.0151033
0.0151152
0.015121
0.0146787
0.014713
0.0147512
0.014796
0.014848
0.0149035
0.0149572
0.0150054
0.0150459
0.0150785
0.0151033
0.0151211
0.0151326
0.0151382
0.0146782
0.0146809
0.0147168
0.0147567
0.0148039
0.0148583
0.0149155
0.0149701
0.0150184
0.0150587
0.0150908
0.0151152
0.0151326
0.0151438
0.0151493
0.0146819
0.0146838
0.0147198
0.0147601
0.0148082
0.0148637
0.0149216
0.0149765
0.0150249
0.015065
0.0150969
0.015121
0.0151382
0.0151493
0.0151547
0.0144277
0.0144312
0.0144351
0.014443
0.0144178
0.0144262
0.0144266
0.0144293
0.0144401
0.0144649
0.0144365
0.0144435
0.0144489
0.0144543
0.0144565
0.014459
0.0144484
0.01444
0.014452
0.0144636
0.0144728
0.0144792
0.0144847
0.0144883
0.0144907
0.0144339
0.0144482
0.0144648
0.0144787
0.0144911
0.0145025
0.0145121
0.0145202
0.014526
0.0145292
0.0144339
0.0144515
0.0144711
0.0144884
0.0145049
0.0145213
0.0145371
0.0145512
0.0145629
0.0145712
0.0145756
0.0144485
0.0144482
0.0144711
0.0144919
0.0145125
0.0145341
0.0145561
0.0145772
0.0145958
0.0146108
0.0146212
0.0146266
0.0144401
0.0144401
0.0144649
0.0144884
0.0145125
0.0145386
0.0145664
0.0145943
0.0146201
0.0146422
0.0146595
0.0146713
0.0146773
0.014465
0.0144521
0.0144787
0.0145049
0.0145341
0.0145665
0.0146002
0.0146328
0.0146621
0.0146864
0.014705
0.0147175
0.0147238
0.0144352
0.0144365
0.0144636
0.0144912
0.0145214
0.0145562
0.0145943
0.0146329
0.0146688
0.0147001
0.0147255
0.0147447
0.0147574
0.0147637
0.0144431
0.0144436
0.0144728
0.0145026
0.0145372
0.0145773
0.0146201
0.0146621
0.0147001
0.0147324
0.0147582
0.0147774
0.01479
0.0147962
0.0144179
0.014449
0.0144793
0.0145122
0.0145513
0.0145959
0.0146422
0.0146864
0.0147256
0.0147582
0.014784
0.0148029
0.0148153
0.0148215
0.0144263
0.0144544
0.0144848
0.0145203
0.014563
0.0146108
0.0146596
0.014705
0.0147447
0.0147774
0.0148029
0.0148216
0.0148338
0.0148398
0.0144278
0.0144267
0.0144566
0.0144884
0.0145261
0.0145713
0.0146213
0.0146714
0.0147175
0.0147574
0.01479
0.0148153
0.0148338
0.0148458
0.0148517
0.0144314
0.0144295
0.0144592
0.0144909
0.0145294
0.0145757
0.0146267
0.0146774
0.0147238
0.0147637
0.0147963
0.0148215
0.0148398
0.0148517
0.0148575
0.0141831
0.0141869
0.0141933
0.0142015
0.0141785
0.0141837
0.0141818
0.0141849
0.0141986
0.0142228
0.0141949
0.0141998
0.0142023
0.0142048
0.0142052
0.0142074
0.0142078
0.0141996
0.0142083
0.0142162
0.0142219
0.0142248
0.014227
0.0142285
0.0142301
0.0141991
0.014207
0.0142193
0.0142281
0.0142357
0.0142424
0.014248
0.0142527
0.0142563
0.0142585
0.0141991
0.0142098
0.0142242
0.0142356
0.014246
0.0142566
0.0142673
0.0142773
0.0142858
0.014292
0.0142955
0.0142078
0.014207
0.0142242
0.0142383
0.0142516
0.0142664
0.0142824
0.0142986
0.0143134
0.0143257
0.0143345
0.0143391
0.0141987
0.0141997
0.0142193
0.0142357
0.0142516
0.0142699
0.0142908
0.014313
0.0143345
0.0143535
0.0143688
0.0143794
0.0143849
0.0142228
0.0142084
0.0142282
0.014246
0.0142664
0.0142908
0.014318
0.0143457
0.0143715
0.0143936
0.0144108
0.0144226
0.0144286
0.0141933
0.014195
0.0142163
0.0142357
0.0142566
0.0142824
0.014313
0.0143457
0.0143777
0.0144065
0.0144304
0.0144488
0.0144611
0.0144673
0.0142015
0.0141999
0.0142219
0.0142425
0.0142674
0.0142986
0.0143345
0.0143715
0.0144065
0.0144371
0.014462
0.0144809
0.0144935
0.0144997
0.0141786
0.0142024
0.0142248
0.014248
0.0142773
0.0143135
0.0143536
0.0143936
0.0144304
0.014462
0.0144875
0.0145065
0.0145191
0.0145253
0.0141838
0.0142049
0.0142271
0.0142528
0.0142859
0.0143258
0.0143689
0.0144109
0.0144488
0.0144809
0.0145065
0.0145255
0.014538
0.0145442
0.0141833
0.0141819
0.0142054
0.0142286
0.0142564
0.0142921
0.0143346
0.0143795
0.0144226
0.0144612
0.0144935
0.0145191
0.014538
0.0145504
0.0145566
0.0141871
0.014185
0.0142076
0.0142303
0.0142587
0.0142956
0.0143392
0.0143849
0.0144286
0.0144674
0.0144998
0.0145253
0.0145442
0.0145566
0.0145627
0.0139406
0.0139453
0.0139554
0.0139661
0.0139512
0.0139503
0.013945
0.0139492
0.0139614
0.013988
0.0139635
0.0139652
0.0139635
0.0139617
0.0139599
0.0139622
0.0139729
0.0139695
0.0139734
0.0139762
0.0139773
0.0139758
0.013974
0.0139731
0.0139741
0.0139883
0.0139742
0.0139812
0.0139837
0.0139853
0.0139869
0.013988
0.0139893
0.0139906
0.013992
0.0139883
0.013976
0.0139834
0.0139882
0.0139915
0.013996
0.0140016
0.0140074
0.0140129
0.0140173
0.0140199
0.013973
0.0139743
0.0139834
0.0139896
0.0139951
0.0140027
0.0140128
0.0140243
0.0140356
0.0140454
0.0140526
0.0140565
0.0139614
0.0139696
0.0139812
0.0139882
0.0139951
0.0140052
0.0140193
0.0140361
0.0140536
0.0140698
0.0140831
0.0140926
0.0140975
0.013988
0.0139734
0.0139838
0.0139915
0.0140027
0.0140193
0.0140404
0.0140634
0.014086
0.0141058
0.0141217
0.0141327
0.0141383
0.0139555
0.0139636
0.0139762
0.0139854
0.013996
0.0140128
0.0140361
0.0140634
0.0140916
0.0141178
0.0141403
0.0141577
0.0141696
0.0141756
0.0139662
0.0139653
0.0139774
0.0139869
0.0140016
0.0140243
0.0140536
0.014086
0.0141178
0.0141466
0.0141706
0.0141889
0.0142013
0.0142075
0.0139514
0.0139636
0.0139759
0.0139881
0.0140075
0.0140356
0.0140698
0.0141059
0.0141403
0.0141706
0.0141954
0.0142143
0.0142268
0.0142331
0.0139504
0.0139618
0.0139742
0.0139894
0.014013
0.0140455
0.0140832
0.0141218
0.0141577
0.014189
0.0142143
0.0142333
0.0142459
0.0142522
0.0139408
0.0139451
0.0139601
0.0139733
0.0139907
0.0140174
0.0140527
0.0140926
0.0141328
0.0141696
0.0142013
0.0142268
0.0142459
0.0142585
0.0142648
0.0139455
0.0139493
0.0139623
0.0139743
0.0139922
0.01402
0.0140566
0.0140976
0.0141384
0.0141757
0.0142075
0.0142331
0.0142522
0.0142648
0.0142711
0.013693
0.0137002
0.0137145
0.0137345
0.0137428
0.0137243
0.0137135
0.0137208
0.0137219
0.0137607
0.0137424
0.0137383
0.0137296
0.0137208
0.013716
0.0137188
0.0137418
0.0137497
0.0137444
0.013739
0.0137336
0.0137262
0.0137201
0.0137168
0.0137173
0.0138277
0.0137522
0.0137454
0.0137395
0.0137342
0.0137299
0.0137265
0.0137246
0.0137241
0.0137248
0.0138277
0.0137564
0.0137447
0.0137399
0.0137355
0.0137339
0.0137348
0.0137371
0.0137402
0.0137431
0.0137451
0.0137419
0.0137522
0.0137446
0.0137398
0.0137368
0.0137377
0.0137427
0.0137504