/*--------------------------------*- C++ -*----------------------------------*\
| =========                 |                                                 |
| \\      /  F ield         | OpenFOAM: The Open Source CFD Toolbox           |
|  \\    /   O peration     | Version:  2.1.1                                 |
|   \\  /    A nd           | Web:      www.OpenFOAM.org                      |
|    \\/     M anipulation  |                                                 |
\*---------------------------------------------------------------------------*/
FoamFile
{
    version     2.0;
    format      ascii;
    class       volScalarField;
    location    "0.003";
    object      p;
}
// * * * * * * * * * * * * * * * * * * * * * * * * * * * * * * * * * * * * * //

dimensions      [0 2 -2 0 0 0 0];

internalField   nonuniform List<scalar> 
10179
(
0.134858
0.134842
0.134875
0.134959
0.135104
0.135297
0.135565
0.135876
0.136306
0.136758
0.137503
0.138311
0.140688
0.145404
0.160886
0.134842
0.134822
0.134857
0.134935
0.135075
0.135266
0.135529
0.135841
0.136276
0.136752
0.137559
0.13853
0.141075
0.145346
0.159436
0.134875
0.134855
0.134893
0.134967
0.1351
0.135289
0.135554
0.135869
0.13631
0.136825
0.137699
0.138903
0.141642
0.145947
0.15113
0.134958
0.134933
0.134968
0.135048
0.135175
0.135351
0.135606
0.135905
0.136319
0.136812
0.13765
0.139097
0.141778
0.144598
0.128051
0.135104
0.135073
0.135098
0.135169
0.135305
0.135482
0.135726
0.136017
0.13644
0.136989
0.138043
0.140217
0.143761
0.148905
0.120743
0.135296
0.135263
0.135285
0.135345
0.135473
0.135634
0.135879
0.136166
0.136602
0.137236
0.13867
0.141639
0.146423
0.152603
0.135563
0.135526
0.135549
0.135599
0.135718
0.135875
0.136144
0.136485
0.13708
0.138088
0.140432
0.144557
0.152972
0.139514
0.135874
0.135835
0.135862
0.135897
0.13601
0.13616
0.136481
0.136901
0.137689
0.139089
0.142203
0.14779
0.153567
0.136302
0.136269
0.136302
0.136309
0.13643
0.136593
0.137073
0.137686
0.138994
0.141093
0.145547
0.154292
0.133549
0.136753
0.136742
0.136813
0.136798
0.136975
0.137223
0.138075
0.139079
0.141084
0.144264
0.151424
0.159491
0.137496
0.137546
0.137683
0.137633
0.138026
0.138653
0.140414
0.142185
0.145525
0.151446
0.160683
0.138303
0.138514
0.138883
0.139074
0.140195
0.141618
0.144532
0.14776
0.154252
0.159454
0.14068
0.141062
0.141618
0.141743
0.143733
0.146398
0.152945
0.153535
0.133508
0.145399
0.145349
0.145992
0.144522
0.148871
0.152576
0.139488
0.160857
0.159401
0.1511
0.128009
0.120707
0.0880278
0.0880828
0.0882051
0.0883742
0.0886413
0.0889425
0.0894095
0.0898709
0.0906954
0.0913467
0.0929647
0.0936129
0.0975028
0.0953273
0.132692
0.0880831
0.0881392
0.0882651
0.0884331
0.0887012
0.0890061
0.0894736
0.089943
0.0907607
0.0914271
0.0929952
0.0936275
0.0973331
0.0948026
0.130061
0.0882048
0.0882632
0.0883976
0.0885704
0.0888487
0.0891698
0.089665
0.0901793
0.0910562
0.0918523
0.0935184
0.0943805
0.0980126
0.0955817
0.122128
0.0883741
0.0884323
0.0885718
0.0887544
0.0890399
0.0893632
0.0898592
0.0903858
0.0912267
0.0920682
0.0934141
0.0945972
0.0961607
0.0968095
0.120163
0.0886411
0.0886997
0.0888465
0.0890339
0.0893558
0.0897099
0.0902653
0.0908742
0.0918832
0.0929786
0.0947935
0.0967595
0.0989289
0.128634
0.107234
0.0889422
0.0890038
0.0891669
0.0893588
0.0897052
0.0900567
0.0906413
0.0912456
0.0922299
0.0932373
0.0949008
0.096271
0.0986207
0.125403
0.0894093
0.0894707
0.0896618
0.0898546
0.0902612
0.0906397
0.0913516
0.0920494
0.0933194
0.0946877
0.0972092
0.0991934
0.137765
0.115684
0.0898709
0.089939
0.0901753
0.0903801
0.0908687
0.0912413
0.0920454
0.0926618
0.0938279
0.0950487
0.096635
0.0991056
0.129857
0.0906953
0.0907557
0.0910513
0.0912197
0.0918765
0.0922244
0.0933136
0.0938291
0.0957168
0.0968142
0.0998586
0.135895
0.117758
0.0913476
0.0914193
0.0918457
0.0920577
0.0929678
0.0932264
0.0946753
0.0950411
0.0968029
0.0971191
0.0972229
0.132794
0.092965
0.0929856
0.0935089
0.0934008
0.0947802
0.0948886
0.0971939
0.0966323
0.0998429
0.0972898
0.141822
0.0936171
0.0936116
0.0943694
0.0945769
0.096741
0.0962508
0.0991695
0.0990806
0.135859
0.132753
0.0975012
0.0973183
0.0979915
0.0961355
0.0989077
0.0985996
0.137742
0.129831
0.117722
0.0953416
0.09477
0.0955666
0.0967762
0.12861
0.125379
0.115661
0.132663
0.130032
0.122099
0.120132
0.107205
0.105355
0.105404
0.105509
0.105653
0.10587
0.106106
0.10645
0.106746
0.107241
0.107451
0.108109
0.107582
0.10816
0.104821
0.119194
0.105404
0.105452
0.105559
0.105701
0.105919
0.106155
0.106497
0.106797
0.107281
0.107509
0.108113
0.107652
0.107999
0.104734
0.119079
0.105509
0.105558
0.105667
0.105812
0.106034
0.106276
0.106628
0.10695
0.107455
0.107746
0.10838
0.108132
0.108526
0.105872
0.1168
0.105653
0.105701
0.105812
0.105957
0.10618
0.10642
0.106762
0.107082
0.107536
0.107842
0.108232
0.108098
0.107594
0.104776
0.119629
0.10587
0.105918
0.106032
0.106178
0.10641
0.106655
0.10701
0.107342
0.107814
0.108107
0.108466
0.108084
0.106683
0.124605
0.111562
0.106106
0.106153
0.106274
0.106417
0.106653
0.106887
0.107232
0.107545
0.107952
0.108181
0.108292
0.107715
0.104478
0.117889
0.106449
0.106494
0.106625
0.106758
0.107006
0.10723
0.107587
0.107884
0.10828
0.108413
0.108386
0.106473
0.128116
0.112236
0.106746
0.106793
0.106946
0.107076
0.107336
0.10754
0.107881
0.108157
0.108438
0.108526
0.108242
0.105289
0.120529
0.107241
0.107276
0.107449
0.107529
0.107807
0.107946
0.108274
0.108438
0.108556
0.108563
0.106843
0.129023
0.1158
0.107451
0.107501
0.107739
0.107832
0.108096
0.108171
0.108402
0.10852
0.108561
0.108515
0.106406
0.124203
0.108108
0.108104
0.10837
0.108219
0.108453
0.108279
0.108372
0.108233
0.10684
0.106418
0.134207
0.107584
0.107638
0.10812
0.10808
0.108068
0.107697
0.106453
0.105271
0.129014
0.124204
0.108156
0.107984
0.108509
0.107575
0.106665
0.104459
0.128099
0.120511
0.115776
0.104827
0.10471
0.105857
0.104751
0.124587
0.117869
0.112217
0.119175
0.119062
0.116779
0.119605
0.111539
0.104475
0.10452
0.104617
0.104747
0.104946
0.105157
0.105469
0.105735
0.106173
0.106396
0.106927
0.106763
0.107019
0.105959
0.116821
0.10452
0.104564
0.104661
0.104791
0.104991
0.105201
0.105511
0.10578
0.106207
0.106439
0.10693
0.106769
0.106943
0.105792
0.117095
0.104617
0.104661
0.10476
0.104892
0.105095
0.105311
0.105629
0.105914
0.106358
0.106621
0.107133
0.107001
0.107219
0.106078
0.115223
0.104747
0.104791
0.104892
0.105022
0.105225
0.105439
0.105749
0.106034
0.106439
0.106718
0.107065
0.107029
0.106716
0.106014
0.11785
0.104946
0.10499
0.105094
0.105224
0.105435
0.105653
0.105975
0.10627
0.106696
0.106959
0.107329
0.106986
0.10688
0.122278
0.111384
0.105157
0.1052
0.105309
0.105437
0.105651
0.105862
0.106174
0.106454
0.106832
0.107067
0.107264
0.106974
0.106194
0.115358
0.105468
0.105508
0.105627
0.105746
0.105973
0.106173
0.106495
0.106766
0.10712
0.107312
0.107267
0.106927
0.125007
0.11079
0.105734
0.105776
0.10591
0.106029
0.106265
0.106451
0.106763
0.106988
0.107274
0.107361
0.10731
0.106727
0.117157
0.106173
0.106203
0.106354
0.106433
0.10669
0.106827
0.107116
0.107278
0.107489
0.107381
0.107123
0.125089
0.113359
0.106396
0.106433
0.106615
0.106709
0.10695
0.107058
0.107302
0.107357
0.107375
0.107042
0.107195
0.120547
0.106926
0.106922
0.107125
0.107055
0.107318
0.107252
0.107254
0.1073
0.107115
0.107222
0.129885
0.106765
0.106756
0.106992
0.107014
0.106972
0.106958
0.106909
0.106707
0.125087
0.120566
0.107016
0.106931
0.107206
0.106701
0.106867
0.106176
0.124991
0.117142
0.113342
0.105969
0.105765
0.106067
0.105995
0.122265
0.115342
0.110773
0.116813
0.117085
0.115211
0.117832
0.111367
0.103901
0.103938
0.104019
0.104125
0.104285
0.104446
0.104676
0.104845
0.105101
0.10515
0.105303
0.104987
0.10487
0.104155
0.115091
0.103938
0.103974
0.104055
0.104161
0.10432
0.10448
0.104705
0.104874
0.105117
0.105166
0.105282
0.104974
0.104801
0.104095
0.11538
0.104019
0.104055
0.104137
0.104242
0.104402
0.104562
0.104789
0.10496
0.105204
0.105253
0.105372
0.105049
0.104918
0.104152
0.113641
0.104124
0.10416
0.104242
0.104344
0.1045
0.104654
0.104867
0.105028
0.105228
0.105273
0.105265
0.105011
0.104524
0.104241
0.11638
0.104285
0.104319
0.104402
0.104499
0.104656
0.104803
0.105011
0.105158
0.105348
0.105338
0.105341
0.104874
0.10462
0.120655
0.110287
0.104446
0.104479
0.104561
0.104653
0.104802
0.104934
0.105119
0.105236
0.105368
0.105318
0.105222
0.104738
0.104439
0.113719
0.104676
0.104703
0.104788
0.104864
0.105009
0.105118
0.105278
0.105366
0.105435
0.105362
0.105082
0.10469
0.122723
0.109533
0.104845
0.104871
0.104957
0.105024
0.105155
0.105234
0.105364
0.105395
0.105414
0.105273
0.104983
0.104774
0.115257
0.105101
0.105113
0.105201
0.105223
0.105343
0.105365
0.105432
0.105415
0.105394
0.10519
0.10487
0.122957
0.111572
0.10515
0.105161
0.105248
0.105265
0.105331
0.105311
0.105355
0.105269
0.105185
0.10476
0.105084
0.118504
0.105303
0.105276
0.105365
0.105256
0.105332
0.105212
0.105072
0.104974
0.104858
0.104951
0.127163
0.104987
0.104965
0.105042
0.104999
0.104863
0.104725
0.104674
0.104747
0.122889
0.118526
0.104868
0.104792
0.104909
0.104512
0.104609
0.104425
0.122711
0.115243
0.111558
0.104156
0.104082
0.104143
0.104226
0.120645
0.113706
0.109519
0.115088
0.115375
0.113633
0.116367
0.110275
0.103375
0.103402
0.103462
0.103539
0.103653
0.10376
0.103904
0.103988
0.104095
0.104038
0.103999
0.103728
0.10348
0.10309
0.11389
0.103401
0.103428
0.103488
0.103564
0.103677
0.103783
0.103922
0.104003
0.104098
0.104038
0.103976
0.103716
0.103428
0.103068
0.114204
0.103462
0.103488
0.103549
0.103623
0.103734
0.103837
0.103973
0.104048
0.104139
0.104063
0.104016
0.103725
0.103513
0.103063
0.112468
0.103539
0.103564
0.103623
0.103693
0.103798
0.103893
0.104013
0.104076
0.104129
0.104054
0.103931
0.103704
0.103257
0.103161
0.11522
0.103653
0.103676
0.103734
0.103798
0.103897
0.10398
0.104085
0.104127
0.104159
0.104045
0.103935
0.103551
0.103313
0.119466
0.109237
0.10376
0.103782
0.103836
0.103892
0.10398
0.104044
0.104125
0.104136
0.104132
0.104
0.103863
0.103451
0.103279
0.112619
0.103904
0.10392
0.103971
0.104011
0.104084
0.104125
0.10417
0.104156
0.1041
0.103972
0.103682
0.103386
0.121245
0.108421
0.103988
0.104
0.104045
0.104073
0.104124
0.104134
0.104155
0.104109
0.104038
0.103877
0.103615
0.103484
0.113975
0.104095
0.104095
0.104135
0.104125
0.104155
0.104129
0.104097
0.104039
0.10393
0.103776
0.103459
0.121502
0.11026
0.104037
0.104033
0.104059
0.104048
0.104039
0.103995
0.103968
0.103877
0.103783
0.103401
0.103562
0.117058
0.103998
0.10397
0.10401
0.103924
0.103928
0.103856
0.103675
0.103609
0.103472
0.103812
0.125468
0.103728
0.103709
0.103719
0.103695
0.103543
0.103442
0.103376
0.103475
0.121518
0.117129
0.103479
0.103421
0.103506
0.103248
0.103305
0.103269
0.121237
0.113968
0.110257
0.103089
0.10306
0.103056
0.103151
0.119459
0.11261
0.108412
0.113887
0.114201
0.112463
0.115211
0.109228
0.102593
0.102611
0.102651
0.1027
0.102768
0.102822
0.102885
0.102895
0.102884
0.102783
0.102656
0.102475
0.102213
0.102117
0.112846
0.102611
0.102629
0.102668
0.102715
0.102781
0.102834
0.102892
0.102898
0.102877
0.102778
0.102636
0.102468
0.102181
0.102112
0.113175
0.102651
0.102668
0.102706
0.10275
0.102813
0.10286
0.102912
0.102909
0.102885
0.102773
0.102652
0.102445
0.102255
0.10206
0.111392
0.1027
0.102715
0.10275
0.102789
0.102845
0.102883
0.102921
0.102906
0.102861
0.102754
0.102592
0.102448
0.1021
0.102205
0.114149
0.102767
0.102781
0.102813
0.102844
0.102891
0.102915
0.102937
0.102903
0.102849
0.102714
0.102579
0.102311
0.102197
0.118373
0.108243
0.102822
0.102833
0.102859
0.102882
0.102915
0.102923
0.102925
0.102873
0.10281
0.102667
0.10255
0.102268
0.102246
0.111558
0.102885
0.10289
0.102911
0.102919
0.102936
0.102925
0.102899
0.102844
0.102741
0.102629
0.102383
0.102264
0.120045
0.107382
0.102895
0.102896
0.102907
0.102903
0.1029
0.102872
0.102843
0.102771
0.102684
0.102552
0.10238
0.102381
0.112816
0.102883
0.102874
0.102883
0.102858
0.102846
0.102808
0.102739
0.102684
0.102575
0.102494
0.102287
0.120282
0.109128
0.102783
0.102775
0.10277
0.10275
0.10271
0.102663
0.102627
0.102551
0.102489
0.10218
0.102662
0.115863
0.102655
0.102632
0.102648
0.102587
0.102574
0.102545
0.10238
0.10238
0.102279
0.102443
0.124131
0.102474
0.102463
0.10244
0.102442
0.102305
0.102262
0.102259
0.102377
0.120299
0.115872
0.102212
0.102175
0.102249
0.102094
0.102191
0.10224
0.120041
0.112814
0.10913
0.102115
0.102106
0.102054
0.102199
0.11837
0.111552
0.107376
0.112843
0.113173
0.111387
0.114143
0.108238
0.101725
0.101735
0.101757
0.101782
0.101811
0.101824
0.101826
0.101785
0.101711
0.101609
0.101447
0.101337
0.101072
0.101112
0.111832
0.101735
0.101744
0.101766
0.101789
0.101815
0.101827
0.101823
0.10178
0.101701
0.101602
0.101432
0.101335
0.101051
0.101123
0.112165
0.101757
0.101766
0.101785
0.101804
0.101827
0.101833
0.101824
0.101771
0.101695
0.101582
0.101439
0.101295
0.101114
0.101041
0.110347
0.101782
0.101788
0.101804
0.101818
0.101834
0.101831
0.10181
0.101753
0.101668
0.101563
0.101396
0.10131
0.101
0.101209
0.113111
0.101811
0.101815
0.101827
0.101834
0.10184
0.101824
0.10179
0.101725
0.101636
0.101511
0.101376
0.10118
0.101108
0.117315
0.10726
0.101824
0.101826
0.101832
0.10183
0.101823
0.101795
0.101755
0.101681
0.101597
0.101466
0.101366
0.101146
0.101209
0.110515
0.101825
0.101822
0.101823
0.101808
0.101789
0.101755
0.101697
0.101631
0.101516
0.10143
0.10121
0.101175
0.118926
0.106369
0.101785
0.101778
0.101769
0.101751
0.101723
0.10168
0.10163
0.101555
0.101468
0.101358
0.10122
0.101296
0.111713
0.10171
0.101699
0.101693
0.101665
0.101634
0.101596
0.101515
0.101468
0.101369
0.101316
0.10115
0.119146
0.108063
0.101608
0.101599
0.10158
0.101559
0.101508
0.101463
0.101428
0.10136
0.101323
0.101039
0.101347
0.114707
0.101446
0.101429
0.101436
0.101392
0.101372
0.101363
0.101207
0.101221
0.101171
0.101535
0.122924
0.101335
0.101331
0.101291
0.101305
0.101176
0.101142
0.101171
0.101295
0.119169
0.114752
0.10107
0.101046
0.101108
0.100996
0.101104
0.101204
0.118924
0.111714
0.108067
0.10111
0.101116
0.101029
0.101211
0.117316
0.110512
0.106366
0.111829
0.112165
0.110342
0.113108
0.107259
0.100767
0.10077
0.100776
0.10078
0.100778
0.10076
0.100716
0.100655
0.100557
0.100474
0.100312
0.100261
0.10001
0.100116
0.110831
0.10077
0.100773
0.100778
0.10078
0.100776
0.100756
0.100709
0.100648
0.100549
0.100469
0.100303
0.100263
0.0999949
0.100136
0.111164
0.100776
0.100778
0.100781
0.10078
0.100772
0.100746
0.100697
0.100631
0.100537
0.100444
0.100306
0.100216
0.100052
0.100035
0.109327
0.10078
0.100779
0.10078
0.100774
0.10076
0.100727
0.100674
0.100608
0.100513
0.100429
0.100277
0.100241
0.0999602
0.10022
0.11209
0.100778
0.100775
0.100772
0.10076
0.100737
0.100698
0.10064
0.100571
0.100477
0.100377
0.100257
0.100119
0.100064
0.116277
0.106274
0.10076
0.100755
0.100746
0.100726
0.100698
0.100655
0.1006
0.100527
0.100446
0.10034
0.100264
0.100088
0.100188
0.10949
0.100716
0.100708
0.100696
0.100673
0.10064
0.1006
0.100533
0.100475
0.100367
0.100311
0.100118
0.100129
0.117849
0.105365
0.100654
0.100646
0.10063
0.100607
0.10057
0.100527
0.100474
0.100409
0.100334
0.100251
0.100136
0.100247
0.110651
0.100557
0.100547
0.100536
0.100511
0.100475
0.100445
0.100366
0.100334
0.100248
0.10023
0.100097
0.118064
0.107025
0.100473
0.100467
0.100442
0.100427
0.100375
0.100338
0.10031
0.100251
0.100227
0.0999654
0.100426
0.113632
0.100311
0.1003
0.100304
0.100274
0.100255
0.100262
0.100117
0.100136
0.100086
0.100301
0.121765
0.100259
0.10026
0.100214
0.100238
0.100117
0.100085
0.100127
0.100245
0.118081
0.113653
0.100008
0.0999916
0.100048
0.099957
0.100061
0.100185
0.117849
0.110652
0.10703
0.100114
0.100132
0.100032
0.100216
0.116278
0.109489
0.105363
0.110827
0.111165
0.109325
0.112088
0.106273
0.0997221
0.09972
0.0997143
0.0997029
0.0996779
0.0996387
0.0995764
0.099517
0.0994195
0.0993622
0.0992156
0.0992099
0.0989811
0.099129
0.109834
0.0997198
0.0997177
0.0997107
0.0996978
0.0996712
0.0996306
0.0995687
0.0995101
0.099413
0.099359
0.0992093
0.0992158
0.0989699
0.0991534
0.110168
0.0997141
0.0997107
0.0997017
0.0996866
0.0996569
0.0996143
0.0995521
0.0994911
0.0994006
0.0993336
0.0992123
0.0991661
0.0990237
0.099047
0.108322
0.0997026
0.0996975
0.0996866
0.099667
0.0996331
0.0995895
0.0995294
0.0994704
0.0993824
0.0993252
0.0991939
0.0991999
0.0989473
0.0992343
0.111084
0.0996775
0.0996708
0.0996567
0.0996333
0.0995966
0.0995539
0.0994926
0.0994332
0.0993483
0.0992763
0.0991786
0.0990836
0.0990491
0.115255
0.10529
0.0996383
0.0996299
0.0996138
0.099589
0.0995536
0.0995115
0.099457
0.0993968
0.0993283
0.0992491
0.099197
0.0990595
0.0991831
0.108479
0.0995759
0.0995678
0.0995515
0.0995288
0.0994921
0.099457
0.0993935
0.0993502
0.0992578
0.0992282
0.0990619
0.0991024
0.116802
0.104369
0.0995163
0.0995089
0.0994901
0.0994694
0.0994324
0.0993964
0.0993499
0.0993001
0.0992399
0.0991813
0.0990897
0.0992257
0.109615
0.0994187
0.0994116
0.0993994
0.0993811
0.0993472
0.0993276
0.0992574
0.0992402
0.0991692
0.0991723
0.0990515
0.117008
0.106007
0.0993612
0.0993573
0.0993321
0.0993235
0.0992748
0.099248
0.0992275
0.0991817
0.0991745
0.0989339
0.0992949
0.112575
0.0992143
0.0992075
0.0992105
0.099192
0.0991769
0.0991955
0.0990609
0.0990894
0.0990575
0.0993709
0.120678
0.0992084
0.0992136
0.0991642
0.0991976
0.0990816
0.0990577
0.099101
0.099225
0.117026
0.112603
0.0989795
0.0989676
0.0990215
0.098945
0.0990471
0.0991811
0.116803
0.109617
0.106012
0.0991273
0.099151
0.0990447
0.0992318
0.115255
0.108478
0.104368
0.109831
0.110169
0.108321
0.111082
0.105289
0.0986165
0.0986091
0.098594
0.098572
0.0985324
0.0984896
0.0984287
0.0983824
0.098299
0.0982699
0.0981469
0.0981784
0.0979736
0.0981513
0.108841
0.0986088
0.0986017
0.0985865
0.0985637
0.0985234
0.0984813
0.098421
0.0983766
0.0982946
0.0982684
0.098144
0.0981864
0.0979668
0.0981772
0.109175
0.0985938
0.0985865
0.0985706
0.0985458
0.0985054
0.0984637
0.0984059
0.0983594
0.0982847
0.0982455
0.0981484
0.0981363
0.0980187
0.0980715
0.107326
0.0985717
0.0985635
0.0985462
0.0985202
0.0984812
0.0984417
0.0983874
0.0983445
0.0982737
0.0982439
0.0981387
0.0981713
0.0979538
0.0982568
0.110088
0.098532
0.0985231
0.0985053
0.0984811
0.0984446
0.0984078
0.0983552
0.0983126
0.0982456
0.0982008
0.0981305
0.0980722
0.0980529
0.114244
0.104312
0.098489
0.0984806
0.0984633
0.0984413
0.0984076
0.0983743
0.0983294
0.0982872
0.0982367
0.098185
0.0981567
0.0980533
0.0981931
0.107478
0.0984281
0.0984203
0.0984054
0.098387
0.0983549
0.0983294
0.0982775
0.0982511
0.0981786
0.0981711
0.0980334
0.0980985
0.115776
0.103381
0.0983817
0.0983757
0.0983586
0.0983437
0.0983121
0.098287
0.0982509
0.0982189
0.0981747
0.0981403
0.0980657
0.0982122
0.108594
0.0982982
0.0982936
0.0982838
0.0982729
0.0982449
0.0982363
0.0981783
0.0981749
0.0981212
0.0981408
0.098042
0.115964
0.104999
0.0982688
0.0982671
0.0982444
0.0982429
0.0982
0.0981844
0.0981708
0.0981402
0.0981396
0.0979256
0.0983418
0.111542
0.0981456
0.0981426
0.0981472
0.0981376
0.0981294
0.0981559
0.098033
0.0980654
0.0980376
0.0982879
0.119603
0.098177
0.0981848
0.098135
0.0981701
0.0980707
0.0980522
0.0980977
0.0982119
0.115982
0.111566
0.097972
0.0979652
0.0980172
0.0979524
0.0980516
0.0981918
0.115778
0.108597
0.105005
0.0981498
0.0981755
0.0980699
0.0982551
0.114245
0.107477
0.103381
0.108838
0.109177
0.107327
0.110087
0.104312
0.097458
0.0974481
0.0974282
0.0973997
0.0973594
0.0973238
0.0972744
0.0972475
0.0971869
0.0971867
0.0970956
0.0971609
0.096983
0.0971862
0.107852
0.0974478
0.0974395
0.0974192
0.0973909
0.0973523
0.0973178
0.0972697
0.0972443
0.0971856
0.0971877
0.0970973
0.0971707
0.0969824
0.0972115
0.108186
0.097428
0.0974195
0.0974001
0.0973724
0.0973363
0.0973029
0.0972586
0.0972318
0.0971803
0.097171
0.0971065
0.0971294
0.0970359
0.0971143
0.106341
0.0973993
0.0973907
0.0973726
0.0973489
0.0973159
0.097287
0.0972471
0.0972243
0.0971778
0.0971765
0.0971069
0.0971742
0.0969858
0.0972921
0.109103
0.097359
0.0973519
0.0973361
0.0973158
0.0972862
0.0972614
0.0972239
0.0972011
0.0971587
0.0971407
0.0971003
0.0970602
0.0970742
0.113244
0.103343
0.0973232
0.0973172
0.0973025
0.0972867
0.0972612
0.0972403
0.0972106
0.0971895
0.0971615
0.0971375
0.0971339
0.097056
0.0972134
0.106485
0.0972738
0.0972691
0.0972581
0.0972468
0.0972237
0.0972107
0.0971754
0.097167
0.0971189
0.0971308
0.0970242
0.0970971
0.114761
0.102402
0.0972468
0.0972436
0.0972312
0.0972239
0.0972009
0.0971895
0.097167
0.0971553
0.0971291
0.0971201
0.0970618
0.09722
0.107586
0.097186
0.0971848
0.0971797
0.0971773
0.0971583
0.0971614
0.0971189
0.0971294
0.0970965
0.0971251
0.0970445
0.114926
0.104003
0.0971857
0.0971868
0.0971703
0.0971759
0.0971403
0.0971374
0.0971309
0.0971208
0.0971269
0.0969465
0.0973
0.110515
0.0970943
0.0970964
0.0971057
0.0971063
0.0970998
0.0971337
0.0970242
0.0970626
0.0970497
0.0973489
0.118552
0.0971596
0.0971696
0.0971285
0.0971735
0.0970597
0.0970556
0.0970969
0.0972205
0.114946
0.110548
0.0969815
0.0969814
0.0970349
0.096985
0.0970736
0.097213
0.114764
0.10759
0.104009
0.0971849
0.0972103
0.0971132
0.0972912
0.113246
0.106486
0.102403
0.107849
0.108189
0.106342
0.109102
0.103343
0.0962604
0.0962495
0.0962267
0.0962011
0.0961694
0.0961456
0.096114
0.0961084
0.096076
0.096106
0.096054
0.0961536
0.096006
0.0962398
0.106864
0.0962492
0.0962396
0.096218
0.096194
0.0961641
0.0961419
0.0961125
0.096108
0.0960783
0.0961098
0.0960608
0.0961642
0.0960144
0.0962626
0.107199
0.0962264
0.0962183
0.0961994
0.096179
0.0961521
0.0961333
0.0961069
0.0961026
0.09608
0.0961027
0.0960771
0.0961379
0.0960737
0.0961849
0.105367
0.0962008
0.0961939
0.0961791
0.0961623
0.0961399
0.0961249
0.0961044
0.0961034
0.0960869
0.0961148
0.096089
0.096181
0.0960429
0.0963505
0.108131
0.0961689
0.0961639
0.0961519
0.0961399
0.0961211
0.0961107
0.0960926
0.096092
0.0960787
0.0960889
0.0960862
0.0960706
0.096116
0.112257
0.10239
0.096145
0.0961414
0.096133
0.0961247
0.0961107
0.0961046
0.0960938
0.0960957
0.0960942
0.0961
0.0961262
0.0960733
0.0962557
0.105503
0.0961133
0.0961121
0.0961065
0.0961043
0.0960925
0.0960939
0.0960786
0.0960897
0.0960709
0.0961018
0.0960319
0.0961057
0.11376
0.101436
0.0961076
0.0961075
0.0961022
0.0961032
0.096092
0.0960959
0.0960897
0.0961011
0.0960972
0.0961166
0.0960776
0.0962436
0.10659
0.096075
0.0960779
0.0960796
0.0960868
0.0960787
0.0960944
0.0960711
0.0960976
0.0960895
0.0961301
0.096078
0.113887
0.103018
0.0961049
0.0961093
0.0961023
0.0961148
0.0960891
0.0961004
0.0961022
0.0961172
0.0961301
0.0959958
0.0963642
0.1095
0.0960528
0.0960603
0.0960767
0.096089
0.0960863
0.0961267
0.0960325
0.0960782
0.0960764
0.0963393
0.117488
0.0961523
0.0961637
0.0961376
0.0961808
0.0960708
0.0960738
0.0961063
0.0962444
0.113905
0.109526
0.0960046
0.0960139
0.0960733
0.0960428
0.096116
0.0962561
0.113763
0.106594
0.103024
0.0962385
0.096262
0.0961844
0.0963503
0.112259
0.105504
0.101437
0.106861
0.107203
0.105369
0.108131
0.10239
0.0950337
0.0950221
0.0950034
0.0949855
0.0949654
0.0949559
0.0949447
0.0949613
0.0949602
0.0950212
0.0950141
0.0951533
0.0950416
0.0953209
0.105878
0.0950219
0.0950127
0.0949964
0.0949805
0.0949628
0.0949547
0.0949458
0.0949639
0.0949663
0.095028
0.0950259
0.0951653
0.0950584
0.0953424
0.106212
0.0950032
0.0949965
0.0949837
0.0949713
0.0949568
0.0949524
0.0949476
0.0949667
0.0949769
0.0950338
0.0950547
0.0951642
0.095137
0.0953008
0.104407
0.0949851
0.0949803
0.0949712
0.0949626
0.0949534
0.094953
0.094954
0.0949765
0.0949936
0.0950527
0.095082
0.0951993
0.0951356
0.0954513
0.107177
0.0949649
0.0949625
0.0949566
0.0949533
0.094947
0.0949518
0.0949557
0.0949785
0.094998
0.0950397
0.0950839
0.0950966
0.095187
0.111283
0.101462
0.0949552
0.0949544
0.0949521
0.094953
0.0949518
0.0949618
0.0949724
0.0949986
0.0950285
0.095067
0.0951311
0.0951041
0.0953284
0.104532
0.0949439
0.0949456
0.0949473
0.0949541
0.0949558
0.0949725
0.0949796
0.0950122
0.0950278
0.0950805
0.0950559
0.0951269
0.112773
0.100488
0.0949605
0.0949636
0.0949666
0.0949766
0.0949788
0.094999
0.0950124
0.0950499
0.0950745
0.0951263
0.0951147
0.0952833
0.105605
0.0949591
0.0949661
0.0949767
0.0949938
0.0949982
0.095029
0.0950284
0.095075
0.0950973
0.0951545
0.095138
0.112828
0.102044
0.0950201
0.0950278
0.0950338
0.0950532
0.0950404
0.0950678
0.0950813
0.0951272
0.0951549
0.0950866
0.0954332
0.108478
0.0950128
0.0950259
0.0950547
0.0950826
0.0950846
0.0951324
0.0950572
0.0951159
0.0951366
0.0954093
0.116395
0.095152
0.0951654
0.0951643
0.0951999
0.0950974
0.0951052
0.0951281
0.095285
0.112846
0.108497
0.0950403
0.0950584
0.0951372
0.0951363
0.0951878
0.0953296
0.112777
0.105609
0.102051
0.0953196
0.0953425
0.0953009
0.0954519
0.111286
0.104534
0.10049
0.105875
0.106216
0.10441
0.107178
0.101463
0.093784
0.0937771
0.0937657
0.0937566
0.0937494
0.0937526
0.0937617
0.0938011
0.0938298
0.0939231
0.0939645
0.0941602
0.0940823
0.0944441
0.10489
0.0937769
0.0937714
0.0937618
0.0937549
0.0937497
0.0937545
0.0937659
0.0938063
0.0938392
0.0939325
0.0939805
0.0941762
0.0941109
0.0944701
0.105216
0.0937655
0.0937618
0.0937562
0.0937518
0.0937507
0.0937586
0.0937761
0.0938181
0.0938612
0.0939555
0.0940317
0.0942085
0.0942329
0.0944956
0.103462
0.0937562
0.0937547
0.0937517
0.0937519
0.0937553
0.0937681
0.0937915
0.0938367
0.0938876
0.0939826
0.0940808
0.0942351
0.0942784
0.0946346
0.106247
0.0937488
0.0937494
0.0937504
0.0937552
0.0937607
0.0937804
0.0938075
0.0938529
0.0939069
0.0939846
0.094089
0.0941371
0.0943029
0.110329
0.100579
0.0937519
0.0937543
0.0937584
0.0937682
0.0937805
0.0938068
0.0938397
0.0938908
0.0939569
0.0940306
0.0941476
0.0941474
0.09445
0.103577
0.0937609
0.0937657
0.0937759
0.0937916
0.0938077
0.0938399
0.0938708
0.0939275
0.0939821
0.0940626
0.0940957
0.0941658
0.11181
0.0995732
0.0938002
0.0938062
0.0938181
0.093837
0.0938533
0.0938913
0.0939278
0.0939948
0.0940549
0.0941469
0.0941768
0.0943408
0.104635
0.0938285
0.0938392
0.0938611
0.0938879
0.0939074
0.0939574
0.0939829
0.0940556
0.0941161
0.0942006
0.0942331
0.111719
0.101083
0.093922
0.0939327
0.093956
0.0939837
0.0939861
0.0940319
0.0940638
0.0941487
0.0942036
0.0942369
0.0945423
0.107412
0.0939633
0.0939808
0.0940321
0.0940819
0.0940904
0.0941499
0.0940981
0.0941805
0.0942431
0.0946064
0.11521
0.0941591
0.094177
0.0942092
0.0942364
0.0941386
0.0941492
0.0941681
0.0943438
0.111741
0.107454
0.0940809
0.0941116
0.0942337
0.0942798
0.0943045
0.0944522
0.111815
0.104641
0.101092
0.0944427
0.0944713
0.0944964
0.0946361
0.110333
0.10358
0.099576
0.104887
0.105221
0.103465
0.106249
0.100581
0.092526
0.0925229
0.0925176
0.0925171
0.0925211
0.092533
0.092562
0.0926263
0.0926773
0.0928275
0.0928748
0.0931828
0.0930898
0.0936339
0.103879
0.0925226
0.0925196
0.0925171
0.0925178
0.092524
0.092537
0.0925695
0.0926333
0.0926914
0.0928355
0.0929023
0.093192
0.093136
0.0936695
0.104183
0.0925174
0.0925171
0.0925167
0.0925206
0.0925308
0.0925485
0.0925883
0.0926545
0.0927318
0.0928739
0.0929948
0.0932715
0.0933455
0.0938327
0.102516
0.0925166
0.0925176
0.0925205
0.0925287
0.0925426
0.0925654
0.0926126
0.0926797
0.092774
0.0929004
0.0930771
0.0932833
0.0934786
0.0939755
0.105334
0.0925205
0.0925237
0.0925305
0.0925423
0.0925565
0.0925911
0.0926425
0.0927091
0.0928083
0.0929092
0.0930859
0.093168
0.0934673
0.109407
0.0997681
0.0925322
0.0925368
0.0925484
0.0925658
0.0925914
0.0926338
0.0926896
0.0927656
0.0928765
0.0929785
0.0931915
0.0931819
0.0936551
0.102637
0.092561
0.0925694
0.0925884
0.0926129
0.0926428
0.09269
0.0927445
0.0928263
0.0929223
0.0930409
0.0931393
0.0932193
0.110884
0.0987282
0.0926255
0.0926333
0.0926547
0.0926803
0.0927098
0.0927663
0.0928268
0.092927
0.0930284
0.0931803
0.0932696
0.093434
0.103691
0.0926763
0.0926916
0.0927321
0.0927749
0.0928092
0.0928777
0.0929234
0.0930292
0.0931414
0.0932713
0.0933925
0.110438
0.100135
0.0928265
0.092836
0.0928745
0.0929016
0.0929107
0.0929802
0.0930428
0.0931822
0.0932728
0.0934747
0.0939151
0.106268
0.0928736
0.0929031
0.0929957
0.0930787
0.0930876
0.093194
0.0931417
0.0932717
0.0933888
0.0938685
0.113742
0.0931815
0.0931934
0.0932726
0.0932853
0.0931703
0.0931843
0.0932223
0.0934373
0.110452
0.106296
0.0930881
0.0931378
0.093347
0.0934808
0.0934696
0.0936582
0.110891
0.103698
0.100146
0.0936321
0.0936721
0.0938345
0.0939782
0.109411
0.10264
0.0987321
0.103877
0.104189
0.10252
0.105337
0.0997713
0.0912641
0.0912623
0.0912622
0.0912697
0.0912831
0.0913133
0.0913498
0.091433
0.0914966
0.0916932
0.0917503
0.0921851
0.0920483
0.0929167
0.102829
0.091262
0.0912603
0.0912641
0.0912723
0.0912882
0.0913191
0.0913592
0.0914402
0.0915132
0.0916964
0.0917837
0.0921803
0.0921216
0.0929496
0.103055
0.091262
0.091264
0.0912689
0.0912812
0.0913017
0.0913363
0.0913871
0.0914703
0.0915753
0.0917576
0.091938
0.0923375
0.0925048
0.0934082
0.101553
0.0912691
0.0912721
0.091281
0.0912954
0.091321
0.0913586
0.091418
0.0914991
0.0916286
0.0917789
0.0920578
0.0923177
0.09279
0.0935924
0.10442
0.0912825
0.0912879
0.0913014
0.0913209
0.0913517
0.0913945
0.0914608
0.0915407
0.0916782
0.0917996
0.0920689
0.0921817
0.0926696
0.108543
0.0990643
0.0913125
0.0913189
0.0913361
0.0913588
0.0913946
0.0914462
0.0915206
0.0916148
0.0917664
0.0918946
0.0922227
0.0921997
0.0929904
0.101715
0.0913489
0.091359
0.091387
0.0914182
0.0914612
0.0915209
0.0915961
0.0916974
0.0918344
0.0919878
0.0921885
0.0922773
0.110033
0.0980738
0.0914321
0.0914402
0.0914705
0.0914997
0.0915413
0.0916155
0.0916978
0.0918355
0.091967
0.0922034
0.0923464
0.0926082
0.102795
0.0914956
0.0915135
0.0915758
0.0916296
0.0916794
0.0917677
0.0918356
0.0919677
0.092118
0.0922694
0.092617
0.109016
0.099231
0.0916921
0.0916971
0.0917582
0.0917805
0.0918013
0.0918967
0.0919904
0.0922058
0.0922736
0.0928353
0.0936507
0.104851
0.091749
0.0917849
0.0919393
0.0920599
0.0920712
0.0922259
0.0921921
0.0923507
0.0926217
0.0936684
0.111565
0.0921835
0.0921825
0.092339
0.0923205
0.0921848
0.092203
0.092282
0.0926141
0.109036
0.104881
0.0920464
0.0921244
0.0925072
0.092793
0.0926728
0.0929943
0.11004
0.102803
0.0992435
0.092914
0.0929548
0.0934112
0.0935965
0.108549
0.101719
0.0980787
0.102827
0.103063
0.101559
0.104424
0.0990688
0.0900018
0.0900037
0.0900091
0.0900212
0.0900395
0.0900767
0.0901179