/*--------------------------------*- C++ -*----------------------------------*\
| =========                 |                                                 |
| \\      /  F ield         | OpenFOAM: The Open Source CFD Toolbox           |
|  \\    /   O peration     | Version:  2.1.1                                 |
|   \\  /    A nd           | Web:      www.OpenFOAM.org                      |
|    \\/     M anipulation  |                                                 |
\*---------------------------------------------------------------------------*/
FoamFile
{
    version     2.0;
    format      ascii;
    class       surfaceScalarField;
    location    "0.003";
    object      phi;
}
// * * * * * * * * * * * * * * * * * * * * * * * * * * * * * * * * * * * * * //

dimensions      [0 3 -1 0 0 0 0];

internalField   nonuniform List<scalar> 
29352
(
-1.45341e-13
-1.45546e-13
2.50292e-10
1.19699e-13
-4.39857e-13
-1.45395e-13
2.50467e-10
2.46083e-13
-7.41584e-13
-1.48992e-13
2.50642e-10
3.71862e-13
-1.06485e-12
-1.52962e-13
2.50842e-10
5.20226e-13
-1.40994e-12
-1.59598e-13
2.51044e-10
6.61558e-13
-1.79989e-12
-1.66715e-13
2.51301e-10
8.56496e-13
-2.2374e-12
-1.76521e-13
2.51551e-10
1.03019e-12
-2.78535e-12
-1.89084e-13
2.51939e-10
1.34503e-12
-3.4345e-12
-2.02945e-13
2.52285e-10
1.58901e-12
-4.42848e-12
-2.2184e-13
2.53059e-10
2.36298e-12
-6.03204e-12
-2.3446e-13
2.53917e-10
3.33469e-12
-1.08884e-11
-2.49817e-13
2.58034e-10
8.31621e-12
-2.10334e-11
6.69679e-14
2.64368e-10
1.59428e-11
-3.4661e-11
1.25001e-12
2.73502e-10
3.75062e-11
-6.38401e-11
3.67749e-12
2.6467e-10
1.19755e-13
-1.45302e-13
-4.39823e-13
2.50467e-10
1.19813e-13
1.19435e-13
-4.45182e-13
-4.44968e-13
2.5065e-10
1.20263e-13
2.4494e-13
-7.4866e-13
-4.53988e-13
2.50837e-10
1.21357e-13
3.68155e-13
-1.07369e-12
-4.66896e-13
2.51051e-10
1.22619e-13
5.15348e-13
-1.42181e-12
-4.84768e-13
2.51268e-10
1.27535e-13
6.5517e-13
-1.81553e-12
-5.11212e-13
2.51544e-10
1.33954e-13
8.49169e-13
-2.25864e-12
-5.45357e-13
2.5182e-10
1.47543e-13
1.02496e-12
-2.81417e-12
-5.92493e-13
2.52234e-10
1.68841e-13
1.34152e-12
-3.47489e-12
-6.52423e-13
2.52617e-10
2.18589e-13
1.60222e-12
-4.48189e-12
-7.44542e-13
2.53405e-10
3.1226e-13
2.40029e-12
-6.08766e-12
-8.34889e-13
2.54213e-10
6.045e-13
3.47495e-12
-1.08958e-11
-9.50398e-13
2.57861e-10
2.70047e-13
8.56831e-12
-2.11616e-11
-9.70053e-14
2.63458e-10
-1.7173e-12
1.63009e-11
-3.34362e-11
2.89129e-12
2.70465e-10
-7.05504e-12
3.41995e-11
-5.73476e-11
1.05855e-11
2.59372e-10
2.45977e-13
-1.48784e-13
-7.41512e-13
2.50642e-10
2.4467e-13
1.1992e-13
-4.53342e-13
-7.48836e-13
2.50837e-10
2.45178e-13
2.47003e-13
-7.64395e-13
-7.6465e-13
2.51036e-10
2.48228e-13
3.65635e-13
-1.09482e-12
-7.86336e-13
2.51267e-10
2.53357e-13
5.13087e-13
-1.45001e-12
-8.18281e-13
2.51501e-10
2.61576e-13
6.5573e-13
-1.85474e-12
-8.60662e-13
2.51798e-10
2.79258e-13
8.50421e-13
-2.31094e-12
-9.17653e-13
2.52098e-10
3.07512e-13
1.03036e-12
-2.88215e-12
-9.97612e-13
2.52541e-10
3.49515e-13
1.34911e-12
-3.57357e-12
-1.10003e-12
2.52975e-10
4.44726e-13
1.63116e-12
-4.61534e-12
-1.27689e-12
2.53816e-10
6.07385e-13
2.43664e-12
-6.26483e-12
-1.5018e-12
2.54718e-10
9.98288e-13
3.6158e-12
-1.0827e-11
-2.09776e-12
2.58322e-10
9.45491e-13
8.28703e-12
-2.02024e-11
-2.02113e-12
2.63642e-10
-3.33702e-12
1.62788e-11
-3.71837e-11
1.92908e-12
2.75692e-10
-1.34496e-11
5.46412e-11
-8.20904e-11
1.93195e-12
3.04515e-10
3.71699e-13
-1.52879e-13
-1.06471e-12
2.50842e-10
3.68083e-13
1.20928e-13
-4.6691e-13
-1.07375e-12
2.51051e-10
3.6614e-13
2.4863e-13
-7.86899e-13
-1.09469e-12
2.51266e-10
3.70605e-13
3.68162e-13
-1.12711e-12
-1.12675e-12
2.51515e-10
3.73988e-13
5.12358e-13
-1.4929e-12
-1.17643e-12
2.51783e-10
3.79087e-13
6.51976e-13
-1.91054e-12
-1.24181e-12
2.52121e-10
3.90555e-13
8.48857e-13
-2.38413e-12
-1.3311e-12
2.52475e-10
4.06813e-13
1.02814e-12
-2.9767e-12
-1.45947e-12
2.53001e-10
4.23393e-13
1.33265e-12
-3.72397e-12
-1.65495e-12
2.53623e-10
4.76456e-13
1.63805e-12
-4.86767e-12
-2.0193e-12
2.54772e-10
5.72904e-13
2.41845e-12
-6.94767e-12
-2.73044e-12
2.5668e-10
1.20955e-12
3.99141e-12
-1.17792e-11
-4.69954e-12
2.61313e-10
2.84271e-12
8.18678e-12
-1.91835e-11
-8.42315e-12
2.67528e-10
6.54586e-12
1.55013e-11
-2.73548e-11
-1.85027e-11
2.76678e-10
3.66802e-13
7.83035e-11
-2.13912e-11
1.77919e-10
5.19947e-13
-1.59704e-13
-1.40971e-12
2.51045e-10
5.14987e-13
1.22042e-13
-4.84779e-13
-1.4218e-12
2.51269e-10
5.1249e-13
2.53154e-13
-8.17804e-13
-1.45013e-12
2.51502e-10
5.11024e-13
3.73013e-13
-1.1754e-12
-1.49295e-12
2.51784e-10
5.21596e-13
5.25991e-13
-1.55991e-12
-1.56046e-12
2.52072e-10
5.36214e-13
6.63665e-13
-2.00332e-12
-1.64764e-12
2.52451e-10
5.5867e-13
8.6094e-13
-2.51476e-12
-1.77505e-12
2.5287e-10
5.9121e-13
1.05043e-12
-3.17401e-12
-1.95707e-12
2.53489e-10
6.50959e-13
1.38991e-12
-4.07057e-12
-2.25508e-12
2.54285e-10
7.82185e-13
1.80123e-12
-5.62227e-12
-2.80987e-12
2.55848e-10
1.18947e-12
2.91796e-12
-8.99334e-12
-4.10296e-12
2.58993e-10
2.82678e-12
5.75534e-12
-1.57296e-11
-7.17781e-12
2.64573e-10
8.30538e-12
1.19968e-11
-2.55367e-11
-1.34095e-11
2.70668e-10
2.51413e-11
2.72016e-11
-3.90421e-11
-3.76326e-11
2.76294e-10
1.48589e-11
7.86791e-11
6.45887e-11
6.61092e-13
-1.67144e-13
-1.79957e-12
2.51302e-10
6.54586e-13
1.26553e-13
-5.11277e-13
-1.81567e-12
2.51545e-10
6.55251e-13
2.61064e-13
-8.60574e-13
-1.85536e-12
2.51799e-10
6.53181e-13
3.78915e-13
-1.24048e-12
-1.91136e-12
2.52119e-10
6.59419e-13
5.3636e-13
-1.64832e-12
-2.00465e-12
2.52457e-10
6.68113e-13
6.69351e-13
-2.12241e-12
-2.12307e-12
2.52908e-10
6.88208e-13
8.84976e-13
-2.68117e-12
-2.30411e-12
2.53412e-10
7.11885e-13
1.08697e-12
-3.44074e-12
-2.56369e-12
2.54205e-10
7.63931e-13
1.48916e-12
-4.57922e-12
-2.99829e-12
2.55324e-10
9.20652e-13
2.12221e-12
-6.9322e-12
-3.83732e-12
2.57727e-10
1.623e-12
3.99514e-12
-1.23665e-11
-5.9284e-12
2.62746e-10
4.51176e-12
8.54295e-12
-2.08357e-11
-1.02171e-11
2.68809e-10
1.23962e-11
1.60318e-11
-2.88848e-11
-1.89821e-11
2.73013e-10
3.44021e-11
3.28762e-11
-7.49502e-11
-3.0733e-11
2.7767e-10
8.55826e-13
-1.77417e-13
-2.23704e-12
2.51553e-10
8.4832e-13
1.3264e-13
-5.4576e-13
-2.25878e-12
2.51823e-10
8.49697e-13
2.78679e-13
-9.17834e-13
-2.31166e-12
2.52101e-10
8.48058e-13
3.89717e-13
-1.33064e-12
-2.38524e-12
2.52478e-10
8.61142e-13
5.58399e-13
-1.77502e-12
-2.51629e-12
2.52871e-10
8.84517e-13
6.88812e-13
-2.30344e-12
-2.68258e-12
2.53412e-10
9.42459e-13
9.42815e-13
-2.94417e-12
-2.94545e-12
2.54004e-10
1.02759e-12
1.18744e-12
-3.86263e-12
-3.28862e-12
2.54936e-10
1.22789e-12
1.76949e-12
-5.41588e-12
-3.83658e-12
2.56256e-10
1.73454e-12
2.86593e-12
-9.14791e-12
-5.01761e-12
2.59597e-10
3.61022e-12
6.38029e-12
-1.71384e-11
-7.76656e-12
2.65262e-10
9.65734e-12
1.31724e-11
-2.95669e-11
-1.28242e-11
2.71508e-10
2.36804e-11
2.8281e-11
-2.7183e-11
-2.03136e-11
2.49437e-10
4.05979e-11
5.73237e-11
-7.93301e-12
1.70876e-10
1.02921e-12
-1.90622e-13
-2.78486e-12
2.51942e-10
1.02362e-12
1.4545e-13
-5.93308e-13
-2.81447e-12
2.52238e-10
1.02912e-12
3.06777e-13
-9.98198e-13
-2.88318e-12
2.52545e-10
1.02702e-12
4.05888e-13
-1.45949e-12
-2.97822e-12
2.53004e-10
1.04955e-12
5.90927e-13
-1.95696e-12
-3.17596e-12
2.53492e-10
1.08603e-12
7.11875e-13
-2.56267e-12
-3.44302e-12
2.54207e-10
1.18641e-12
1.02735e-12
-3.28687e-12
-3.86501e-12
2.54938e-10
1.31781e-12
1.3185e-12
-4.35697e-12
-4.36039e-12
2.56084e-10
1.57482e-12
2.13786e-12
-6.51158e-12
-5.28324e-12
2.58128e-10
2.3343e-12
3.96808e-12
-1.19502e-11
-7.03424e-12
2.63025e-10
5.28625e-12
9.37898e-12
-2.20843e-11
-1.10055e-11
2.69921e-10
1.20857e-11
1.80419e-11
-3.10627e-11
-1.97145e-11
2.74446e-10
2.75233e-11
3.33178e-11
-5.70946e-11
-2.43349e-11
2.63966e-10
1.34359e-12
-2.05313e-13
-3.43399e-12
2.5229e-10
1.33971e-12
1.6628e-13
-6.53872e-13
-3.47519e-12
2.52623e-10
1.34748e-12
3.48649e-13
-1.10133e-12
-3.57489e-12
2.5298e-10
1.33124e-12
4.22397e-13
-1.65557e-12
-3.726e-12
2.53628e-10
1.38881e-12
6.50644e-13
-2.25549e-12
-4.07332e-12
2.54289e-10
1.48846e-12
7.63769e-13
-2.99709e-12
-4.58211e-12
2.55327e-10
1.76909e-12
1.22704e-12
-3.83402e-12
-5.41894e-12
2.56258e-10
2.13875e-12
1.57506e-12
-5.27733e-12
-6.51586e-12
2.58125e-10
3.04936e-12
3.04624e-12
-8.2096e-12
-8.21896e-12
2.60702e-10
4.91875e-12
6.05171e-12
-1.5414e-11
-1.07373e-11
2.66783e-10
1.05067e-11
1.3285e-11
-2.71548e-11
-1.38856e-11
2.71442e-10
2.86279e-11
2.75498e-11
-3.70667e-11
-4.04288e-11
2.74225e-10
2.32397e-11
7.4776e-11
1.0655e-10
1.58703e-12
-2.25587e-13
-4.42794e-12
2.53066e-10
1.59937e-12
2.14127e-13
-7.46965e-13
-4.48266e-12
2.53416e-10
1.62863e-12
4.43907e-13
-1.27928e-12
-4.61724e-12
2.53824e-10
1.63584e-12
4.75326e-13
-2.02065e-12
-4.87086e-12
2.5478e-10
1.79942e-12
7.82071e-13
-2.81046e-12
-5.62608e-12
2.55854e-10
2.1205e-12
9.20143e-13
-3.83523e-12
-6.93616e-12
2.57731e-10
2.86375e-12
1.73214e-12
-5.01211e-12
-9.1519e-12
2.596e-10
3.96562e-12
2.33034e-12
-7.01889e-12
-1.19556e-11
2.63022e-10
6.05278e-12
4.90391e-12
-1.07084e-11
-1.54269e-11
2.6678e-10
9.26601e-12
9.24421e-12
-1.79915e-11
-1.80527e-11
2.71656e-10
1.18744e-11
1.61058e-11
-3.0125e-11
-2.39506e-11
2.80957e-10
3.37747e-11
4.18135e-11
-2.83105e-11
-2.34227e-11
2.40848e-10
2.36017e-12
-2.40237e-13
-6.03219e-12
2.53929e-10
2.39776e-12
3.06007e-13
-8.38792e-13
-6.08956e-12
2.54228e-10
2.4343e-12
6.06768e-13
-1.50581e-12
-6.26866e-12
2.54729e-10
2.41699e-12
5.72475e-13
-2.73282e-12
-6.95229e-12
2.56688e-10
2.91747e-12
1.19028e-12
-4.10363e-12
-8.99803e-12
2.58998e-10
3.99474e-12
1.62254e-12
-5.92497e-12
-1.23705e-11
2.62747e-10
6.37867e-12
3.60555e-12
-7.75751e-12
-1.71418e-11
2.65263e-10
9.37798e-12
5.27649e-12
-1.09799e-11
-2.20871e-11
2.69908e-10
1.32942e-11
1.04735e-11
-1.38595e-11
-2.71604e-11
2.71438e-10
1.6168e-11
1.18637e-11
-2.38264e-11
-3.01129e-11
2.80743e-10
4.43884e-11
4.42551e-11
-4.72368e-11
-4.73997e-11
2.78499e-10
3.33271e-12
-2.58937e-13
-1.08887e-11
2.58048e-10
3.47098e-12
5.96027e-13
-9.57311e-13
-1.0899e-11
2.57884e-10
3.61315e-12
9.99714e-13
-2.10474e-12
-1.08321e-11
2.58335e-10
3.99026e-12
1.20956e-12
-4.70148e-12
-1.17846e-11
2.61321e-10
5.75515e-12
2.82944e-12
-7.17767e-12
-1.5734e-11
2.64575e-10
8.54164e-12
4.5112e-12
-1.02124e-11
-2.08395e-11
2.6881e-10
1.31692e-11
9.65015e-12
-1.28134e-11
-2.95697e-11
2.71512e-10
1.80375e-11
1.20724e-11
-1.9694e-11
-3.10652e-11
2.74446e-10
2.75485e-11
2.86035e-11
-4.04032e-11
-3.70702e-11
2.74216e-10
4.17901e-11
3.37559e-11
-2.33667e-11
-2.83101e-11
2.4075e-10
8.31555e-12
6.19285e-14
-2.10441e-11
2.64378e-10
8.56531e-12
2.73896e-13
-1.08788e-13
-2.11644e-11
2.6347e-10
8.28401e-12
9.52076e-13
-2.02738e-12
-2.0208e-11
2.6365e-10
8.18387e-12
2.8463e-12
-8.42475e-12
-1.9185e-11
2.6753e-10
1.19975e-11
8.30906e-12
-1.34091e-11
-2.55393e-11
2.70666e-10
1.60348e-11
1.23946e-11
-1.89779e-11
-2.88875e-11
2.7301e-10
2.82842e-11
2.36751e-11
-2.03052e-11
-2.71893e-11
2.49439e-10
3.33229e-11
2.75138e-11
-2.43248e-11
-5.71061e-11
2.63975e-10
7.47831e-11
2.32383e-11
1.06552e-10
1.59455e-11
1.2274e-12
-3.46469e-11
2.73488e-10
1.62963e-11
-1.70229e-12
2.86242e-12
-3.34091e-11
2.70448e-10
1.62952e-11
-3.3014e-12
1.84116e-12
-3.71663e-11
2.75708e-10
1.54946e-11
6.56827e-12
-1.85071e-11
-2.73623e-11
2.76673e-10
2.72001e-11
2.51475e-11
-3.76323e-11
-3.9041e-11
2.76287e-10
3.28768e-11
3.4399e-11
-3.07258e-11
-7.49497e-11
2.77664e-10
5.73329e-11
4.05842e-11
-7.92453e-12
1.70879e-10
3.74308e-11
3.47447e-12
-6.3664e-11
2.64806e-10
3.41634e-11
-6.90229e-12
1.0515e-11
-5.73265e-11
2.59279e-10
5.46281e-11
-1.34205e-11
1.92137e-12
-8.20711e-11
3.04478e-10
7.83032e-11
3.7188e-13
-2.13942e-11
1.77915e-10
7.86719e-11
1.48624e-11
6.45883e-11
-6.66808e-12
-6.6704e-12
1.01446e-09
-2.50825e-10
-2.50272e-10
-2.50272e-10
-2.49726e-10
-1.35703e-11
-6.74305e-12
1.01478e-09
-2.51402e-10
-2.49716e-10
-2.50833e-10
-2.49174e-10
-2.09423e-11
-6.92761e-12
1.01542e-09
-2.51981e-10
-2.49142e-10
-2.51391e-10
-2.48601e-10
-2.91272e-11
-7.17895e-12
1.01661e-09
-2.52637e-10
-2.48565e-10
-2.52021e-10
-2.48021e-10
-3.8584e-11
-7.60674e-12
1.01827e-09
-2.53283e-10
-2.47917e-10
-2.52635e-10
-2.4737e-10
-4.99189e-11
-8.19789e-12
1.02107e-09
-2.54123e-10
-2.47263e-10
-2.53433e-10
-2.46715e-10
-6.43623e-11
-9.03905e-12
1.02486e-09
-2.54891e-10
-2.46427e-10
-2.54158e-10
-2.45887e-10
-8.30668e-11
-1.04138e-11
1.03137e-09
-2.56164e-10
-2.45603e-10
-2.55378e-10
-2.45094e-10
-1.09766e-10
-1.19844e-11
1.04032e-09
-2.57088e-10
-2.44336e-10
-2.56288e-10
-2.43901e-10
-1.45582e-10
-1.50074e-11
1.05534e-09
-2.59508e-10
-2.43274e-10
-2.5868e-10
-2.43017e-10
-2.06812e-10
-1.61258e-11
1.08034e-09
-2.60045e-10
-2.41644e-10
-2.59445e-10
-2.41785e-10
-3.15385e-10
-1.69621e-11
1.15379e-09
-2.72664e-10
-2.40793e-10
-2.72808e-10
-2.41875e-10
-5.25187e-10
-2.52515e-12
1.27931e-09
-2.98206e-10
-2.33031e-10
-2.99864e-10
-2.35689e-10
2.3408e-11
9.27365e-12
1.01562e-09
-3.35268e-10
-2.2449e-10
-3.37176e-10
-2.25488e-10
2.34601e-11
-2.3644e-10
-2.37746e-10
-2.23052e-10
-2.34416e-11
4.65271e-12
2.65389e-10
-6.74576e-12
-1.35729e-11
1.01478e-09
-2.51402e-10
-2.50835e-10
-2.49716e-10
-2.49173e-10
-1.37313e-11
-1.37261e-11
1.01513e-09
-2.52001e-10
-2.50272e-10
-2.50271e-10
-2.48621e-10
-2.1179e-11
-1.41229e-11
1.0158e-09
-2.52607e-10
-2.49696e-10
-2.50812e-10
-2.48042e-10
-2.94613e-11
-1.46361e-11
1.01704e-09
-2.53302e-10
-2.49122e-10
-2.51418e-10
-2.47452e-10
-3.90318e-11
-1.55425e-11
1.01877e-09
-2.53998e-10
-2.48488e-10
-2.51998e-10
-2.46787e-10
-5.05459e-11
-1.67429e-11
1.02169e-09
-2.549e-10
-2.4785e-10
-2.52754e-10
-2.46122e-10
-6.52221e-11
-1.85418e-11
1.02569e-09
-2.55748e-10
-2.47049e-10
-2.53427e-10
-2.45293e-10
-8.43303e-11
-2.1389e-11
1.03254e-09
-2.57109e-10
-2.46267e-10
-2.54556e-10
-2.44526e-10
-1.11494e-10
-2.49021e-11
1.04219e-09
-2.58168e-10
-2.45095e-10
-2.55421e-10
-2.43421e-10
-1.47547e-10
-3.16155e-11
1.05781e-09
-2.60695e-10
-2.44127e-10
-2.5757e-10
-2.4276e-10
-2.08866e-10
-3.48875e-11
1.08457e-09
-2.61147e-10
-2.42874e-10
-2.58149e-10
-2.42325e-10
-3.15633e-10
-4.31171e-11
1.16351e-09
-2.72198e-10
-2.42862e-10
-2.6977e-10
-2.45754e-10
-5.24533e-10
-1.91038e-11
1.3017e-09
-2.95353e-10
-2.35478e-10
-2.99217e-10
-2.4617e-10
3.69823e-11
-1.48702e-11
1.02104e-09
-3.24316e-10
-2.17592e-10
-3.38719e-10
-2.47601e-10
3.13015e-11
-2.29424e-10
-2.32066e-10
-2.15039e-10
-8.78318e-12
-1.81471e-11
2.67306e-11
2.52222e-10
-6.92867e-12
-2.09466e-11
1.01542e-09
-2.51981e-10
-2.51391e-10
-2.49142e-10
-2.486e-10
-1.41265e-11
-2.11743e-11
1.0158e-09
-2.52608e-10
-2.5081e-10
-2.49696e-10
-2.48042e-10
-2.18149e-11
-2.18131e-11
1.01653e-09
-2.53247e-10
-2.50229e-10
-2.50228e-10
-2.47449e-10
-3.0457e-11
-2.25797e-11
1.01786e-09
-2.53984e-10
-2.49646e-10
-2.50814e-10
-2.46841e-10
-4.05113e-11
-2.40162e-11
1.01975e-09
-2.54726e-10
-2.48997e-10
-2.51362e-10
-2.4614e-10
-5.2832e-11
-2.57647e-11
1.02289e-09
-2.55686e-10
-2.48357e-10
-2.52067e-10
-2.45442e-10
-6.87124e-11
-2.85933e-11
1.02733e-09
-2.56597e-10
-2.47552e-10
-2.52674e-10
-2.44569e-10
-8.98874e-11
-3.28777e-11
1.03487e-09
-2.58014e-10
-2.46764e-10
-2.53676e-10
-2.43752e-10
-1.19664e-10
-3.89255e-11
1.04557e-09
-2.59147e-10
-2.45614e-10
-2.54429e-10
-2.42587e-10
-1.58966e-10
-5.01277e-11
1.06225e-09
-2.61665e-10
-2.44672e-10
-2.56134e-10
-2.41965e-10
-2.22698e-10
-6.08229e-11
1.09483e-09
-2.61925e-10
-2.44156e-10
-2.56739e-10
-2.42348e-10
-3.36877e-10
-9.25922e-11
1.19859e-09
-2.71934e-10
-2.48608e-10
-2.65132e-10
-2.49265e-10
-5.34189e-10
-1.12474e-10
1.38902e-09
-2.94271e-10
-2.51003e-10
-2.93971e-10
-2.59095e-10
4.37412e-11
-1.9194e-10
1.19035e-09
-3.35788e-10
-2.64225e-10
-3.44176e-10
-2.96376e-10
-1.80346e-11
-1.806e-10
-1.52014e-10
-2.32442e-10
-3.9528e-11
-6.26509e-12
6.33346e-11
2.5864e-10
-7.18277e-12
-2.9133e-11
1.01661e-09
-2.52637e-10
-2.5202e-10
-2.48565e-10
-2.4802e-10
-1.4643e-11
-2.94531e-11
1.01704e-09
-2.53302e-10
-2.51419e-10
-2.49122e-10
-2.47451e-10
-2.25854e-11
-3.04512e-11
1.01786e-09
-2.53986e-10
-2.5082e-10
-2.49644e-10
-2.4684e-10
-3.15206e-11
-3.15085e-11
1.01935e-09
-2.54791e-10
-2.50238e-10
-2.50234e-10
-2.46212e-10
-4.1875e-11
-3.37097e-11
1.02148e-09
-2.5561e-10
-2.49595e-10
-2.50758e-10
-2.45479e-10
-5.46665e-11
-3.60661e-11
1.02493e-09
-2.56669e-10
-2.48977e-10
-2.51432e-10
-2.44752e-10
-7.10695e-11
-4.03221e-11
1.02999e-09
-2.57758e-10
-2.4824e-10
-2.52016e-10
-2.43849e-10
-9.31809e-11
-4.61121e-11
1.03823e-09
-2.59376e-10
-2.47572e-10
-2.52947e-10
-2.42985e-10
-1.22894e-10
-5.57319e-11
1.04978e-09
-2.61044e-10
-2.46693e-10
-2.53719e-10
-2.41809e-10
-1.63208e-10
-7.14208e-11
1.06823e-09
-2.63936e-10
-2.46275e-10
-2.55053e-10
-2.41358e-10
-2.30327e-10
-9.58965e-11
1.11726e-09
-2.66845e-10
-2.48164e-10
-2.5742e-10
-2.42644e-10
-3.69113e-10
-1.4937e-10
1.2541e-09
-2.82951e-10
-2.59946e-10
-2.68098e-10
-2.47543e-10
-4.96243e-10
-2.14625e-10
1.37724e-09
-3.15585e-10
-2.78995e-10
-2.9582e-10
-2.57563e-10
1.03756e-11
-1.5534e-11
9.60058e-10
-3.46015e-10
-3.01772e-10
-2.9652e-10
-2.32267e-10
5.19765e-11
-1.24704e-10
-1.20472e-10
7.66321e-11
-1.88985e-10
-1.60955e-10
-1.34474e-10
-2.83483e-12
-2.24299e-11
1.70113e-10
-7.6109e-12
-3.85921e-11
1.01827e-09
-2.53284e-10
-2.52634e-10
-2.47918e-10
-2.47367e-10
-1.55485e-11
-3.90203e-11
1.01877e-09
-2.54e-10
-2.52e-10
-2.48488e-10
-2.46785e-10
-2.40202e-11
-4.05062e-11
1.01975e-09
-2.54728e-10
-2.51364e-10
-2.48995e-10
-2.46136e-10
-3.37207e-11
-4.18651e-11
1.02148e-09
-2.55609e-10
-2.50756e-10
-2.49588e-10
-2.45475e-10
-4.50524e-11
-4.50417e-11
1.02401e-09
-2.56509e-10
-2.50078e-10
-2.50077e-10
-2.44671e-10
-5.95306e-11
-4.78677e-11
1.02802e-09
-2.57685e-10
-2.49448e-10
-2.50716e-10
-2.43882e-10
-7.87156e-11
-5.36942e-11
1.03415e-09
-2.58881e-10
-2.48641e-10
-2.51216e-10
-2.4285e-10
-1.05727e-10
-6.034e-11
1.04367e-09
-2.60705e-10
-2.47876e-10
-2.52066e-10
-2.41785e-10
-1.43468e-10
-7.27731e-11
1.05729e-09
-2.62785e-10
-2.46795e-10
-2.52615e-10
-2.40312e-10
-2.02851e-10
-9.14317e-11
1.08599e-09
-2.65957e-10
-2.46687e-10
-2.54093e-10
-2.3986e-10
-3.2083e-10
-1.29175e-10
1.17416e-09
-2.73654e-10
-2.50022e-10
-2.58949e-10
-2.40274e-10
-5.02656e-10
-2.06633e-10
1.31899e-09
-3.00535e-10
-2.60876e-10
-2.79318e-10
-2.39173e-10
-5.19982e-11
-2.92064e-10
1.11279e-09
-3.30486e-10
-2.62799e-10
-2.997e-10
-2.18412e-10
1.82077e-11
-2.06833e-10
-1.85988e-10
-2.61086e-10
-5.64413e-11
-7.97359e-11
3.29731e-10
-3.53247e-11
1.13939e-11
-1.24231e-11
3.63538e-11
-8.20302e-12
-4.99307e-11
1.02107e-09
-2.54125e-10
-2.5343e-10
-2.47264e-10
-2.46709e-10
-1.67499e-11
-5.05294e-11
1.02169e-09
-2.54904e-10
-2.52755e-10
-2.47851e-10
-2.46118e-10
-2.57698e-11
-5.28259e-11
1.02289e-09
-2.55689e-10
-2.52069e-10
-2.48355e-10
-2.45437e-10
-3.60707e-11
-5.46517e-11
1.02493e-09
-2.56675e-10
-2.51437e-10
-2.48973e-10
-2.44748e-10
-4.78726e-11
-5.95225e-11
1.02801e-09
-2.57683e-10
-2.50723e-10
-2.49438e-10
-2.43879e-10
-6.3018e-11
-6.30174e-11
1.03263e-09
-2.59057e-10
-2.50113e-10
-2.50103e-10
-2.43069e-10
-8.27638e-11
-7.1343e-11
1.0398e-09
-2.60533e-10
-2.49319e-10
-2.50587e-10
-2.41961e-10
-1.10384e-10
-7.83613e-11
1.04952e-09
-2.62938e-10
-2.48584e-10
-2.51476e-10
-2.40884e-10
-1.49366e-10
-9.38908e-11
1.06534e-09
-2.65623e-10
-2.47642e-10
-2.5224e-10
-2.39745e-10
-2.21314e-10
-1.14989e-10
1.11045e-09
-2.70553e-10
-2.48524e-10
-2.55847e-10
-2.40019e-10
-3.7934e-10
-1.60391e-10
1.24243e-09
-2.88586e-10
-2.54584e-10
-2.70285e-10
-2.39731e-10
-5.50535e-10
-2.3778e-10
1.33795e-09
-3.25745e-10
-2.64937e-10
-3.04106e-10
-2.40821e-10
6.5859e-12
-1.71295e-11
9.14044e-10
-3.46452e-10
-2.6996e-10
-2.95312e-10
-2.11561e-10
7.76574e-11
-2.1666e-10
-1.84033e-10
8.88167e-11
-1.95966e-10
-1.92628e-10
-2.36056e-10
3.59103e-11
-3.36917e-11
-1.80451e-11
2.58468e-10
-9.04894e-12
-6.43782e-11
1.02485e-09
-2.54895e-10
-2.54153e-10
-2.4643e-10
-2.45878e-10
-1.8554e-11
-6.51969e-11
1.02569e-09
-2.55754e-10
-2.53429e-10
-2.4705e-10
-2.45287e-10
-2.86027e-11
-6.87034e-11
1.02732e-09
-2.56603e-10
-2.52676e-10
-2.47548e-10
-2.4456e-10
-4.03301e-11
-7.10487e-11
1.02998e-09
-2.57763e-10
-2.52022e-10
-2.48234e-10
-2.43843e-10
-5.36978e-11
-7.87044e-11
1.03413e-09
-2.58886e-10
-2.51224e-10
-2.48632e-10
-2.42845e-10
-7.13421e-11
-8.27642e-11
1.03979e-09
-2.60534e-10
-2.50597e-10
-2.49306e-10
-2.41957e-10
-9.4626e-11
-9.4627e-11
1.04874e-09
-2.62299e-10
-2.49624e-10
-2.4961e-10
-2.40641e-10
-1.29348e-10
-9.98684e-11
1.06012e-09
-2.65078e-10
-2.48723e-10
-2.50423e-10
-2.39668e-10
-1.85151e-10
-1.19648e-10
1.08738e-09
-2.67392e-10
-2.47838e-10
-2.51544e-10
-2.39048e-10
-3.06941e-10
-1.39619e-10
1.17026e-09
-2.75986e-10
-2.49627e-10
-2.58274e-10
-2.39951e-10
-4.95218e-10
-2.05587e-10
1.31263e-09
-3.02912e-10
-2.53125e-10
-2.8591e-10
-2.37209e-10
-4.57112e-11
-2.67944e-10
1.098e-09
-3.35881e-10
-2.40982e-10
-3.12738e-10
-2.16293e-10
2.17189e-11
-2.23591e-10
-2.09578e-10
-2.31164e-10
-9.04416e-11
-6.54527e-11
3.24216e-10
-1.20023e-10
-1.37366e-11
1.1588e-11
2.26443e-12
1.19907e-10
-1.04289e-11
-8.30896e-11
1.03137e-09
-2.56172e-10
-2.5537e-10
-2.45607e-10
-2.45082e-10
-2.14052e-11
-8.42915e-11
1.03254e-09
-2.5712e-10
-2.54558e-10
-2.46269e-10
-2.44518e-10
-3.28848e-11
-8.98758e-11
1.03486e-09
-2.58023e-10
-2.53678e-10
-2.46759e-10
-2.4374e-10
-4.61095e-11
-9.31529e-11
1.03821e-09
-2.59385e-10
-2.52955e-10
-2.47564e-10
-2.42976e-10
-6.03176e-11
-1.05716e-10
1.04365e-09
-2.60715e-10
-2.52076e-10
-2.47864e-10
-2.41777e-10
-7.83159e-11
-1.10388e-10
1.04951e-09
-2.62946e-10
-2.5149e-10
-2.48568e-10
-2.40878e-10
-9.97949e-11
-1.29352e-10
1.0601e-09
-2.65085e-10
-2.50442e-10
-2.48708e-10
-2.39666e-10
-1.32819e-10
-1.329e-10
1.07309e-09
-2.6765e-10
-2.49954e-10
-2.49933e-10
-2.39497e-10
-1.93916e-10
-1.61743e-10
1.11821e-09
-2.71719e-10
-2.50387e-10
-2.5298e-10
-2.39929e-10
-3.50552e-10
-1.64741e-10
1.23371e-09
-2.88477e-10
-2.55024e-10
-2.67021e-10
-2.4143e-10
-5.41078e-10
-2.14396e-10
1.33985e-09
-3.26085e-10
-2.60067e-10
-3.07972e-10
-2.46393e-10
7.73011e-12
-1.49214e-11
9.61169e-10
-3.51589e-10
-2.50285e-10
-3.24368e-10
-2.33861e-10
7.58736e-11
-2.30514e-10
-1.95392e-10
9.01848e-11
-1.8045e-10
-1.62598e-10
-2.26854e-10
2.48504e-11
-4.28425e-11
-1.20537e-11
2.64629e-10
-1.20188e-11
-1.09793e-10
1.04031e-09
-2.57101e-10
-2.56275e-10
-2.44341e-10
-2.43883e-10
-2.49367e-11
-1.11433e-10
1.04217e-09
-2.58185e-10
-2.55421e-10
-2.45097e-10
-2.43408e-10
-3.8949e-11
-1.19642e-10
1.04554e-09
-2.59161e-10
-2.54429e-10
-2.45606e-10
-2.4257e-10
-5.57424e-11
-1.2285e-10
1.04975e-09
-2.61058e-10
-2.53727e-10
-2.46681e-10
-2.41795e-10
-7.27571e-11
-1.43449e-10
1.05725e-09
-2.62802e-10
-2.52624e-10
-2.46779e-10
-2.40297e-10
-9.38466e-11
-1.49366e-10
1.0653e-09
-2.65632e-10
-2.52252e-10
-2.47619e-10
-2.39731e-10
-1.19552e-10
-1.85156e-10
1.08732e-09
-2.674e-10
-2.5156e-10
-2.47817e-10
-2.39036e-10
-1.61618e-10
-1.93964e-10
1.11809e-09
-2.71708e-10
-2.52989e-10
-2.50355e-10
-2.39909e-10
-2.47665e-10
-2.47451e-10
1.20147e-09
-2.79741e-10
-2.54606e-10
-2.54605e-10
-2.40762e-10
-4.16973e-10
-2.10236e-10
1.29107e-09
-3.03967e-10
-2.57312e-10
-2.75769e-10
-2.39221e-10
-3.3971e-11
-2.08498e-10
1.0696e-09
-3.27922e-10
-2.40825e-10
-3.07304e-10
-2.23577e-10
3.19963e-11
-2.06559e-10
-1.84314e-10
-2.59872e-10
-5.7663e-11
-7.50443e-11
3.43687e-10
-6.37315e-11
-5.10052e-12
-8.83554e-13
6.97155e-11
-1.50676e-11
-1.45619e-10
1.05532e-09
-2.59527e-10
-2.58659e-10
-2.43279e-10
-2.42991e-10
-3.16725e-11
-1.47443e-10
1.05778e-09
-2.60723e-10
-2.57572e-10
-2.44127e-10
-2.42745e-10
-5.01558e-11
-1.58934e-10
1.06219e-09
-2.61687e-10
-2.56132e-10
-2.44657e-10
-2.4194e-10
-7.14162e-11
-1.63142e-10
1.06817e-09
-2.6396e-10
-2.55063e-10
-2.4626e-10
-2.4134e-10
-9.13759e-11
-2.02828e-10
1.08593e-09
-2.65979e-10
-2.54104e-10
-2.46668e-10
-2.39841e-10
-1.14868e-10
-2.21313e-10
1.11037e-09
-2.70568e-10
-2.55864e-10
-2.48501e-10
-2.40002e-10
-1.39329e-10
-3.0699e-10
1.17013e-09
-2.76002e-10
-2.58297e-10
-2.49605e-10
-2.39934e-10
-1.641e-10
-3.50736e-10
1.23344e-09
-2.88468e-10
-2.67053e-10
-2.54979e-10
-2.41398e-10
-2.08972e-10
-4.16811e-10
1.29031e-09
-3.03925e-10
-2.75771e-10
-2.57279e-10
-2.39098e-10
-3.06265e-10
-3.06491e-10
1.33109e-09
-3.28281e-10
-2.72724e-10
-2.72517e-10
-2.6402e-10
6.74706e-11
1.21929e-11
9.29525e-10
-3.40394e-10
-2.48361e-10
-3.22346e-10
-2.29423e-10
5.8816e-11
-1.73513e-10
-1.29418e-10
7.62594e-11
-1.12561e-10
-1.03013e-10
-1.91633e-10
2.63191e-11
2.92542e-12
-1.81307e-11
2.47989e-10
-1.62467e-11
-2.06842e-10
1.0803e-09
-2.60083e-10
-2.59414e-10
-2.4165e-10
-2.41749e-10
-3.49897e-11
-2.08684e-10
1.08449e-09
-2.61193e-10
-2.58149e-10
-2.42868e-10
-2.42297e-10
-6.08927e-11
-2.22624e-10
1.09473e-09
-2.6196e-10
-2.56741e-10
-2.4413e-10
-2.42308e-10
-9.59254e-11
-2.3022e-10
1.11717e-09
-2.66879e-10
-2.5743e-10
-2.48138e-10
-2.42618e-10
-1.29154e-10
-3.20783e-10
1.17407e-09
-2.73676e-10
-2.58958e-10
-2.49997e-10
-2.40251e-10
-1.60337e-10
-3.79293e-10
1.24232e-09
-2.88592e-10
-2.70302e-10
-2.54557e-10
-2.39708e-10
-2.05413e-10
-4.95243e-10
1.31245e-09
-3.02916e-10
-2.85914e-10
-2.53103e-10
-2.37185e-10
-2.14316e-10
-5.41139e-10
1.33957e-09
-3.26038e-10
-3.07911e-10
-2.5999e-10
-2.46327e-10
-2.07966e-10
-3.40333e-11
1.06935e-09
-3.27896e-10
-3.07115e-10
-2.40754e-10
-2.23461e-10
3.18671e-11
-2.06624e-10
-1.84491e-10
1.25746e-11
6.74019e-11
9.29587e-10
-3.40247e-10
-3.22801e-10
-2.48614e-10
-2.29428e-10
7.65944e-11
-1.12711e-10
-1.02904e-10
5.87234e-11
-1.73363e-10
-1.29273e-10
-2.31581e-10
-4.32449e-11
-4.35794e-11
3.43172e-10
-1.71654e-11
-3.15407e-10
1.15369e-09
-2.7272e-10
-2.72748e-10
-2.40791e-10
-2.4182e-10
-4.33058e-11
-3.1523e-10
1.16331e-09
-2.72271e-10
-2.69791e-10
-2.4285e-10
-2.45709e-10
-9.26903e-11
-3.36731e-10
1.1984e-09
-2.71989e-10
-2.65146e-10
-2.48561e-10
-2.49208e-10
-1.49364e-10
-3.68972e-10
1.25397e-09
-2.82982e-10
-2.68129e-10
-2.59909e-10
-2.47522e-10
-2.06538e-10
-5.02588e-10
1.31888e-09
-3.00545e-10
-2.79347e-10
-2.60849e-10
-2.39158e-10
-2.37567e-10
-5.50499e-10
1.33783e-09
-3.25748e-10
-3.04112e-10
-2.64919e-10
-2.40813e-10
-2.67568e-10
-4.57177e-11
1.09783e-09
-3.35879e-10
-3.12729e-10
-2.40977e-10
-2.16288e-10
2.17086e-11
-2.23602e-10
-2.09587e-10
-1.48521e-11
7.73721e-12
9.60916e-10
-3.51563e-10
-3.24329e-10
-2.50274e-10
-2.33829e-10
9.02574e-11
-1.80286e-10
-1.62474e-10
7.58784e-11
-2.30509e-10
-1.95381e-10
-2.59812e-10
-7.49269e-11
-5.77206e-11
3.43574e-10
-1.91423e-10
2.62566e-11
-1.8048e-11
2.94135e-12
2.47674e-10
-2.84457e-12
-5.25168e-10
1.27915e-09
-2.98267e-10
-2.9981e-10
-2.33032e-10
-2.35632e-10
-1.94095e-11
-5.23791e-10
1.30128e-09
-2.95392e-10
-2.992e-10
-2.35454e-10
-2.46106e-10
-1.12676e-10
-5.33843e-10
1.38866e-09
-2.94301e-10
-2.93992e-10
-2.50952e-10
-2.5904e-10
-2.1469e-10
-4.96083e-10
1.37705e-09
-3.15585e-10
-2.95853e-10
-2.78937e-10
-2.57546e-10
-2.92048e-10
-5.19842e-11
1.1127e-09
-3.30474e-10
-2.99701e-10
-2.62767e-10
-2.18403e-10
1.82153e-11
-2.06826e-10
-1.85987e-10
-1.71225e-11
6.59605e-12
9.13987e-10
-3.46441e-10
-2.95316e-10
-2.6993e-10
-2.11555e-10
8.88281e-11
-1.95953e-10
-1.92608e-10
7.76636e-11
-2.16661e-10
-1.84035e-10
-2.31161e-10
-6.54402e-11
-9.04523e-11
3.24212e-10
-2.26849e-10
2.48385e-11
-1.20308e-11
-4.28472e-11
2.64625e-10
-6.37253e-11
-8.67433e-13
-5.12298e-12
6.97157e-11
8.52103e-12
2.34228e-11
1.01542e-09
-3.35283e-10
-3.37076e-10
-2.24519e-10
-2.25354e-10
2.35013e-11
-2.36537e-10
-2.37561e-10
-1.51209e-11
3.70513e-11
1.02048e-09
-3.2431e-10
-3.38678e-10
-2.17545e-10
-2.47508e-10
3.13908e-11
-2.29216e-10
-2.31816e-10
-1.92151e-10
4.38164e-11
1.18998e-09
-3.35721e-10
-3.44122e-10
-2.64131e-10
-2.96289e-10
-1.79719e-11
-1.80442e-10
-1.51928e-10
-1.55276e-11
1.03913e-11
9.59915e-10
-3.45997e-10
-2.96573e-10
-3.01692e-10
-2.32265e-10
7.66498e-11
-1.88989e-10
-1.60947e-10
5.19764e-11
-1.24698e-10
-1.20476e-10
-2.61068e-10
-7.97299e-11
-5.644e-11
3.29727e-10
-2.36048e-10
3.5903e-11
-1.80375e-11
-3.36892e-11
2.58467e-10
-1.20022e-10
1.15906e-11
-1.37439e-11
2.26772e-12
1.19907e-10
-2.23157e-10
4.45678e-12
-2.35005e-11
2.65479e-10
-2.14895e-10
-8.6062e-12
2.65123e-11
-1.8044e-11
2.52085e-10
-2.32352e-10
-3.94048e-11
6.3262e-11
-6.22112e-12
2.58531e-10
-1.34467e-10
-2.82673e-12
-2.2429e-11
1.70113e-10
-3.53244e-11
-1.2427e-11
1.1396e-11
3.63554e-11
-8.73944e-12
-8.74224e-12
1.03195e-09
-1.76714e-11
-8.79968e-12
1.03253e-09
-2.69984e-11
-8.97237e-12
1.03374e-09
-3.69205e-11
-9.19399e-12
1.03574e-09
-4.77853e-11
-9.56412e-12
1.0387e-09
-5.96667e-11
-1.00618e-11
1.04302e-09
-7.33693e-11
-1.07005e-11
1.04927e-09
-8.82093e-11
-1.18293e-11
1.05805e-09
-1.06654e-10
-1.2805e-11
1.07157e-09
-1.23569e-10
-1.56119e-11
1.08787e-09
-1.42686e-10
-1.66005e-11
1.11607e-09
-1.35169e-10
-2.24089e-11
1.16873e-09
-1.3938e-10
-9.39463e-12
1.29301e-09
6.12216e-11
-9.69663e-12
9.50809e-10
6.13566e-11
-9.34125e-11
-9.38588e-11
-7.493e-11
1.6376e-11
2.68851e-13
1.19616e-10
-8.80291e-12
-1.76749e-11
1.03253e-09
-1.78057e-11
-1.78006e-11
1.03313e-09
-2.7196e-11
-1.81649e-11
1.03438e-09
-3.71909e-11
-1.86047e-11
1.03644e-09
-4.81134e-11
-1.93686e-11
1.0395e-09
-6.00941e-11
-2.03426e-11
1.04395e-09
-7.38665e-11
-2.16591e-11
1.05042e-09
-8.89343e-11
-2.38627e-11
1.05964e-09
-1.07599e-10
-2.59133e-11
1.07396e-09
-1.2521e-10
-3.15047e-11
1.09131e-09
-1.43925e-10
-3.3495e-11
1.12018e-09
-1.34855e-10
-4.52636e-11
1.17729e-09
-1.33301e-10
-1.26725e-11
1.30342e-09
6.46729e-11
-1.77209e-11
9.50271e-10
6.49421e-11
-9.20644e-11
-9.20518e-11
-6.84781e-11
2.41686e-13
1.7551e-11
2.49513e-12
1.12863e-10
-8.97314e-12
-2.70029e-11
1.03374e-09
-1.81676e-11
-2.71886e-11
1.03438e-09
-2.77677e-11
-2.77632e-11
1.03573e-09
-3.80541e-11
-2.83737e-11
1.03792e-09
-4.93521e-11
-2.9534e-11
1.04122e-09
-6.19629e-11
-3.08485e-11
1.04601e-09
-7.66397e-11
-3.27675e-11
1.05311e-09
-9.34698e-11
-3.56645e-11
1.06351e-09
-1.14719e-10
-3.86028e-11
1.07951e-09
-1.37264e-10
-4.57322e-11
1.09902e-09
-1.60255e-10
-4.83413e-11
1.13267e-09
-1.63699e-10
-6.00645e-11
1.21684e-09
-1.56275e-10
-1.08158e-11
1.37974e-09
5.72788e-11
-4.43084e-11
1.0965e-09
3.90375e-11
-8.00087e-11
-5.21386e-11
-8.23805e-11
-6.15574e-12
1.21233e-11
1.1032e-12
1.32588e-10
-9.19615e-12
-3.69262e-11
1.03574e-09
-1.86104e-11
-3.71793e-11
1.03644e-09