/*--------------------------------*- C++ -*----------------------------------*\
| =========                 |                                                 |
| \\      /  F ield         | OpenFOAM: The Open Source CFD Toolbox           |
|  \\    /   O peration     | Version:  2.1.1                                 |
|   \\  /    A nd           | Web:      www.OpenFOAM.org                      |
|    \\/     M anipulation  |                                                 |
\*---------------------------------------------------------------------------*/
FoamFile
{
    version     2.0;
    format      ascii;
    class       surfaceScalarField;
    location    "0.001";
    object      phi;
}
// * * * * * * * * * * * * * * * * * * * * * * * * * * * * * * * * * * * * * //

dimensions      [0 3 -1 0 0 0 0];

internalField   nonuniform List<scalar> 
29335
(
-5.88862e-13
-1.43952e-11
5.6494e-11
-4.15104e-11
1.40918e-12
-2.03272e-12
-1.42393e-11
4.97306e-11
-3.48677e-11
1.97081e-12
-8.46005e-12
1.51255e-11
-8.63629e-12
2.04229e-13
-2.31356e-13
9.00609e-10
6.19319e-11
6.27756e-11
-6.19448e-11
-6.27929e-11
-9.00558e-10
4.01518e-14
-1.3844e-13
9.04449e-10
6.46724e-11
6.59937e-11
-6.4513e-11
-6.5904e-11
-9.04396e-10
8.97259e-13
-3.02827e-13
1.00272e-09
5.74114e-11
3.99921e-11
-5.73505e-11
-4.06674e-11
-1.00266e-09
5.7755e-11
-3.46847e-13
7.92547e-10
4.25883e-11
4.82225e-11
-4.22488e-11
-4.81254e-11
4.43653e-11
-5.65773e-11
-4.47838e-11
-7.92498e-10
6.46756e-12
1.23822e-11
-1.34869e-11
1.16262e-10
-6.38695e-11
-2.56246e-12
-8.39733e-13
-9.68093e-12
4.23356e-11
-2.92525e-11
-2.63957e-13
-1.27047e-14
1.12197e-09
-1.12193e-09
-6.10375e-13
1.69966e-13
1.13371e-09
-1.13367e-09
-7.43333e-13
-2.18935e-13
1.17449e-09
-1.17444e-09
-1.95344e-12
8.08042e-13
1.16358e-09
-1.16353e-09
8.44078e-13
-1.30379e-12
9.27831e-10
4.65167e-11
5.49798e-11
-4.78825e-11
-5.51483e-11
-9.27791e-10
6.49592e-11
-2.46423e-13
7.56577e-10
5.78726e-11
6.15491e-11
-5.74325e-11
-6.08086e-11
4.46004e-11
-6.4512e-11
-4.51745e-11
-7.56541e-10
1.63276e-11
1.40568e-11
-1.44599e-11
1.01399e-10
-5.23632e-11
-1.89241e-12
-3.09935e-12
-1.13442e-11
5.16003e-11
-3.52644e-11
2.15427e-13
-2.81553e-13
1.12411e-09
-1.12406e-09
5.71465e-13
-2.37111e-13
1.13188e-09
-1.13182e-09
5.9215e-13
-2.90622e-13
1.14545e-09
-1.1454e-09
1.62225e-12
-2.72569e-13
1.1575e-09
-1.15745e-09
3.33863e-13
-6.58515e-14
1.15037e-09
-1.15032e-09
-8.54816e-13
8.89498e-13
1.13625e-09
-1.1362e-09
1.5678e-12
-1.25959e-12
9.07607e-10
4.69108e-11
5.88734e-11
-4.81105e-11
-5.88772e-11
-9.07566e-10
5.82836e-11
-3.80694e-13
7.81347e-10
5.83836e-11
6.27395e-11
-5.78814e-11
-6.18261e-11
4.36571e-11
-5.71357e-11
-4.43132e-11
-7.81305e-10
1.14219e-11
5.95688e-12
-1.43541e-11
1.27304e-10
-7.20449e-11
2.67239e-12
-1.23908e-11
2.34763e-11
-1.37579e-11
-1.23072e-13
-1.80102e-13
1.12791e-09
-1.12789e-09
-2.61079e-13
-1.15364e-13
1.13214e-09
-1.13212e-09
-2.78313e-13
-2.92918e-13
1.13726e-09
-1.13724e-09
-4.99446e-13
-7.68349e-14
1.13935e-09
-1.13932e-09
-1.04003e-13
-4.90555e-13
1.13953e-09
-1.1395e-09
9.06008e-13
-1.57688e-13
1.14417e-09
-1.14413e-09
-2.64114e-13
-1.31173e-13
1.14069e-09
-1.14065e-09
-1.69434e-12
9.9996e-13
1.14018e-09
-1.14013e-09
1.24577e-12
-1.76041e-12
9.05352e-10
4.51797e-11
5.27784e-11
-4.62288e-11
-5.29493e-11
-9.05311e-10
4.31168e-11
9.52137e-13
7.47401e-10
5.67211e-11
5.04474e-11
-5.62416e-11
-5.06721e-11
3.37188e-11
-4.21628e-11
-3.4673e-11
-7.47362e-10
1.05669e-11
4.47409e-11
-1.21909e-11
8.80356e-14
-2.87306e-13
1.13234e-09
-1.13233e-09
2.23097e-13
-2.64873e-13
1.13419e-09
-1.13417e-09
1.91583e-13
-2.79336e-13
1.13635e-09
-1.13633e-09
3.03683e-13
-2.10057e-13
1.13633e-09
-1.13631e-09
2.56425e-14
-2.42433e-13
1.1337e-09
-1.13367e-09
-1.04952e-13
-5.77648e-14
1.13031e-09
-1.13028e-09
6.86867e-14
-3.39484e-13
1.13004e-09
-1.13e-09
1.21589e-12
-1.91815e-13
1.13397e-09
-1.13392e-09
-9.25926e-13
3.34131e-13
1.12617e-09
-1.12613e-09
-9.63844e-13
9.25047e-13
1.12848e-09
-1.12841e-09
5.04625e-11
-1.24949e-12
7.48182e-10
3.36e-11
4.30749e-11
-3.45574e-11
-4.21184e-11
5.67393e-11
-5.06887e-11
-5.62633e-11
-7.48145e-10
1.88345e-11
4.707e-11
-1.54411e-11
-2.75466e-14
-2.46932e-13
1.13508e-09
-1.1351e-09
-4.32373e-14
-2.31743e-13
1.13564e-09
-1.13566e-09
-4.89743e-14
-2.60004e-13
1.13629e-09
-1.1363e-09
-4.95947e-14
-2.01615e-13
1.13572e-09
-1.13573e-09
-3.50923e-14
-2.54527e-13
1.13346e-09
-1.13346e-09
5.09196e-14
-1.55623e-13
1.1298e-09
-1.12978e-09
-2.14037e-13
-9.65387e-14
1.12544e-09
-1.12542e-09
-3.19599e-13
-1.14219e-13
1.12039e-09
-1.12036e-09
-3.38659e-13
3.1526e-13
1.12016e-09
-1.12012e-09
1.75895e-12
-1.22163e-12
1.1267e-09
-1.12666e-09
5.29289e-11
1.68911e-12
9.05863e-10
4.52065e-11
-5.30978e-11
-4.62563e-11
-9.05822e-10
-6.89656e-12
1.02757e-11
4.18706e-13
8.95062e-11
-4.03749e-11
4.2077e-14
-2.69361e-13
1.13675e-09
-1.13678e-09
8.99631e-14
-2.5711e-13
1.13672e-09
-1.13675e-09
1.07258e-13
-2.57984e-13
1.13662e-09
-1.13664e-09
1.36602e-13
-2.19006e-13
1.13572e-09
-1.13573e-09
1.05283e-13
-2.14917e-13
1.13375e-09
-1.13376e-09
1.02741e-13
-1.54161e-13
1.13093e-09
-1.13092e-09
1.23208e-13
-1.24744e-13
1.12749e-09
-1.12748e-09
1.11086e-13
-1.26044e-13
1.12337e-09
-1.12335e-09
1.89023e-13
2.08469e-13
1.12076e-09
-1.12073e-09
-1.00374e-12
-7.40792e-14
1.13432e-09
-1.13427e-09
3.76602e-13
2.58398e-13
1.14038e-09
-1.14033e-09
6.27407e-11
-1.57065e-12
7.81391e-10
4.36379e-11
5.82772e-11
-4.4297e-11
-5.713e-11
5.83819e-11
-6.18263e-11
-5.78809e-11
-7.81347e-10
5.78671e-12
1.08282e-11
-4.51843e-12
1.07052e-10
-5.64073e-11
1.47829e-14
-2.37647e-13
1.13806e-09
-1.13811e-09
3.60862e-14
-2.29285e-13
1.1378e-09
-1.13785e-09
5.57938e-14
-2.32161e-13
1.13738e-09
-1.13743e-09
7.8596e-14
-2.04929e-13
1.13637e-09
-1.13641e-09
9.39118e-14
-2.00962e-13
1.13466e-09
-1.13469e-09
1.18944e-13
-1.62985e-13
1.13253e-09
-1.13254e-09
1.21658e-13
-1.22594e-13
1.13016e-09
-1.13017e-09
9.5646e-14
-1.06183e-13
1.12765e-09
-1.12765e-09
3.36265e-13
-5.63098e-14
1.12562e-09
-1.12559e-09
1.26592e-13
9.9661e-14
1.13022e-09
-1.13019e-09
1.25709e-12
-9.1504e-13
1.1408e-09
-1.14076e-09
5.88737e-11
8.4925e-13
9.07617e-10
4.69054e-11
-5.8877e-11
-4.81064e-11
-9.07574e-10
5.61935e-12
1.27652e-11
-6.92628e-12
8.9746e-11
-4.23302e-11
-2.94869e-12
-4.91805e-12
2.67079e-11
-1.88411e-11
3.74999e-14
-2.18307e-13
1.13918e-09
-1.13924e-09
7.93094e-14
-2.1228e-13
1.13885e-09
-1.13891e-09
1.09049e-13
-2.06821e-13
1.13831e-09
-1.13837e-09
1.39417e-13
-1.8839e-13
1.13729e-09
-1.13733e-09
1.47666e-13
-1.69943e-13
1.13591e-09
-1.13595e-09
1.60595e-13
-1.49909e-13
1.13432e-09
-1.13435e-09
1.51294e-13
-9.83077e-14
1.13257e-09
-1.13259e-09
1.52446e-13
-1.08789e-13
1.13098e-09
-1.13098e-09
5.53301e-14
2.56874e-14
1.12988e-09
-1.12987e-09
1.53831e-13
-3.09082e-14
1.13037e-09
-1.13034e-09
-8.94582e-13
9.54088e-14
1.14419e-09
-1.14415e-09
2.42115e-13
-3.41826e-13
1.13621e-09
-1.13616e-09
6.15476e-11
-8.4817e-13
7.56536e-10
4.46074e-11
6.49618e-11
-4.51798e-11
-6.45141e-11
5.787e-11
-6.08094e-11
-5.74325e-11
-7.56498e-10
1.13757e-11
7.9878e-12
-8.45203e-12
1.19474e-10
-6.88378e-11
3.18443e-14
-1.78403e-13
1.14028e-09
-1.14036e-09
6.9683e-14
-1.75115e-13
1.13996e-09
-1.14003e-09
1.04603e-13
-1.70693e-13
1.13935e-09
-1.13942e-09
1.39607e-13
-1.61769e-13
1.13839e-09
-1.13845e-09
1.66844e-13
-1.43387e-13
1.13724e-09
-1.1373e-09
1.9808e-13
-1.42447e-13
1.13592e-09
-1.13596e-09
2.12469e-13
-8.38006e-14
1.13467e-09
-1.1347e-09
2.51599e-13
-1.40699e-13
1.13377e-09
-1.13378e-09
2.39225e-13
4.02673e-14
1.13349e-09
-1.13349e-09
4.89317e-13
-3.11e-13
1.13371e-09
-1.13368e-09
6.14468e-14
4.93664e-13
1.13949e-09
-1.13946e-09
1.2984e-12
-1.62992e-12
1.15028e-09
-1.15023e-09
5.49784e-11
1.9485e-12
9.27738e-10
4.65092e-11
-5.51484e-11
-4.7877e-11
-9.27698e-10
5.89164e-12
1.01005e-11
-6.95696e-12
8.92103e-11
-4.32665e-11
4.08202e-14
-1.39676e-13
1.14139e-09
-1.14147e-09
8.52314e-14
-1.37425e-13
1.14106e-09
-1.14114e-09
1.24834e-13
-1.31945e-13
1.1404e-09
-1.14048e-09
1.59636e-13
-1.27354e-13
1.13956e-09
-1.13963e-09
1.86903e-13
-1.08462e-13
1.13845e-09
-1.13852e-09
2.02881e-13
-1.12959e-13
1.13729e-09
-1.13734e-09
2.16681e-13
-6.09532e-14
1.13637e-09
-1.13641e-09
1.98658e-13
-1.1223e-13
1.13571e-09
-1.13572e-09
2.07813e-13
3.91121e-14
1.13569e-09
-1.1357e-09
7.34725e-14
-1.98038e-13
1.13626e-09
-1.13624e-09
2.69451e-13
2.72717e-13
1.1392e-09
-1.13918e-09
-8.1181e-13
-5.9821e-13
1.15729e-09
-1.15724e-09
3.43639e-13
7.38256e-13
1.16333e-09
-1.16327e-09
4.82212e-11
-8.98398e-13
7.92388e-10
4.43772e-11
5.77597e-11
-4.47957e-11
-5.65831e-11
4.25849e-11
-4.81239e-11
-4.22462e-11
-7.92341e-10
3.4338e-12
6.89986e-12
6.18971e-11
-2.40087e-11
4.07579e-14
-9.29408e-14
1.14252e-09
-1.14261e-09
8.58395e-14
-9.22423e-14
1.14212e-09
-1.14222e-09
1.29533e-13
-8.89399e-14
1.14144e-09
-1.14152e-09
1.68174e-13
-8.87743e-14
1.1405e-09
-1.14058e-09
2.04683e-13
-7.46578e-14
1.13937e-09
-1.13944e-09
2.30058e-13
-8.38617e-14
1.13831e-09
-1.13836e-09
2.55877e-13
-4.16326e-14
1.13737e-09
-1.13742e-09
2.56889e-13
-9.52463e-14
1.1366e-09
-1.13662e-09
2.7671e-13
3.48512e-14
1.13623e-09
-1.13625e-09
2.90284e-13
-2.2885e-13
1.13625e-09
-1.13623e-09
2.87992e-13
2.5422e-13
1.13706e-09
-1.13705e-09
2.17112e-13
-5.77676e-13
1.14513e-09
-1.14508e-09
3.02452e-13
6.04065e-13
1.17402e-09
-1.17397e-09
3.99825e-11
-4.40239e-14
1.00224e-09
5.73678e-11
-4.06563e-11
-5.73051e-11
-1.00218e-09
-7.68196e-12
-9.54354e-13
9.00324e-11
-4.14146e-11
4.43487e-14
-4.54763e-14
1.14363e-09
-1.14373e-09
9.07683e-14
-4.60996e-14
1.14312e-09
-1.14321e-09
1.36068e-13
-4.48613e-14
1.14222e-09
-1.14231e-09
1.73572e-13
-4.50663e-14
1.14111e-09
-1.14119e-09
2.11206e-13
-3.74056e-14
1.13996e-09
-1.14004e-09
2.27828e-13
-4.2052e-14
1.13885e-09
-1.13891e-09
2.55212e-13
-2.03257e-14
1.13779e-09
-1.13784e-09
2.32434e-13
-4.7116e-14
1.1367e-09
-1.13673e-09
2.63523e-13
1.88213e-14
1.13559e-09
-1.13561e-09
1.14469e-13
-9.41755e-14
1.13409e-09
-1.13408e-09
2.3532e-13
1.17507e-13
1.13197e-09
-1.13196e-09
-1.71618e-13
-2.20977e-13
1.13157e-09
-1.13152e-09
1.35901e-13
2.57591e-13
1.13313e-09
-1.13309e-09
6.59242e-11
-2.10283e-13
9.03696e-10
6.45948e-11
-6.58334e-11
-6.44376e-11
-9.03643e-10
4.36782e-12
1.30601e-11
-1.54506e-12
1.01539e-10
-5.14973e-11
4.33683e-14
1.14449e-09
-1.14459e-09
9.08859e-14
1.14365e-09
-1.14375e-09
1.376e-13
1.14254e-09
-1.14264e-09
1.76937e-13
1.14141e-09
-1.1415e-09
2.17923e-13
1.14029e-09
-1.14037e-09
2.37103e-13
1.13918e-09
-1.13924e-09
2.68444e-13
1.13805e-09
-1.1381e-09
2.47509e-13
1.13673e-09
-1.13676e-09
2.84814e-13
1.13504e-09
-1.13506e-09
1.78643e-13
1.13228e-09
-1.13227e-09
2.81127e-13
1.1278e-09
-1.12778e-09
1.20646e-14
1.12394e-09
-1.12389e-09
2.28359e-13
1.12171e-09
-1.12166e-09
6.27171e-11
9.00289e-10
6.19286e-11
-6.27364e-11
-6.19471e-11
-9.00233e-10
-9.36393e-13
1.44034e-11
1.07894e-12
9.60516e-11
-4.78802e-11
-4.15114e-11
-5.88961e-13
-1.43963e-11
5.64949e-11
-3.48689e-11
1.40925e-12
-2.03246e-12
-1.424e-11
4.9732e-11
-8.63663e-12
1.97077e-12
-8.46021e-12
1.51261e-11
2.06822e-13
-2.19696e-13
9.00651e-10
6.19341e-11
6.27775e-11
-6.19487e-11
-6.27963e-11
4.30915e-14
-1.28655e-13
9.04493e-10
6.46748e-11
6.59971e-11
-6.45163e-11
-6.59061e-11
9.01619e-13
-2.93223e-13
1.00277e-09
5.74133e-11
3.99945e-11
-5.73527e-11
-4.06681e-11
5.77592e-11
-3.40257e-13
7.92585e-10
4.25901e-11
4.82244e-11
-4.22501e-11
-4.81268e-11
4.43674e-11
-5.65772e-11
-4.47842e-11
-6.38721e-11
6.46678e-12
1.23838e-11
-1.34854e-11
1.16266e-10
-2.92535e-11
-2.56292e-12
-8.39502e-13
-9.681e-12
4.2337e-11
-2.72086e-13
1.72968e-14
1.122e-09
-6.15641e-13
1.75923e-13
1.13375e-09
-7.56394e-13
-1.89368e-13
1.17453e-09
-1.96613e-12
8.28329e-13
1.16362e-09
8.3902e-13
-1.29344e-12
9.27861e-10
4.65166e-11
5.49804e-11
-4.78863e-11
-5.51536e-11
6.49609e-11
-2.37602e-13
7.56607e-10
5.78736e-11
6.15508e-11
-5.74364e-11
-6.08115e-11
4.46014e-11
-6.45144e-11
-4.51762e-11
-5.23652e-11
1.63271e-11
1.40572e-11
-1.44598e-11
1.01402e-10
-3.52655e-11
-1.89284e-12
-3.099e-12
-1.13445e-11
5.16019e-11
2.19217e-13
-2.44368e-13
1.12415e-09
5.71294e-13
-2.12087e-13
1.13191e-09
5.97111e-13
-2.56203e-13
1.14549e-09
1.62777e-12
-2.43103e-13
1.15754e-09
3.36624e-13
-4.2991e-14
1.15041e-09
-8.52908e-13
9.11086e-13
1.13629e-09
1.5711e-12
-1.24856e-12
9.0764e-10
4.6912e-11
5.88748e-11
-4.81129e-11
-5.888e-11
5.82882e-11
-3.74628e-13
7.81381e-10
5.83859e-11
6.27428e-11
-5.78841e-11
-6.18277e-11
4.36592e-11
-5.71358e-11
-4.43142e-11
-7.20478e-11
1.14233e-11
5.95829e-12
-1.43541e-11
1.27309e-10
-1.37583e-11
2.67262e-12
-1.23911e-11
2.34768e-11
-1.27569e-13
-1.30865e-13
1.12792e-09
-2.81046e-13
-5.88268e-14
1.13214e-09
-2.98395e-13
-2.512e-13
1.13727e-09
-5.29852e-13
-2.59385e-14
1.13936e-09
-1.20881e-13
-4.77763e-13
1.13955e-09
8.95811e-13
-1.33025e-13
1.1442e-09
-2.79023e-13
-1.05451e-13
1.14073e-09
-1.70421e-12
1.01241e-12
1.14022e-09
1.24233e-12
-1.75487e-12
9.05382e-10
4.51807e-11
5.27808e-11
-4.62314e-11
-5.29512e-11
4.31197e-11
9.51316e-13
7.47428e-10
5.67236e-11
5.04499e-11
-5.62437e-11
-5.0674e-11
3.37208e-11
-4.21614e-11
-3.46728e-11
-1.21898e-11
1.05655e-11
4.47439e-11
8.88661e-14
-2.36406e-13
1.13235e-09
2.25123e-13
-2.14417e-13
1.13421e-09
1.91149e-13
-2.3186e-13
1.13637e-09
3.06128e-13
-1.64494e-13
1.13636e-09
1.31046e-14
-2.01369e-13
1.13371e-09
-1.24309e-13
-2.27905e-14
1.13034e-09
5.63042e-14
-3.12118e-13
1.13007e-09
1.20486e-12
-1.70897e-13
1.134e-09
-9.3553e-13
3.50401e-13
1.12621e-09
-9.66244e-13
9.3393e-13
1.12852e-09
5.04651e-11
-1.2458e-12
7.48212e-10
3.36014e-11
4.30761e-11
-3.45583e-11
-4.2121e-11
5.67422e-11
-5.06899e-11
-5.6265e-11
-1.54418e-11
1.88358e-11
4.7072e-11
-3.61133e-14
-2.06245e-13
1.13508e-09
-5.99957e-14
-1.90835e-13
1.13564e-09
-7.32645e-14
-2.09402e-13
1.13628e-09
-7.59362e-14
-1.60912e-13
1.13572e-09
-6.66283e-14
-2.09619e-13
1.13346e-09
2.56169e-14
-1.17643e-13
1.1298e-09
-2.41726e-13
-6.60437e-14
1.12546e-09
-3.41414e-13
-9.04254e-14
1.12041e-09
-3.55898e-13
3.364e-13
1.12018e-09
1.75244e-12
-1.2112e-12
1.12674e-09
5.29307e-11
1.69801e-12
9.05893e-10
4.52073e-11
-5.30996e-11
-4.62585e-11
-4.03773e-11
-6.89696e-12
1.02758e-11
4.18381e-13
8.95106e-11
3.60235e-14
-2.13085e-13
1.13672e-09
7.80473e-14
-2.0243e-13
1.13669e-09
8.97283e-14
-2.04235e-13
1.13661e-09
1.13547e-13
-1.70328e-13
1.1357e-09
7.8275e-14
-1.68232e-13
1.13375e-09
7.50152e-14
-1.16197e-13
1.13093e-09
9.70433e-14
-8.93859e-14
1.12749e-09
8.69953e-14
-1.00604e-13
1.12339e-09
1.67278e-13
2.35979e-13
1.12078e-09
-1.01621e-12
-6.20393e-14
1.13435e-09
3.71278e-13
2.72977e-13
1.14042e-09
6.27445e-11
-1.57337e-12
7.81423e-10
4.364e-11
5.8281e-11
-4.42974e-11
-5.71298e-11
5.8385e-11
-6.18279e-11
-5.78826e-11
-5.64091e-11
5.78565e-12
1.08296e-11
-4.51773e-12
1.07056e-10
6.9628e-15
-1.84806e-13
1.13802e-09
1.99583e-14
-1.77547e-13
1.13777e-09
3.32016e-14
-1.81503e-13
1.13735e-09
4.96344e-14
-1.57932e-13
1.13634e-09
6.17306e-14
-1.56763e-13
1.13464e-09
8.28862e-14
-1.23887e-13
1.13252e-09
8.55437e-14
-8.75927e-14
1.13016e-09
6.12168e-14
-7.82875e-14
1.12765e-09
3.08353e-13
-3.1881e-14
1.12564e-09
1.00167e-13
1.19482e-13
1.13024e-09
1.24653e-12
-9.05811e-13
1.14083e-09
5.88759e-11
8.46684e-13
9.07649e-10
4.69067e-11
-5.88795e-11
-4.81085e-11
-4.23311e-11
5.61904e-12
1.27657e-11
-6.92642e-12
8.97485e-11
-1.88419e-11
-2.94851e-12
-4.91848e-12
2.67089e-11
2.95706e-14
-1.70847e-13
1.13913e-09
6.29329e-14
-1.65632e-13
1.13881e-09
8.49307e-14
-1.61367e-13
1.13827e-09
1.0829e-13
-1.45925e-13
1.13725e-09
1.11791e-13
-1.29875e-13
1.13588e-09
1.21164e-13
-1.14284e-13
1.1343e-09
1.13165e-13
-6.66675e-14
1.13256e-09
1.1447e-13
-8.12021e-14
1.13099e-09
2.02768e-14
5.75917e-14
1.12989e-09
1.29104e-13
-1.81013e-14
1.1304e-09
-9.15811e-13
1.11346e-13
1.14422e-09
2.34662e-13
-3.45599e-13
1.13625e-09
6.15498e-11
-8.4519e-13
7.56564e-10
4.46089e-11
6.49644e-11
-4.51814e-11
-6.45162e-11
5.78718e-11
-6.08115e-11
-5.74345e-11
-6.88403e-11
1.13767e-11
7.98809e-12
-8.4525e-12
1.19479e-10
2.26048e-14
-1.37767e-13
1.14022e-09
5.08479e-14
-1.35267e-13
1.1399e-09
7.71567e-14
-1.31971e-13
1.1393e-09
1.04525e-13
-1.2519e-13
1.13834e-09
1.26386e-13
-1.08769e-13
1.1372e-09
1.53736e-13
-1.11341e-13
1.13589e-09
1.65951e-13
-5.53353e-14
1.13464e-09
2.07038e-13
-1.17101e-13
1.13376e-09
1.97954e-13
6.6483e-14
1.13349e-09
4.79143e-13
-3.14156e-13
1.13373e-09
4.01178e-14
5.23069e-13
1.13952e-09
1.28935e-12
-1.63656e-12
1.15032e-09
5.49792e-11
1.95933e-12
9.27767e-10
4.65093e-11
-5.51522e-11
-4.78802e-11
-4.32677e-11
5.89223e-12
1.00998e-11
-6.9585e-12
8.9213e-11
3.16126e-14
-1.08203e-13
1.14132e-09
6.58988e-14
-1.06797e-13
1.141e-09
9.62257e-14
-1.02081e-13
1.14034e-09
1.23024e-13
-9.86564e-14
1.13951e-09
1.44449e-13
-8.13563e-14
1.13841e-09
1.56381e-13
-8.84316e-14
1.13726e-09
1.68293e-13
-3.86873e-14
1.13634e-09
1.63878e-13
-9.47379e-14
1.13569e-09
1.62092e-13
6.3862e-14
1.13569e-09
2.35525e-14
-1.98316e-13
1.13628e-09
2.3955e-13
2.91982e-13
1.13921e-09
-8.32548e-13
-6.03817e-13
1.15733e-09
3.35749e-13
7.50555e-13
1.16337e-09
4.82231e-11
-9.04356e-13
7.92426e-10
4.438e-11
5.77644e-11
-4.4796e-11
-5.65821e-11
4.25869e-11
-4.81258e-11
-4.22478e-11
-2.40094e-11
3.43304e-12
6.90138e-12
6.18988e-11
3.08174e-14
-7.13493e-14
1.14244e-09
6.5307e-14
-7.10689e-14
1.14205e-09
9.95859e-14
-6.8288e-14
1.14137e-09
1.29483e-13
-6.873e-14
1.14044e-09
1.59529e-13
-5.55845e-14
1.13932e-09
1.79977e-13
-6.70061e-14
1.13827e-09
2.02825e-13
-2.57859e-14
1.13734e-09
2.12174e-13
-8.4658e-14
1.13658e-09
2.28663e-13
5.26861e-14
1.13623e-09
2.47843e-13
-2.31605e-13
1.13626e-09
2.5309e-13
2.74737e-13
1.13708e-09
1.86547e-13
-5.76714e-13
1.14517e-09
2.89938e-13
6.10419e-13
1.17405e-09
3.9984e-11
-4.58803e-14
1.00229e-09
5.73674e-11
-4.06577e-11
-5.7309e-11
-4.14158e-11
-7.68152e-12
-9.53934e-13
9.00355e-11
3.44017e-14
-3.53392e-14
1.14356e-09
7.00938e-14
-3.53243e-14
1.14304e-09
1.05708e-13
-3.42165e-14
1.14215e-09
1.34112e-13
-3.47701e-14
1.14104e-09
1.65103e-13
-2.76488e-14
1.13991e-09
1.76272e-13
-3.39723e-14
1.13881e-09
2.00604e-13
-1.29031e-14
1.13776e-09
1.89369e-13
-4.21855e-14
1.13667e-09
2.13289e-13
2.7482e-14
1.13559e-09
5.78906e-14
-9.53412e-14
1.13411e-09
2.10604e-13
1.23109e-13
1.13197e-09
-1.76787e-13
-2.23923e-13
1.13161e-09
1.27838e-13
2.6698e-13
1.13317e-09
6.59273e-11
-2.11139e-13
9.03739e-10
6.45977e-11
-6.58352e-11
-6.44394e-11
-5.14989e-11
4.36763e-12
1.30607e-11
-1.54437e-12
1.01542e-10
3.38972e-14
1.14441e-09
6.99073e-14
1.14358e-09
1.07045e-13
1.14247e-09
1.36663e-13
1.14135e-09
1.70355e-13
1.14023e-09
1.83927e-13
1.13913e-09
2.12262e-13
1.13801e-09
2.05317e-13
1.1367e-09
2.34105e-13
1.13504e-09
1.30056e-13
1.13229e-09
2.44914e-13
1.12781e-09
-1.61501e-14
1.12398e-09
2.1898e-13
1.12174e-09
6.27203e-11
9.00331e-10
6.19316e-11
-6.27383e-11
-6.19491e-11
-4.78815e-11
-9.36392e-13
1.44043e-11
1.07912e-12
9.60546e-11
-4.15125e-11
-5.88478e-13
-1.43964e-11
5.64964e-11
-3.48698e-11
1.40886e-12
-2.03187e-12
-1.42405e-11
4.97333e-11
-8.63678e-12
1.97085e-12
-8.46052e-12
1.51265e-11
2.1065e-13
-2.07032e-13
9.00686e-10
6.19338e-11
6.27775e-11
-6.19527e-11
-6.27998e-11
4.3867e-14
-1.13133e-13
9.04525e-10
6.46762e-11
6.59996e-11
-6.4519e-11
-6.59085e-11
9.04888e-13
-2.83957e-13
1.00281e-09
5.7414e-11
3.99957e-11
-5.73554e-11
-4.06691e-11
5.77623e-11
-3.34068e-13
7.92615e-10
4.25912e-11
4.82259e-11
-4.22514e-11
-4.8128e-11
4.4369e-11
-5.65774e-11
-4.47846e-11
-6.38747e-11
6.46698e-12
1.23846e-11
-1.34846e-11
1.1627e-10
-2.92548e-11
-2.56321e-12
-8.39512e-13
-9.68105e-12
4.23386e-11
-2.73233e-13
3.95438e-14
1.12202e-09
-6.25149e-13
2.20931e-13
1.13377e-09
-7.67537e-13
-1.68399e-13
1.17455e-09
-1.97642e-12
8.43367e-13
1.16366e-09
8.35995e-13
-1.28651e-12
9.27885e-10
4.65164e-11
5.49807e-11
-4.78891e-11
-5.51576e-11
6.49627e-11
-2.31164e-13
7.56631e-10
5.7874e-11
6.15515e-11
-5.74389e-11
-6.08138e-11
4.46023e-11
-6.45161e-11
-4.51774e-11
-5.23668e-11
1.63268e-11
1.40576e-11
-1.44598e-11
1.01405e-10
-3.52669e-11
-1.89299e-12
-3.09897e-12
-1.13448e-11
5.16036e-11
2.1978e-13
-2.17224e-13
1.12418e-09
5.72878e-13
-1.66147e-13
1.13195e-09
6.01729e-13
-2.30977e-13
1.14553e-09
1.63321e-12
-2.20585e-13
1.15757e-09
3.39991e-13
-2.6431e-14
1.15045e-09
-8.50866e-13
9.27427e-13
1.13633e-09
1.57368e-12
-1.24151e-12
9.07665e-10
4.69131e-11
5.88765e-11
-4.81145e-11
-5.88818e-11
5.82911e-11
-3.70649e-13
7.81406e-10
5.83879e-11
6.27455e-11
-5.78853e-11
-6.18287e-11
4.36611e-11
-5.71363e-11
-4.43152e-11
-7.20504e-11
1.14239e-11
5.95864e-12
-1.4354e-11
1.27313e-10
-1.37588e-11
2.67263e-12
-1.23913e-11
2.34775e-11
-1.38342e-13
-8.92815e-14
1.12792e-09
-2.93438e-13
-2.34332e-14
1.13215e-09
-3.16347e-13
-2.19541e-13
1.13728e-09
-5.5167e-13
1.20301e-15
1.13938e-09
-1.32751e-13
-4.65326e-13
1.13958e-09
8.8878e-13
-1.14625e-13
1.14422e-09
-2.92018e-13
-8.53909e-14
1.14075e-09
-1.71294e-12
1.02093e-12
1.14024e-09
1.2372e-12
-1.75092e-12
9.05404e-10
4.51816e-11
5.27823e-11
-4.6233e-11
-5.29527e-11
4.31186e-11
9.53806e-13
7.4745e-10
5.67256e-11
5.0452e-11
-5.62452e-11
-5.06752e-11
3.37211e-11
-4.21634e-11
-3.46739e-11
-1.21954e-11
1.05683e-11
4.47462e-11
9.14753e-14
-1.98215e-13
1.13236e-09
2.28088e-13
-1.76267e-13
1.13422e-09
1.92898e-13
-1.96141e-13
1.13638e-09
3.08226e-13
-1.30175e-13
1.13637e-09
3.80858e-15
-1.71206e-13
1.13373e-09
-1.40616e-13
4.38432e-15
1.13037e-09
4.55055e-14
-2.9144e-13
1.13009e-09
1.19621e-12
-1.55488e-13
1.13403e-09
-9.42933e-13
3.62426e-13
1.12623e-09
-9.62057e-13
9.40622e-13
1.12855e-09
5.04676e-11
-1.24222e-12
7.48234e-10
3.36032e-11
4.30788e-11
-3.4559e-11
-4.21213e-11
5.67446e-11
-5.06898e-11
-5.62653e-11
-1.54428e-11
1.88366e-11
4.70737e-11
-4.52212e-14
-1.55852e-13
1.13508e-09
-7.72623e-14
-1.41519e-13
1.13564e-09
-9.18964e-14
-1.84844e-13
1.13628e-09
-9.65166e-14
-1.29358e-13
1.13572e-09
-8.71266e-14
-1.78837e-13
1.13346e-09
9.71042e-15
-8.96644e-14
1.1298e-09
-2.64303e-13
-3.50016e-14
1.12548e-09
-3.57421e-13
-7.91831e-14
1.12042e-09
-3.68275e-13
3.51843e-13
1.1202e-09
1.7506e-12
-1.20408e-12
1.12677e-09
5.29326e-11
1.70539e-12
9.05915e-10
4.52086e-11
-5.31008e-11
-4.62601e-11
-4.03784e-11
-6.89721e-12
1.0276e-11
4.185e-13
8.95134e-11
3.49102e-14
-1.71295e-13
1.1367e-09
7.50067e-14
-1.62007e-13
1.13668e-09
7.83707e-14
-1.64436e-13
1.13658e-09
9.74605e-14
-1.34581e-13
1.13569e-09
5.66207e-14
-1.33355e-13
1.13374e-09
5.29507e-14
-8.7535e-14
1.13093e-09
7.8637e-14
-6.2988e-14
1.12749e-09
7.50683e-14
-8.28473e-14
1.1234e-09
1.50727e-13
2.57748e-13
1.1208e-09
-1.02515e-12
-5.31737e-14
1.13437e-09
3.6765e-13
2.84789e-13
1.14044e-09
6.27476e-11
-1.57649e-12
7.81445e-10
4.36419e-11
5.82841e-11
-4.42972e-11
-5.71296e-11
5.83871e-11
-6.18285e-11
-5.78837e-11
-5.64109e-11
5.78608e-12
1.08305e-11
-4.51737e-12
1.07059e-10
1.28293e-15
-1.43854e-13
1.13799e-09
7.94578e-15
-1.37942e-13
1.13774e-09
1.64475e-14
-1.44679e-13
1.13732e-09
2.78697e-14
-1.23161e-13
1.13632e-09
3.81101e-14
-1.2429e-13
1.13462e-09
5.56042e-14
-9.42261e-14
1.13251e-09
5.8224e-14
-6.10712e-14
1.13015e-09
2.75309e-14
-5.59047e-14
1.12766e-09
2.86763e-13
-1.89884e-14
1.12565e-09
7.83039e-14
1.35217e-13
1.13026e-09
1.23815e-12
-8.99429e-13
1.14086e-09
5.88773e-11
8.44781e-13
9.07672e-10
4.69077e-11
-5.88819e-11
-4.81105e-11
-4.2332e-11
5.61915e-12
1.27664e-11
-6.92646e-12
8.97508e-11
-1.88426e-11
-2.94856e-12
-4.91857e-12
2.67098e-11
2.40552e-14
-1.35865e-13
1.1391e-09
5.10407e-14
-1.31385e-13
1.13878e-09
6.71344e-14
-1.28053e-13
1.13824e-09
8.51838e-14
-1.14342e-13
1.13722e-09
8.48784e-14
-1.00042e-13
1.13586e-09
9.18621e-14
-8.69473e-14
1.13429e-09
8.4416e-14
-4.34564e-14
1.13255e-09
8.63024e-14
-5.99046e-14
1.13099e-09
-9.17836e-15
7.84785e-14
1.12989e-09
1.10345e-13
-8.57271e-15
1.13042e-09
-9.32483e-13
1.22778e-13
1.14424e-09
2.29215e-13
-3.48401e-13
1.13629e-09
6.15519e-11
-8.41753e-13
7.56586e-10
4.46097e-11
6.49662e-11
-4.51828e-11
-6.45182e-11
5.7873e-11
-6.08133e-11
-5.74368e-11
-6.88427e-11
1.13778e-11
7.98856e-12
-8.45314e-12
1.19482e-10
1.58466e-14
-1.08045e-13
1.14017e-09
3.68841e-14
-1.06109e-13
1.13985e-09
5.70887e-14
-1.0339e-13
1.13925e-09
7.91957e-14
-9.77822e-14
1.1383e-09
9.67525e-14
-8.28628e-14
1.13717e-09
1.21e-13
-8.78191e-14
1.13587e-09
1.30802e-13
-3.37743e-14
1.13463e-09
1.77465e-13
-1.02052e-13
1.13376e-09
1.66909e-13
8.8733e-14
1.13348e-09
4.63588e-13
-3.16218e-13
1.13374e-09
2.07718e-14
5.4513e-13
1.13954e-09
1.28281e-12
-1.64265e-12
1.15035e-09
5.49797e-11
1.96936e-12
9.27791e-10
4.65093e-11
-5.51562e-11
-4.78833e-11
-4.32686e-11
5.89263e-12
1.00994e-11
-6.95925e-12
8.92151e-11
2.50095e-14
-8.5371e-14
1.14127e-09
5.20394e-14
-8.41747e-14
1.14095e-09
7.57555e-14
-7.97218e-14
1.14029e-09
9.64991e-14
-7.70914e-14
1.13947e-09
1.13204e-13
-6.0929e-14
1.13837e-09
1.21421e-13
-6.99954e-14
1.13723e-09
1.32155e-13
-2.20901e-14
1.13632e-09
1.26627e-13
-8.36775e-14
1.13568e-09
1.2759e-13
8.40272e-14
1.1357e-09
-4.29076e-15
-1.99965e-13
1.1363e-09
2.16904e-13
3.10279e-13
1.13923e-09
-8.4784e-13
-6.09035e-13
1.15736e-09
3.28544e-13
7.61377e-13
1.1634e-09
4.82243e-11
-9.08095e-13
7.92456e-10
4.43818e-11
5.77677e-11
-4.47964e-11
-5.65819e-11
4.25877e-11
-4.81273e-11
-4.22493e-11
-2.40103e-11
3.43304e-12
6.90177e-12
6.19008e-11
2.39735e-14
-5.56328e-14
1.14239e-09
5.09501e-14
-5.53452e-14
1.142e-09
7.81269e-14
-5.29455e-14
1.14131e-09
1.01697e-13
-5.37245e-14
1.1404e-09
1.26457e-13
-4.13362e-14
1.13927e-09
1.42792e-13
-5.45492e-14
1.13824e-09
1.62873e-13
-1.39083e-14
1.13731e-09
1.82094e-13
-8.0568e-14
1.13656e-09
1.92346e-13
7.059e-14
1.13623e-09
2.15485e-13
-2.33973e-13
1.13627e-09
2.27508e-13
2.87705e-13
1.13709e-09
1.64324e-13
-5.78005e-13
1.14521e-09
2.79182e-13
6.20476e-13
1.17408e-09
3.99851e-11
-4.63071e-14
1.00233e-09
5.73672e-11
-4.06589e-11
-5.73123e-11
-4.14171e-11
-7.68271e-12
-9.52797e-13
9.0038e-11
2.76563e-14
-2.80659e-14
1.1435e-09
5.57171e-14
-2.72489e-14
1.14299e-09
8.41652e-14
-2.63246e-14
1.1421e-09
1.05759e-13
-2.70489e-14
1.141e-09
1.31168e-13
-2.05504e-14
1.13986e-09
1.36626e-13
-2.8094e-14
1.13878e-09
1.601e-13
-7.25108e-15
1.13773e-09
1.40432e-13
-4.02924e-14
1.13665e-09
1.75238e-13
3.74708e-14
1.13559e-09
2.26193e-14
-9.7286e-14
1.13413e-09
1.6374e-13
1.34594e-13
1.13199e-09
-2.22905e-13
-2.24058e-13
1.13164e-09
1.12006e-13
2.68749e-13
1.13319e-09
6.5929e-11
-2.13857e-13
9.03769e-10
6.45992e-11
-6.58374e-11
-6.44419e-11
-5.15002e-11
4.36768e-12
1.3061e-11
-1.54409e-12
1.01545e-10
2.81023e-14
1.14435e-09
5.53536e-14
1.14352e-09
8.5218e-14
1.14241e-09
1.07724e-13
1.1413e-09
1.35721e-13
1.14018e-09
1.43578e-13
1.1391e-09
1.7077e-13
1.13798e-09
1.54838e-13
1.13668e-09
1.96356e-13
1.13505e-09
8.85625e-14
1.13231e-09
2.17486e-13
1.12781e-09
-3.81253e-14
1.12401e-09
2.09111e-13
1.12176e-09
6.27221e-11
9.0036e-10
6.19334e-11
-6.27407e-11
-6.1951e-11
-4.78823e-11
-9.36885e-13
1.44049e-11
1.07984e-12
9.60567e-11
-4.15141e-11
-5.88342e-13
-1.43963e-11
5.64983e-11
-3.4871e-11
1.40859e-12
-2.03182e-12
-1.42406e-11
4.97349e-11
-8.63692e-12
1.97085e-12
-8.46069e-12
1.51268e-11
2.11108e-13
-2.02511e-13
9.00718e-10
6.19344e-11
6.27782e-11
-6.19542e-11
-6.28015e-11
4.57077e-14
-1.13242e-13
9.04555e-10
6.46776e-11
6.60008e-11
-6.45202e-11
-6.591e-11
9.09279e-13
-2.76967e-13
1.00284e-09
5.74139e-11
3.99965e-11
-5.73585e-11
-4.067e-11
5.77657e-11
-3.29567e-13
7.9264e-10
4.2592e-11
4.82271e-11
-4.22523e-11
-4.81289e-11
4.43711e-11
-5.65765e-11
-4.47844e-11
-6.38767e-11
6.46786e-12
1.23855e-11
-1.34844e-11
1.16274e-10
-2.92558e-11
-2.56336e-12
-8.39462e-13
-9.68144e-12
4.234e-11
-2.83821e-13
5.68588e-14
1.12204e-09
-6.25896e-13
1.96338e-13
1.1338e-09
-7.75667e-13
-1.50748e-13
1.17457e-09
-1.98399e-12
8.54597e-13
1.16368e-09
8.35227e-13
-1.28436e-12
9.27903e-10
4.65168e-11
5.49814e-11
-4.78908e-11
-5.51595e-11
6.49647e-11
-2.28562e-13
7.56648e-10
5.78756e-11
6.15528e-11
-5.74396e-11
-6.0815e-11
4.46037e-11
-6.45169e-11
-4.5178e-11
-5.23682e-11
1.63272e-11
1.4058e-11
-1.446e-11
1.01407e-10
-3.52679e-11
-1.89304e-12
-3.09893e-12
-1.1345e-11
5.16048e-11
2.2114e-13
-1.95593e-13
1.12421e-09
5.72215e-13
-1.78335e-13
1.13197e-09
6.06353e-13
-2.11138e-13
1.14555e-09
1.63884e-12
-2.03246e-13
1.1576e-09
3.41993e-13
-1.2444e-14
1.15048e-09
-8.50894e-13
9.39396e-13
1.13635e-09
1.57445e-12
-1.23823e-12
9.07683e-10
4.69147e-11
5.88786e-11
-4.81153e-11
-5.88824e-11
5.8293e-11
-3.67691e-13
7.8142e-10
5.83899e-11
6.2748e-11
-5.78859e-11
-6.18291e-11
4.36621e-11
-5.7137e-11
-4.43162e-11
-7.20521e-11
1.14248e-11
5.95854e-12
-1.43541e-11
1.27315e-10
-1.37591e-11
2.67277e-12
-1.23916e-11
2.34779e-11
-1.42661e-13
-5.5452e-14
1.12792e-09
-3.09419e-13
-5.89352e-15
1.13214e-09
-3.31476e-13
-1.95234e-13
1.13729e-09
-5.68294e-13
2.26092e-14
1.13939e-09
-1.41795e-13
-4.54944e-13
1.13959e-09
8.83168e-13
-1.02063e-13
1.14424e-09
-3.0404e-13
-6.90635e-14
1.14077e-09
-1.72078e-12
1.02736e-12
1.14026e-09
1.23266e-12
-1.74684e-12
9.0542e-10
4.51821e-11
5.27832e-11
-4.62348e-11
-5.29542e-11
4.31201e-11
9.56309e-13
7.47465e-10
5.67266e-11
5.0453e-11
-5.62466e-11
-5.06765e-11
3.37218e-11
-4.2164e-11
-3.46749e-11
-1.21943e-11
1.05683e-11
4.47467e-11
9.61269e-14
-1.70231e-13
1.13238e-09
2.29837e-13
-1.48052e-13
1.13423e-09
1.94736e-13
-1.70172e-13
1.13639e-09
3.09982e-13
-1.05044e-13
1.13638e-09
-5.32756e-15
-1.49166e-13
1.13373e-09
-1.54749e-13
3.30975e-14
1.13038e-09
3.51975e-14
-2.75322e-13
1.1301e-09
1.18888e-12
-1.44679e-13
1.13404e-09
-9.49371e-13
3.72361e-13
1.12625e-09
-9.62976e-13
9.4625e-13
1.12858e-09
5.04689e-11
-1.23882e-12
7.48252e-10
3.36037e-11
4.30795e-11
-3.45604e-11
-4.21224e-11
5.67461e-11
-5.06905e-11
-5.62666e-11
-1.54427e-11
1.8837e-11
4.70744e-11
-5.18283e-14
-1.18281e-13
1.13507e-09
-9.11142e-14
-1.04566e-13
1.13564e-09
-1.08949e-13
-1.53477e-13
1.13628e-09
-1.17857e-13
-9.80888e-14
1.13573e-09
-1.0217e-13
-1.70964e-13
1.13347e-09
-3.86595e-15
-6.96348e-14
1.1298e-09
-2.80378e-13
-6.73186e-15
1.12549e-09
-3.7003e-13
-6.75453e-14
1.12044e-09
-3.78437e-13
3.64472e-13
1.12022e-09
1.74644e-12
-1.1981e-12
1.12679e-09
5.29338e-11
1.71178e-12
9.05931e-10
4.52089e-11
-5.31022e-11
-4.6262e-11
-4.03784e-11
-6.89786e-12
1.02766e-11
4.19018e-13
8.95143e-11
3.51241e-14
-1.41213e-13
1.13668e-09