/*--------------------------------*- C++ -*----------------------------------*\
| =========                 |                                                 |
| \\      /  F ield         | OpenFOAM: The Open Source CFD Toolbox           |
|  \\    /   O peration     | Version:  2.1.1                                 |
|   \\  /    A nd           | Web:      www.OpenFOAM.org                      |
|    \\/     M anipulation  |                                                 |
\*---------------------------------------------------------------------------*/
FoamFile
{
    version     2.0;
    format      ascii;
    class       volVectorField;
    location    "0.001";
    object      U;
}
// * * * * * * * * * * * * * * * * * * * * * * * * * * * * * * * * * * * * * //

dimensions      [0 1 -1 0 0 0 0];

internalField   nonuniform List<vector> 
10266
(
(-5.98392e-07 -0.00500678 0.0216764)
(-0.000707522 -0.00470649 0.0196917)
(-0.00151405 -0.00127748 0.0103436)
(-3.69726e-05 -0.000254041 0.0910926)
(9.54985e-05 -0.000265209 0.0915073)
(-0.000116236 -0.000164124 0.0964593)
(0.000353002 -0.000485724 0.0782155)
(0.00142292 -0.00588823 0.0289295)
(0.000483628 -0.00325683 0.017997)
(-9.33453e-06 0.000177467 0.112443)
(-5.44888e-05 0.000211771 0.112681)
(-3.88961e-05 8.85445e-05 0.114928)
(-0.00014682 0.000368693 0.11349)
(-0.000191683 -0.000270998 0.0911478)
(0.000397719 -0.000333103 0.075465)
(0.0018407 -0.00884447 0.0306571)
(-0.000446871 -0.00454123 0.0192465)
(-6.29967e-06 -0.000154918 0.111824)
(5.97317e-05 -0.000149841 0.112031)
(3.3014e-05 -0.000109432 0.112579)
(0.000114811 -0.000135911 0.113564)
(0.000161058 4.82122e-05 0.113411)
(-0.000101019 0.000261092 0.112582)
(-4.43163e-05 -0.000367264 0.0901321)
(0.000402025 -0.000397354 0.0771238)
(0.000593022 -0.00603089 0.031237)
(-0.00186304 -0.00425745 0.014863)
(-6.91398e-06 6.21063e-05 0.111701)
(-1.62392e-05 6.70822e-05 0.111842)
(-2.72705e-05 2.18247e-05 0.111999)
(-2.87432e-05 4.74609e-05 0.112121)
(-6.22463e-05 -6.44e-05 0.112394)
(5.28677e-05 -4.20372e-05 0.113183)
(9.50557e-05 8.06042e-05 0.113005)
(-0.000137584 0.000290415 0.112759)
(-0.000237741 -0.000344726 0.0911581)
(0.000581803 -0.000457378 0.0732629)
(-0.0117086 0.00236323 0.0162991)
(-2.38292e-07 -8.49541e-05 0.111859)
(2.2618e-05 -8.01348e-05 0.111926)
(1.8837e-05 -6.75868e-05 0.112)
(3.05982e-05 -5.62228e-05 0.111988)
(2.58984e-05 -4.03397e-05 0.11189)
(-1.61903e-05 -2.70981e-06 0.111809)
(3.75881e-06 -9.1953e-05 0.112049)
(7.17028e-06 -4.44084e-05 0.112783)
(0.000283417 4.76942e-05 0.11299)
(-0.000547077 0.00054737 0.113071)
(0.00045551 -0.000581669 0.0732999)
(-0.00863855 0.00414898 0.0188047)
(-2.54602e-06 -4.20416e-06 0.111971)
(-1.98024e-07 -3.18041e-06 0.111993)
(-3.96319e-06 -1.58294e-05 0.112014)
(4.31043e-07 -9.59218e-06 0.111993)
(-4.41349e-06 -2.76617e-05 0.111906)
(4.32615e-06 -1.79925e-05 0.111764)
(1.01409e-05 7.3963e-08 0.111602)
(-4.28555e-05 -8.62427e-06 0.111462)
(-1.0308e-05 9.8535e-06 0.111958)
(-4.83513e-05 -0.000284067 0.113001)
(0.000344927 0.000236695 0.0911566)
(-0.000609536 -0.00139133 0.0267275)
(9.32953e-07 -5.61958e-05 0.112034)
(1.13515e-05 -5.35224e-05 0.112036)
(1.26306e-05 -4.99925e-05 0.11203)
(1.8648e-05 -4.22752e-05 0.111998)
(1.81209e-05 -3.72833e-05 0.111928)
(1.40068e-05 -2.49354e-05 0.111826)
(1.5771e-05 -2.27963e-05 0.111698)
(1.96188e-05 -2.00387e-05 0.111524)
(8.11141e-06 4.23403e-05 0.111469)
(4.4133e-05 -7.75681e-06 0.112795)
(-0.000291133 0.000137412 0.112766)
(0.000397031 -0.000402326 0.0771257)
(0.00140282 -0.00215437 0.029562)
(2.16627e-07 -2.80453e-05 0.112089)
(5.91011e-06 -2.71487e-05 0.112082)
(7.22211e-06 -2.91422e-05 0.112064)
(1.30605e-05 -2.5862e-05 0.112026)
(1.28299e-05 -2.72678e-05 0.111965)
(1.87983e-05 -2.2608e-05 0.111887)
(1.58768e-05 -1.64053e-05 0.111799)
(2.22711e-05 -1.62546e-05 0.111701)
(-6.97925e-07 -1.08436e-05 0.111609)
(9.16237e-05 -4.16654e-06 0.112055)
(-8.1034e-05 -9.59089e-05 0.113009)
(0.000367089 4.40902e-05 0.090132)
(0.000434423 -0.00449495 0.0263876)
(0.000435363 -0.00253781 0.016692)
(1.84368e-06 -4.28059e-05 0.112134)
(1.02779e-05 -4.12839e-05 0.112123)
(1.39301e-05 -3.92272e-05 0.112102)
(2.048e-05 -3.49447e-05 0.112064)
(2.13237e-05 -3.10742e-05 0.112013)
(2.48009e-05 -2.53552e-05 0.111952)
(2.21227e-05 -1.94944e-05 0.111888)
(2.43402e-05 -1.45843e-05 0.111828)
(1.75473e-05 -5.01653e-06 0.111767)
(2.32248e-06 1.56126e-05 0.111811)
(4.13736e-05 -5.36586e-05 0.113184)
(-0.000261707 0.000100231 0.11258)
(0.000332609 -0.000398281 0.0754625)
(0.00157186 -0.00268898 0.0314102)
(1.74132e-06 -2.84113e-05 0.11218)
(9.47674e-06 -2.78309e-05 0.112168)
(1.35525e-05 -2.73235e-05 0.112144)
(2.12013e-05 -2.55892e-05 0.112109)
(2.24201e-05 -2.31228e-05 0.112064)
(3.03771e-05 -2.18463e-05 0.112014)
(2.67117e-05 -1.35947e-05 0.111966)
(3.67609e-05 -1.86876e-05 0.111928)
(2.7033e-05 3.65454e-06 0.111906)
(3.99097e-05 -2.67206e-05 0.11189)
(6.37573e-05 6.17111e-05 0.112392)
(-4.87223e-05 -0.000161721 0.113407)
(0.00027032 0.000191429 0.0911439)
(-0.000174688 -0.00435127 0.0265149)
(2.43125e-06 -2.94327e-05 0.112223)
(1.13617e-05 -2.86662e-05 0.11221)
(1.61663e-05 -2.72061e-05 0.112186)
(2.46684e-05 -2.55002e-05 0.112151)
(2.50666e-05 -2.20976e-05 0.11211)
(3.43264e-05 -2.12786e-05 0.112065)
(2.53293e-05 -1.39785e-05 0.112026)
(4.16819e-05 -1.94274e-05 0.111997)
(8.89115e-06 -1.44071e-06 0.111991)
(5.60561e-05 -3.15139e-05 0.111985)
(-4.79403e-05 2.79274e-05 0.112116)
(0.000135456 -0.000115609 0.113556)
(-0.00036932 0.000146198 0.113481)
(0.000485429 -0.000353178 0.0782074)
(-0.00660221 -0.0023136 0.0220239)
(2.43799e-06 -1.86224e-05 0.112266)
(1.17019e-05 -1.82659e-05 0.112251)
(1.67206e-05 -1.74652e-05 0.112224)
(2.63102e-05 -1.68415e-05 0.112188)
(2.6652e-05 -1.4328e-05 0.112145)
(3.85051e-05 -1.46811e-05 0.112102)
(2.86032e-05 -8.01946e-06 0.112063)
(4.93752e-05 -1.34013e-05 0.112029)
(1.5064e-05 3.17708e-06 0.112012)
(6.7344e-05 -1.95669e-05 0.111996)
(-2.23344e-05 2.66002e-05 0.111993)
(0.000109135 -3.35836e-05 0.112568)
(-8.86445e-05 3.83906e-05 0.114912)
(0.000164005 0.00011618 0.0964457)
(-0.00671901 0.00300412 0.0247558)
(2.76758e-06 -1.37883e-05 0.112305)
(1.2518e-05 -1.3489e-05 0.112286)
(1.75919e-05 -1.27916e-05 0.112253)
(2.78027e-05 -1.24627e-05 0.112212)
(2.72289e-05 -1.0665e-05 0.112168)
(4.06413e-05 -1.13001e-05 0.112123)
(2.65949e-05 -6.97085e-06 0.112081)
(5.29378e-05 -1.22991e-05 0.112035)
(2.52054e-06 -7.31591e-07 0.111991)
(8.00836e-05 -2.35871e-05 0.111922)
(-6.73864e-05 1.53207e-05 0.111835)
(0.000149559 -6.04838e-05 0.11202)
(-0.000211984 5.37701e-05 0.112663)
(0.000264861 -9.61876e-05 0.0914918)
(0.00151884 -0.00109782 0.0319145)
(2.50792e-06 -3.43511e-06 0.112331)
(1.26983e-05 -3.48051e-06 0.112306)
(1.77461e-05 -3.37062e-06 0.112267)
(2.84353e-05 -3.21253e-06 0.112224)
(2.78168e-05 -2.65814e-06 0.11218)
(4.22097e-05 -2.63798e-06 0.112134)
(2.75798e-05 -1.11941e-06 0.112089)
(5.57081e-05 -1.73433e-06 0.112034)
(3.41455e-06 1.62477e-06 0.111969)
(8.47262e-05 -5.90902e-07 0.111856)
(-6.23917e-05 5.94899e-06 0.111697)
(0.000154828 5.49484e-06 0.111819)
(-0.000177758 8.53881e-06 0.112434)
(0.000253387 3.59809e-05 0.0910856)
(0.00148232 0.000149898 0.0290978)
(-4.93785e-07 -0.00500685 0.0216766)
(-0.000707434 -0.0047065 0.0196922)
(-0.00151408 -0.00127739 0.010344)
(-3.65573e-05 -0.000252477 0.0910974)
(9.57748e-05 -0.000264419 0.0915123)
(-0.000116048 -0.000163094 0.0964647)
(0.000353711 -0.000485274 0.0782199)
(0.00142319 -0.00588806 0.0289305)
(0.000483888 -0.00325697 0.0179976)
(-1.01891e-05 0.000179204 0.112447)
(-5.50436e-05 0.000213553 0.112685)
(-3.99677e-05 8.96182e-05 0.114933)
(-0.00014863 0.00037008 0.113495)
(-0.0001925 -0.000270102 0.0911514)
(0.000397389 -0.000332995 0.0754684)
(0.00184061 -0.00884434 0.0306581)
(-0.000446742 -0.00454126 0.019247)
(-5.86736e-06 -0.000149793 0.111829)
(5.96132e-05 -0.000144423 0.112036)
(3.30057e-05 -0.000105521 0.112584)
(0.000115424 -0.000131771 0.113569)
(0.000161072 5.00976e-05 0.113416)
(-0.000100897 0.000263495 0.112587)
(-4.43637e-05 -0.000366364 0.0901359)
(0.000402674 -0.000397182 0.0771276)
(0.000593428 -0.00603119 0.0312381)
(-0.00186328 -0.00425754 0.0148632)
(-7.45154e-06 6.7297e-05 0.111703)
(-1.80369e-05 7.16937e-05 0.111843)
(-2.96385e-05 2.6975e-05 0.112002)
(-3.25914e-05 5.14336e-05 0.112123)
(-6.4802e-05 -6.00803e-05 0.112397)
(5.2311e-05 -3.92349e-05 0.113187)
(9.32979e-05 8.22877e-05 0.11301)
(-0.000138963 0.000291797 0.112763)
(-0.00023876 -0.000344596 0.0911619)
(0.000582022 -0.000457838 0.0732663)
(-0.011709 0.00236296 0.0163005)
(-3.4267e-07 -8.11839e-05 0.11186)
(2.24827e-05 -7.61769e-05 0.111928)
(1.82285e-05 -6.35136e-05 0.112002)
(3.03837e-05 -5.19714e-05 0.11199)
(2.4674e-05 -3.53548e-05 0.111893)
(-1.87143e-05 1.37205e-06 0.111812)
(2.21468e-06 -8.95177e-05 0.112053)
(6.01951e-06 -4.23653e-05 0.112788)
(0.000281605 4.89236e-05 0.112995)
(-0.000547804 0.00054796 0.113077)
(0.000455824 -0.00058168 0.0733032)
(-0.00863889 0.00414928 0.0188056)
(-2.96698e-06 6.24826e-06 0.11197)
(-1.7369e-06 6.93805e-06 0.111993)
(-6.07435e-06 -6.77944e-06 0.112013)
(-2.49443e-06 -1.17687e-06 0.111993)
(-7.12378e-06 -2.14409e-05 0.111906)
(1.20489e-06 -1.219e-05 0.111766)
(6.32631e-06 4.84802e-06 0.111605)
(-4.54784e-05 -5.14828e-06 0.111465)
(-1.28852e-05 1.22737e-05 0.111962)
(-4.96099e-05 -0.000282395 0.113005)
(0.000344634 0.000237583 0.0911604)
(-0.000609736 -0.00139145 0.0267293)
(4.89312e-07 -4.82081e-05 0.112032)
(9.83043e-06 -4.57594e-05 0.112034)
(1.03334e-05 -4.24017e-05 0.112029)
(1.56099e-05 -3.54145e-05 0.111997)
(1.42925e-05 -3.071e-05 0.111927)
(1.00423e-05 -1.99978e-05 0.111826)
(1.18954e-05 -1.80333e-05 0.111699)
(1.61081e-05 -1.6652e-05 0.111526)
(4.48942e-06 4.49293e-05 0.111472)
(4.20255e-05 -6.63857e-06 0.1128)
(-0.000292478 0.000138764 0.112771)
(0.00039698 -0.000402802 0.0771296)
(0.00140327 -0.00215401 0.0295629)
(-4.02127e-07 -1.96483e-05 0.112084)
(3.96864e-06 -1.89646e-05 0.112077)
(4.20749e-06 -2.12075e-05 0.11206)
(9.12529e-06 -1.86002e-05 0.112023)
(8.20308e-06 -2.0563e-05 0.111963)
(1.38773e-05 -1.67018e-05 0.111886)
(1.05194e-05 -1.12537e-05 0.111799)
(1.74732e-05 -1.24684e-05 0.111702)
(-5.55069e-06 -7.15822e-06 0.111612)
(8.91231e-05 -2.63353e-06 0.112059)
(-8.27374e-05 -9.42175e-05 0.113013)
(0.0003663 4.41097e-05 0.0901359)
(0.000434602 -0.00449495 0.0263881)
(0.00043533 -0.00253806 0.0166926)
(1.18469e-06 -3.53417e-05 0.112128)
(8.29497e-06 -3.39537e-05 0.112118)
(1.07124e-05 -3.21032e-05 0.112096)
(1.62169e-05 -2.83047e-05 0.11206)
(1.61454e-05 -2.48855e-05 0.11201)
(1.92817e-05 -1.99461e-05 0.11195)
(1.61269e-05 -1.47126e-05 0.111887)
(1.93552e-05 -1.05776e-05 0.111829)
(1.16775e-05 -2.03776e-06 0.111769)
(-1.77909e-06 1.81585e-05 0.111815)
(3.85204e-05 -5.32135e-05 0.113187)
(-0.000264014 0.000100012 0.112585)
(0.000332717 -0.000398195 0.075466)
(0.00157175 -0.00268906 0.0314113)
(9.61445e-07 -2.1397e-05 0.112172)
(7.19508e-06 -2.09412e-05 0.11216)
(9.84885e-06 -2.06889e-05 0.112137)
(1.63335e-05 -1.94175e-05 0.112103)
(1.65647e-05 -1.73829e-05 0.112059)
(2.40489e-05 -1.67537e-05 0.11201)
(1.99525e-05 -9.06782e-06 0.111963)
(3.01491e-05 -1.48531e-05 0.111928)
(2.07148e-05 6.24379e-06 0.111907)
(3.4895e-05 -2.55429e-05 0.111893)
(5.93026e-05 6.41595e-05 0.112395)
(-5.06559e-05 -0.000161845 0.113412)
(0.000269685 0.000192047 0.0911475)
(-0.000175271 -0.00435173 0.0265156)
(1.64578e-06 -2.38313e-05 0.112214)
(8.99925e-06 -2.31993e-05 0.112201)
(1.22313e-05 -2.19087e-05 0.112178)
(1.95108e-05 -2.04833e-05 0.112144)
(1.88086e-05 -1.7408e-05 0.112103)
(2.75914e-05 -1.70942e-05 0.112061)
(1.80694e-05 -1.01849e-05 0.112023)
(3.47525e-05 -1.63969e-05 0.111996)
(3.56261e-07 1.33268e-06 0.111991)
(5.18013e-05 -3.14319e-05 0.111988)
(-5.20198e-05 3.16133e-05 0.112118)
(0.000131261 -0.000116351 0.113561)
(-0.00037079 0.000147833 0.113485)
(0.000484691 -0.000354263 0.0782117)
(-0.00660232 -0.00231302 0.0220243)
(1.62476e-06 -1.4293e-05 0.112256)
(9.11601e-06 -1.40565e-05 0.112242)
(1.25668e-05 -1.33968e-05 0.112215)
(2.0834e-05 -1.29664e-05 0.112179)
(1.99635e-05 -1.07155e-05 0.112138)
(3.12784e-05 -1.14693e-05 0.112096)
(2.0685e-05 -5.08277e-06 0.112059)
(4.17353e-05 -1.1263e-05 0.112028)
(5.792e-06 5.27074e-06 0.112011)
(6.32314e-05 -1.90615e-05 0.111998)
(-2.76088e-05 2.89784e-05 0.111995)
(0.000105174 -3.36126e-05 0.112573)
(-8.98138e-05 3.94614e-05 0.114917)
(0.000162364 0.000115985 0.096451)
(-0.00671884 0.00300424 0.0247565)
(1.92739e-06 -1.12498e-05 0.112295)
(9.8942e-06 -1.09725e-05 0.112275)
(1.33219e-05 -1.03594e-05 0.112243)
(2.21889e-05 -1.01218e-05 0.112203)
(2.0307e-05 -8.44513e-06 0.11216)
(3.32287e-05 -9.39354e-06 0.112118)
(1.82596e-05 -5.16699e-06 0.112076)
(4.51662e-05 -1.10628e-05 0.112032)
(-7.66127e-06 7.362e-07 0.111991)
(7.61501e-05 -2.35454e-05 0.111924)
(-7.20391e-05 1.70725e-05 0.111837)
(0.00014409 -6.02336e-05 0.112025)
(-0.000213685 5.45035e-05 0.112667)
(0.000264296 -9.62378e-05 0.0914969)
(0.00151929 -0.00109761 0.0319154)
(1.82124e-06 -2.72554e-06 0.11232)
(1.0006e-05 -2.61504e-06 0.112295)
(1.34168e-05 -2.50491e-06 0.112257)
(2.2747e-05 -2.4134e-06 0.112215)
(2.06936e-05 -1.8804e-06 0.112172)
(3.45665e-05 -1.99127e-06 0.112128)
(1.89907e-05 -5.40088e-07 0.112084)
(4.77375e-05 -1.31109e-06 0.112031)
(-7.06865e-06 1.99592e-06 0.111969)
(8.09406e-05 -4.25096e-07 0.111858)
(-6.74821e-05 6.43028e-06 0.111699)
(0.000149896 5.2411e-06 0.111824)
(-0.000179247 9.59815e-06 0.112438)
(0.000252271 3.5783e-05 0.0910909)
(0.00148286 0.000149741 0.0290986)
(-2.82608e-07 -0.0050068 0.0216772)
(-0.000707174 -0.00470652 0.0196927)
(-0.00151422 -0.00127732 0.0103442)
(-3.61075e-05 -0.000250744 0.0911014)
(9.6031e-05 -0.000263386 0.0915163)
(-0.000116039 -0.000161867 0.0964689)
(0.00035436 -0.000484663 0.0782233)
(0.00142324 -0.00588824 0.0289317)
(0.000484054 -0.00325712 0.0179984)
(-1.07449e-05 0.000180536 0.11245)
(-5.54824e-05 0.000214672 0.112688)
(-4.10664e-05 9.03523e-05 0.114936)
(-0.000150201 0.000371166 0.113499)
(-0.000193112 -0.000269368 0.0911543)
(0.000397286 -0.000332856 0.0754712)
(0.00184063 -0.00884428 0.030659)
(-0.000446728 -0.00454128 0.0192477)
(-5.63765e-06 -0.000145695 0.111833)
(5.94491e-05 -0.000140726 0.11204)
(3.30806e-05 -0.000102628 0.112588)
(0.000116012 -0.000128639 0.113573)
(0.000161159 5.14641e-05 0.11342)
(-0.000100737 0.000265234 0.112591)
(-4.43939e-05 -0.00036583 0.090139)
(0.000403131 -0.000397146 0.0771306)
(0.000593473 -0.00603135 0.0312391)
(-0.00186328 -0.00425764 0.0148638)
(-8.3597e-06 7.11362e-05 0.111704)
(-1.97206e-05 7.54499e-05 0.111844)
(-3.1342e-05 3.0974e-05 0.112003)
(-3.56985e-05 5.47112e-05 0.112125)
(-6.67847e-05 -5.66802e-05 0.1124)
(5.19848e-05 -3.69309e-05 0.11319)
(9.18418e-05 8.34227e-05 0.113013)
(-0.000140238 0.000292826 0.112767)
(-0.00023968 -0.000344498 0.0911647)
(0.00058167 -0.000458006 0.0732688)
(-0.0117097 0.00236349 0.0163001)
(-1.64435e-07 -7.8051e-05 0.111862)
(2.25043e-05 -7.24473e-05 0.11193)
(1.7859e-05 -6.05108e-05 0.112004)
(3.03752e-05 -4.85245e-05 0.111993)
(2.37375e-05 -3.16945e-05 0.111895)
(-2.08366e-05 4.34193e-06 0.111816)
(8.31882e-07 -8.75341e-05 0.112055)
(5.09595e-06 -4.09474e-05 0.112791)
(0.000280186 4.98841e-05 0.112998)
(-0.00054831 0.00054851 0.113081)
(0.00045681 -0.000581593 0.0733058)
(-0.00863914 0.00414948 0.0188064)
(-3.32164e-06 1.41821e-05 0.11197)
(-3.58865e-06 1.44702e-05 0.111993)
(-8.08742e-06 4.83147e-07 0.112013)
(-4.93556e-06 5.30129e-06 0.111993)
(-9.57162e-06 -1.65727e-05 0.111907)
(-8.07586e-07 -7.80445e-06 0.111766)
(3.30407e-06 8.38642e-06 0.111608)
(-4.78238e-05 -2.33112e-06 0.111467)
(-1.48249e-05 1.41129e-05 0.111965)
(-5.05626e-05 -0.000281121 0.113009)
(0.00034492 0.00023835 0.0911632)
(-0.00060986 -0.00139139 0.02673)
(2.9745e-07 -4.25994e-05 0.112029)
(9.19441e-06 -4.02449e-05 0.112031)
(8.92154e-06 -3.64984e-05 0.112027)
(1.32117e-05 -3.02722e-05 0.111996)
(1.12689e-05 -2.5514e-05 0.111927)
(6.59423e-06 -1.60589e-05 0.111827)
(8.94262e-06 -1.4623e-05 0.1117)
(1.34847e-05 -1.41731e-05 0.111528)
(1.51782e-06 4.71569e-05 0.111475)
(4.04735e-05 -5.91422e-06 0.112803)
(-0.000293515 0.00013987 0.112774)
(0.000397038 -0.00040336 0.0771324)
(0.00140361 -0.00215413 0.0295638)
(-8.72568e-07 -1.24816e-05 0.112081)
(2.40512e-06 -1.20865e-05 0.112074)
(1.82012e-06 -1.50063e-05 0.112057)
(5.98328e-06 -1.28518e-05 0.112021)
(4.55703e-06 -1.53613e-05 0.111961)
(1.00863e-05 -1.20591e-05 0.111885)
(6.04294e-06 -6.97499e-06 0.111799)
(1.3946e-05 -9.58619e-06 0.111703)
(-9.23878e-06 -4.25156e-06 0.111614)
(8.70264e-05 -1.36001e-06 0.112062)
(-8.39526e-05 -9.2853e-05 0.113016)
(0.000365528 4.40811e-05 0.0901389)
(0.000434767 -0.0044951 0.0263887)
(0.000435325 -0.00253811 0.0166932)
(7.23181e-07 -2.94628e-05 0.112124)
(6.69471e-06 -2.81917e-05 0.112113)
(8.17272e-06 -2.65285e-05 0.112092)
(1.28226e-05 -2.30726e-05 0.112057)
(1.20209e-05 -2.0004e-05 0.112007)
(1.49089e-05 -1.55897e-05 0.111948)
(1.1413e-05 -1.10552e-05 0.111886)
(1.53528e-05 -7.08272e-06 0.111829)
(7.10455e-06 -1.2918e-07 0.111769)
(-4.85091e-06 2.02385e-05 0.111818)
(3.61593e-05 -5.29515e-05 0.11319)
(-0.000265802 9.99062e-05 0.112589)
(0.000332847 -0.000397982 0.0754686)
(0.00157178 -0.00268935 0.0314123)
(3.78641e-07 -1.58954e-05 0.112166)
(5.32756e-06 -1.55707e-05 0.112154)
(6.93243e-06 -1.55186e-05 0.112132)
(1.25005e-05 -1.45486e-05 0.112098)
(1.20444e-05 -1.28779e-05 0.112055)
(1.90335e-05 -1.2676e-05 0.112007)
(1.46152e-05 -5.50968e-06 0.111961)
(2.48649e-05 -1.20602e-05 0.111928)
(1.56077e-05 8.68446e-06 0.111907)
(3.11695e-05 -2.46197e-05 0.111895)
(5.59343e-05 6.60757e-05 0.112397)
(-5.20915e-05 -0.000161953 0.113416)
(0.000269065 0.000192626 0.0911503)
(-0.000175736 -0.00435198 0.0265161)
(1.05858e-06 -1.94342e-05 0.112207)
(7.0679e-06 -1.88707e-05 0.112195)
(9.19026e-06 -1.76691e-05 0.112172)
(1.54517e-05 -1.64529e-05 0.112139)
(1.38924e-05 -1.36541e-05 0.112099)
(2.22697e-05 -1.37577e-05 0.112057)
(1.20659e-05 -7.14384e-06 0.11202)
(2.96267e-05 -1.41857e-05 0.111995)
(-6.09234e-06 3.82057e-06 0.111992)
(4.81957e-05 -3.1461e-05 0.11199)
(-5.53501e-05 3.46936e-05 0.11212)
(0.000128097 -0.000117059 0.113565)
(-0.000371947 0.000149346 0.113489)
(0.000483823 -0.000354975 0.0782151)
(-0.00660243 -0.00231311 0.0220251)
(9.98437e-07 -1.09324e-05 0.112248)
(7.09085e-06 -1.07347e-05 0.112234)
(9.35194e-06 -1.0174e-05 0.112208)
(1.65149e-05 -9.898e-06 0.112173)
(1.47486e-05 -7.84811e-06 0.112133)
(2.55476e-05 -8.92523e-06 0.112093)
(1.4219e-05 -2.78497e-06 0.112056)
(3.58914e-05 -9.87225e-06 0.112026)
(-1.56094e-06 7.25295e-06 0.112011)
(6.00897e-05 -1.86984e-05 0.112)
(-3.16526e-05 3.06887e-05 0.111996)
(0.000102179 -3.37197e-05 0.112577)
(-9.06221e-05 4.05483e-05 0.11492)
(0.00016086 0.000115931 0.0964552)
(-0.0067186 0.00300483 0.0247572)
(1.30034e-06 -9.23989e-06 0.112286)
(7.82466e-06 -8.96412e-06 0.112267)
(1.0027e-05 -8.4329e-06 0.112235)
(1.77741e-05 -8.253e-06 0.112197)
(1.4866e-05 -6.69749e-06 0.112155)
(2.73362e-05 -7.8995e-06 0.112113)
(1.11007e-05 -3.68904e-06 0.112073)
(3.97275e-05 -1.04598e-05 0.11203)
(-1.51486e-05 2.50194e-06 0.111991)
(7.2299e-05 -2.35154e-05 0.111926)
(-7.58749e-05 1.88088e-05 0.111838)
(0.000140334 -5.99971e-05 0.112028)
(-0.00021487 5.50364e-05 0.11267)
(0.000263276 -9.63768e-05 0.0915007)
(0.00151944 -0.0010976 0.0319162)
(1.44678e-06 -2.22584e-06 0.112311)
(7.89734e-06 -1.93078e-06 0.112287)
(1.00627e-05 -1.83195e-06 0.112249)
(1.82492e-05 -1.77652e-06 0.112208)
(1.51038e-05 -1.30721e-06 0.112166)
(2.85654e-05 -1.51652e-06 0.112124)
(1.16324e-05 -9.99144e-08 0.11208)
(4.21876e-05 -1.01693e-06 0.112028)
(-1.50079e-05 2.39332e-06 0.111969)
(7.78083e-05 -5.29392e-07 0.11186)
(-7.13503e-05 7.47969e-06 0.111701)
(0.000145721 5.06112e-06 0.111827)
(-0.000180463 1.02503e-05 0.112441)
(0.000251191 3.55063e-05 0.0910946)
(0.00148325 0.000149906 0.0290991)
(-2.69574e-07 -0.00500666 0.021678)
(-0.000707101 -0.00470648 0.0196934)
(-0.0015142 -0.00127732 0.0103444)
(-3.58885e-05 -0.0002498 0.0911049)
(9.61088e-05 -0.000263049 0.0915195)
(-0.000115955 -0.000160697 0.0964723)
(0.000355247 -0.000484121 0.0782261)
(0.00142342 -0.00588857 0.0289326)
(0.000484105 -0.00325728 0.017999)
(-1.16508e-05 0.000181408 0.112452)
(-5.60227e-05 0.000215572 0.112691)
(-4.15859e-05 9.088e-05 0.114939)
(-0.000151376 0.000371964 0.113502)
(-0.000193513 -0.00026922 0.0911564)
(0.000397465 -0.00033311 0.0754734)
(0.00184071 -0.00884432 0.0306598)
(-0.000446736 -0.00454127 0.0192482)
(-5.43488e-06 -0.000142442 0.111836)
(5.91864e-05 -0.000137172 0.112043)
(3.30956e-05 -0.000100257 0.112592)
(0.000116624 -0.000126199 0.113576)
(0.000161233 5.2383e-05 0.113423)
(-0.000100791 0.000266366 0.112595)
(-4.4572e-05 -0.000365738 0.0901413)
(0.00040333 -0.000397201 0.0771327)
(0.000593474 -0.0060316 0.0312397)
(-0.00186331 -0.00425777 0.0148641)
(-8.93997e-06 7.39046e-05 0.111704)
(-2.11856e-05 7.84074e-05 0.111845)
(-3.29982e-05 3.39957e-05 0.112004)
(-3.8313e-05 5.73192e-05 0.112127)
(-6.84267e-05 -5.43905e-05 0.112402)
(5.17614e-05 -3.49666e-05 0.113192)
(9.05434e-05 8.41267e-05 0.113015)
(-0.000141452 0.000293695 0.112769)
(-0.000240447 -0.000344225 0.0911667)
(0.000581361 -0.000457874 0.0732706)
(-0.0117099 0.00236357 0.0163003)
(2.11096e-07 -7.5357e-05 0.111864)
(2.25104e-05 -6.94082e-05 0.111932)
(1.7553e-05 -5.7976e-05 0.112005)
(3.02527e-05 -4.56316e-05 0.111995)
(2.31327e-05 -2.91736e-05 0.111896)
(-2.24907e-05 6.16308e-06 0.111818)
(-5.55505e-07 -8.58143e-05 0.112057)
(4.37428e-06 -3.98883e-05 0.112794)
(0.000278904 5.07097e-05 0.113)
(-0.000548763 0.000548891 0.113084)
(0.000457037 -0.000581412 0.0733078)
(-0.00863945 0.00414953 0.0188065)
(-3.56001e-06 2.00798e-05 0.11197)
(-5.24442e-06 1.99461e-05 0.111993)
(-9.91165e-06 5.79019e-06 0.112014)
(-7.55854e-06 1.00656e-05 0.111994)
(-1.22799e-05 -1.25449e-05 0.111907)
(-1.83272e-06 -4.57619e-06 0.111767)
(1.23607e-06 1.10905e-05 0.111609)
(-4.9973e-05 -2.69278e-07 0.111469)
(-1.64056e-05 1.56826e-05 0.111967)
(-5.14574e-05 -0.000279993 0.113011)
(0.000344664 0.000239009 0.0911653)
(-0.000609821 -0.00139114 0.0267299)
(2.84552e-07 -3.89263e-05 0.112027)
(8.62202e-06 -3.65469e-05 0.11203)
(7.91354e-06 -3.24268e-05 0.112025)
(1.18152e-05 -2.66573e-05 0.111995)
(9.12901e-06 -2.12833e-05 0.111927)
(3.61719e-06 -1.25738e-05 0.111827)
(6.3911e-06 -1.22749e-05 0.1117)
(1.1633e-05 -1.23468e-05 0.111529)
(-6.92215e-07 4.91793e-05 0.111476)
(3.91778e-05 -5.34344e-06 0.112805)
(-0.000294615 0.000140885 0.112777)
(0.000396655 -0.000403576 0.0771344)
(0.00140382 -0.00215419 0.0295642)
(-1.19707e-06 -6.29407e-06 0.112077)
(1.14101e-06 -6.2407e-06 0.112071)
(-9.0685e-08 -9.61282e-06 0.112054)
(3.52549e-06 -7.9664e-06 0.112019)
(1.72434e-06 -1.12201e-05 0.11196)
(7.1804e-06 -8.28876e-06 0.111884)
(2.32087e-06 -3.40888e-06 0.111799)
(1.14707e-05 -7.09795e-06 0.111704)
(-1.20652e-05 -2.3672e-06 0.111616)
(8.51718e-05 -8.83057e-08 0.112064)
(-8.48692e-05 -9.16665e-05 0.113018)
(0.000364742 4.4252e-05 0.0901411)
(0.000434673 -0.00449499 0.026389)
(0.000435392 -0.00253823 0.0166935)
(3.90535e-07 -2.47728e-05 0.11212)
(5.32977e-06 -2.36664e-05 0.11211)
(6.20551e-06 -2.20518e-05 0.112089)
(1.01758e-05 -1.88131e-05 0.112055)
(8.77014e-06 -1.61042e-05 0.112005)
(1.13562e-05 -1.20183e-05 0.111947)
(7.57873e-06 -8.29599e-06 0.111885)
(1.18133e-05 -4.10329e-06 0.11183)
(3.67748e-06 8.845e-07 0.11177)
(-6.81137e-06 2.18316e-05 0.11182)
(3.41007e-05 -5.27363e-05 0.113192)
(-0.000267172 0.000100007 0.112592)
(0.00033293 -0.000397738 0.0754706)
(0.00157163 -0.00268935 0.0314129)
(-6.08516e-08 -1.15758e-05 0.112161)
(3.85062e-06 -1.132e-05 0.112149)
(4.75712e-06 -1.13848e-05 0.112127)
(9.46808e-06 -1.06546e-05 0.112095)
(8.52477e-06 -9.35203e-06 0.112052)
(1.49867e-05 -9.41031e-06 0.112006)
(1.03007e-05 -2.75539e-06 0.11196)
(2.0641e-05 -1.01591e-05 0.111927)
(1.1392e-05 1.13863e-05 0.111908)
(2.85198e-05 -2.40509e-05 0.111896)
(5.35753e-05 6.76998e-05 0.1124)
(-5.3145e-05 -0.000162019 0.113419)
(0.000268628 0.000193131 0.0911525)
(-0.000176092 -0.00435229 0.0265167)
(6.58969e-07 -1.5879e-05 0.112202)
(5.51719e-06 -1.53072e-05 0.11219)
(6.86695e-06 -1.42165e-05 0.112167)
(1.21975e-05 -1.31755e-05 0.112135)
(1.00129e-05 -1.06466e-05 0.112095)
(1.7944e-05 -1.11098e-05 0.112055)
(6.86297e-06 -4.75503e-06 0.112018)
(2.60286e-05 -1.28973e-05 0.111994)
(-1.08544e-05 6.44033e-06 0.111993)
(4.51495e-05 -3.1397e-05 0.111992)
(-5.80012e-05 3.73627e-05 0.112122)
(0.00012561 -0.000117725 0.113568)
(-0.000372835 0.000150551 0.113492)
(0.000483136 -0.000355657 0.0782179)
(-0.00660249 -0.002313 0.0220255)
(5.57665e-07 -8.29976e-06 0.112242)
(5.51132e-06 -8.06622e-06 0.112228)
(6.89061e-06 -7.61319e-06 0.112202)
(1.30371e-05 -7.47852e-06 0.112169)
(1.05987e-05 -5.64456e-06 0.112128)
(2.08791e-05 -6.96127e-06 0.11209)
(8.54341e-06 -9.57604e-07 0.112054)
(3.18926e-05 -8.87799e-06 0.112024)
(-7.00707e-06 9.09227e-06 0.112012)
(5.7483e-05 -1.83416e-05 0.112001)
(-3.47365e-05 3.23436e-05 0.111998)
(9.96688e-05 -3.37643e-05 0.11258)
(-9.11904e-05 4.09624e-05 0.114923)
(0.000159664 0.000115791 0.0964586)
(-0.00671838 0.00300515 0.0247577)
(8.62126e-07 -7.5409e-06 0.11228)
(6.20191e-06 -7.29838e-06 0.112261)
(7.45447e-06 -6.84962e-06 0.11223)
(1.41624e-05 -6.71391e-06 0.112192)
(1.05306e-05 -5.26135e-06 0.11215)
(2.26327e-05 -6.5889e-06 0.11211)
(4.92686e-06 -2.34397e-06 0.11207)
(3.61455e-05 -9.87946e-06 0.112028)
(-2.05576e-05 4.1499e-06 0.111991)
(6.90907e-05 -2.35e-05 0.111928)
(-7.89543e-05 2.01197e-05 0.111838)
(0.000136625 -5.99622e-05 0.112031)
(-0.000215962 5.52778e-05 0.112673)
(0.000262664 -9.66456e-05 0.0915038)
(0.00151964 -0.0010976 0.0319169)
(1.02966e-06 -1.58258e-06 0.112305)
(6.20193e-06 -1.37251e-06 0.112281)
(7.47482e-06 -1.31778e-06 0.112243)
(1.46244e-05 -1.25981e-06 0.112203)
(1.07253e-05 -8.29206e-07 0.112161)
(2.38053e-05 -1.05264e-06 0.112121)
(5.22505e-06 3.08682e-07 0.112077)
(3.84986e-05 -8.05541e-07 0.112027)
(-2.10315e-05 2.74677e-06 0.111969)
(7.48971e-05 -8.87116e-07 0.111862)
(-7.44317e-05 8.09381e-06 0.111701)
(0.000142158 4.67474e-06 0.11183)
(-0.000181477 1.09954e-05 0.112443)
(0.000250035 3.51847e-05 0.0910976)
(0.00148345 0.000150021 0.0290996)
(-2.8387e-07 -0.00500656 0.0216786)
(-0.000707193 -0.00470641 0.019694)
(-0.00151418 -0.00127733 0.0103446)
(-3.57723e-05 -0.000249425 0.0911077)
(9.60105e-05 -0.00026237 0.0915221)
(-0.000116058 -0.000159617 0.096475)
(0.000356006 -0.000483648 0.0782282)
(0.00142365 -0.00588885 0.028933)
(0.000484163 -0.00325727 0.0179993)
(-1.19359e-05 0.00018174 0.112454)
(-5.65422e-05 0.000215917 0.112693)
(-4.25678e-05 9.11391e-05 0.11494)
(-0.000152478 0.000372502 0.113504)
(-0.000193968 -0.000269331 0.091158)
(0.000397214 -0.000333412 0.0754748)
(0.00184072 -0.00884444 0.0306601)
(-0.000446825 -0.00454134 0.0192483)
(-5.37218e-06 -0.000140232 0.111839)
(5.88978e-05 -0.000135406 0.112045)
(3.31737e-05 -9.8506e-05 0.112594)
(0.000117121 -0.000124261 0.113578)
(0.000161163 5.29887e-05 0.113425)
(-0.000101097 0.000267236 0.112597)
(-4.49529e-05 -0.000365171 0.0901429)
(0.000402869 -0.000396623 0.077134)
(0.000593361 -0.00603171 0.0312399)
(-0.00186336 -0.00425793 0.0148641)
(-9.6866e-06 7.61627e-05 0.111704)
(-2.21901e-05 8.07058e-05 0.111845)
(-3.3833e-05 3.62064e-05 0.112005)
(-4.05577e-05 5.92952e-05 0.112128)
(-6.99231e-05 -5.28667e-05 0.112403)
(5.15401e-05 -3.33481e-05 0.113194)
(8.94188e-05 8.47128e-05 0.113017)
(-0.000142477 0.000294706 0.112771)
(-0.000241064 -0.000343379 0.0911683)
(0.000580888 -0.000457448 0.073272)
(-0.0117101 0.00236369 0.0163005)
(3.0218e-07 -7.27316e-05 0.111865)
(2.22031e-05 -6.63045e-05 0.111933)
(1.73362e-05 -5.57567e-05 0.112006)
(3.00571e-05 -4.3205e-05 0.111996)
(2.26777e-05 -2.71054e-05 0.111897)
(-2.376e-05 7.45658e-06 0.111819)
(-1.73008e-06 -8.43005e-05 0.112059)
(3.83205e-06 -3.89707e-05 0.112795)
(0.000277746 5.14793e-05 0.113002)
(-0.000549093 0.000549208 0.113086)
(0.000456404 -0.000580954 0.0733093)
(-0.00863983 0.00414955 0.0188065)
(-3.75872e-06 2.43813e-05 0.11197)
(-6.67836e-06 2.41434e-05 0.111993)
(-1.1438e-05 9.69818e-06 0.112014)
(-9.9495e-06 1.37157e-05 0.111994)
(-1.4905e-05 -9.49878e-06 0.111908)
(-2.60252e-06 -1.95179e-06 0.111767)
(-2.66045e-07 1.34173e-05 0.11161)
(-5.17487e-05 1.20166e-06 0.11147)
(-1.77532e-05 1.70862e-05 0.111969)
(-5.23211e-05 -0.000278937 0.113013)
(0.000343644 0.000239573 0.0911668)
(-0.00061017 -0.00139105 0.0267299)
(3.26226e-07 -3.67084e-05 0.112026)
(7.92873e-06 -3.43044e-05 0.112028)
(7.15837e-06 -2.97671e-05 0.112024)
(1.07634e-05 -2.4133e-05 0.111994)
(7.65019e-06 -1.81082e-05 0.111926)
(1.62977e-06 -9.78508e-06 0.111827)
(4.06734e-06 -1.05043e-05 0.111701)
(1.01733e-05 -1.09084e-05 0.11153)
(-2.25725e-06 5.09023e-05 0.111478)
(3.81392e-05 -4.76503e-06 0.112807)
(-0.000295738 0.000141812 0.112779)
(0.000395862 -0.000403175 0.0771359)
(0.00140364 -0.00215394 0.0295644)
(-1.48442e-06 -9.32292e-07 0.112075)
(1.41889e-07 -1.13697e-06 0.112068)
(-1.33963e-06 -4.74534e-06 0.112052)
(1.65458e-06 -3.7153e-06 0.112017)
(-6.31343e-07 -7.51052e-06 0.111959)
(5.00645e-06 -5.22569e-06 0.111884)
(-5.26742e-07 -6.69093e-07 0.1118)
(9.6452e-06 -4.99311e-06 0.111704)
(-1.42733e-05 -9.12343e-07 0.111617)
(8.35721e-05 9.74419e-07 0.112066)
(-8.56246e-05 -9.06025e-05 0.11302)
(0.000364113 4.45733e-05 0.0901428)
(0.000434707 -0.00449486 0.0263894)
(0.000435394 -0.00253831 0.0166938)
(2.00205e-07 -2.09166e-05 0.112117)
(4.14359e-06 -1.97951e-05 0.112107)
(4.59828e-06 -1.83263e-05 0.112087)
(7.96723e-06 -1.53576e-05 0.112053)
(6.10563e-06 -1.29949e-05 0.112004)
(8.39881e-06 -9.02247e-06 0.111946)
(4.29691e-06 -6.37798e-06 0.111885)
(9.0638e-06 -2.20103e-06 0.11183)
(1.06208e-06 1.75255e-06 0.111771)
(-8.23085e-06 2.29513e-05 0.111821)
(3.24818e-05 -5.24014e-05 0.113194)
(-0.00026822 0.000100179 0.112595)
(0.000333079 -0.000397538 0.0754722)
(0.00157161 -0.00268934 0.0314135)
(-3.07574e-07 -8.23759e-06 0.112157)
(2.72165e-06 -8.01083e-06 0.112146)
(3.0941e-06 -8.117e-06 0.112124)
(6.98341e-06 -7.58357e-06 0.112092)