/*--------------------------------*- C++ -*----------------------------------*\
| =========                 |                                                 |
| \\      /  F ield         | OpenFOAM: The Open Source CFD Toolbox           |
|  \\    /   O peration     | Version:  2.1.1                                 |
|   \\  /    A nd           | Web:      www.OpenFOAM.org                      |
|    \\/     M anipulation  |                                                 |
\*---------------------------------------------------------------------------*/
FoamFile
{
    version     2.0;
    format      ascii;
    class       volScalarField;
    location    "0.005";
    object      p;
}
// * * * * * * * * * * * * * * * * * * * * * * * * * * * * * * * * * * * * * //

dimensions      [0 2 -2 0 0 0 0];

internalField   nonuniform List<scalar> 
10156
(
0.0518556
0.051856
0.051853
0.0518542
0.0518473
0.0518515
0.0518382
0.0518507
0.0518246
0.0518591
0.0517986
0.0518887
0.0517452
0.0519502
0.0626915
0.051856
0.0518563
0.0518533
0.0518543
0.0518475
0.0518515
0.0518388
0.0518508
0.0518257
0.05186
0.0518009
0.0518954
0.0517392
0.0519794
0.0630228
0.0518532
0.0518535
0.0518505
0.0518515
0.0518452
0.0518487
0.0518374
0.0518471
0.0518266
0.0518503
0.051809
0.0518614
0.0517837
0.0518632
0.0611506
0.0518544
0.0518544
0.0518515
0.0518522
0.0518463
0.0518492
0.0518394
0.051848
0.0518299
0.0518543
0.0518112
0.0518882
0.0517367
0.0520551
0.0638994
0.0518477
0.0518478
0.0518454
0.0518464
0.0518414
0.0518444
0.0518359
0.0518423
0.0518296
0.0518399
0.0518236
0.0518196
0.0518467
0.0680355
0.0581552
0.0518518
0.0518517
0.0518488
0.0518493
0.0518444
0.0518463
0.05184
0.0518441
0.0518362
0.0518415
0.0518484
0.0518096
0.0519801
0.0612947
0.0518387
0.0518392
0.0518376
0.0518396
0.051836
0.05184
0.0518329
0.0518406
0.0518284
0.0518512
0.0517927
0.051885
0.0695622
0.0572282
0.0518511
0.0518511
0.0518472
0.0518482
0.0518425
0.0518443
0.0518408
0.0518428
0.0518343
0.0518427
0.0518036
0.0519861
0.0623899
0.0518251
0.0518261
0.0518269
0.0518301
0.0518297
0.0518363
0.0518284
0.0518341
0.051843
0.051856
0.051845
0.0697581
0.0588267
0.0518595
0.0518603
0.0518506
0.0518546
0.0518403
0.0518419
0.051852
0.0518435
0.0518609
0.0516896
0.0520588
0.0653376
0.0517992
0.0518013
0.0518094
0.0518116
0.0518236
0.051849
0.051792
0.0518069
0.051842
0.052089
0.0733513
0.0518893
0.0518959
0.0518619
0.0518886
0.0518199
0.0518099
0.0518851
0.0519859
0.0697595
0.0653322
0.0517458
0.0517397
0.0517842
0.0517372
0.051847
0.0519804
0.0695624
0.0623903
0.0588254
0.0519508
0.05198
0.0518638
0.0520556
0.0680359
0.061295
0.0572284
0.0626925
0.063024
0.0611516
0.0639001
0.0581556
0.0507855
0.050786
0.0507831
0.0507848
0.0507782
0.0507831
0.0507702
0.0507836
0.0507575
0.0507936
0.0507309
0.0508233
0.0506791
0.0508856
0.0616255
0.050786
0.0507863
0.0507835
0.0507849
0.0507786
0.0507831
0.0507709
0.0507837
0.0507587
0.0507942
0.0507308
0.0508262
0.0506787
0.0509154
0.0619572
0.0507834
0.0507837
0.050781
0.0507824
0.0507765
0.0507806
0.0507697
0.05078
0.0507599
0.0507846
0.0507417
0.050796
0.0507178
0.0507984
0.0600849
0.0507849
0.0507851
0.0507824
0.0507834
0.0507779
0.0507813
0.0507719
0.0507811
0.0507631
0.0507888
0.0507444
0.0508228
0.0506706
0.0509897
0.0628341
0.0507786
0.0507789
0.0507766
0.050778
0.0507734
0.0507768
0.0507687
0.0507757
0.0507632
0.0507739
0.0507577
0.050754
0.0507806
0.0669706
0.0570898
0.0507833
0.0507834
0.0507807
0.0507814
0.0507769
0.0507791
0.0507732
0.0507777
0.0507697
0.0507758
0.0507821
0.0507441
0.0509141
0.0602291
0.0507708
0.0507713
0.0507699
0.0507721
0.0507688
0.0507732
0.0507662
0.0507745
0.0507621
0.0507857
0.0507265
0.0508194
0.0684968
0.0561625
0.0507839
0.0507839
0.0507802
0.0507813
0.0507758
0.0507779
0.0507747
0.0507769
0.0507682
0.0507774
0.0507381
0.0509206
0.0613242
0.050758
0.050759
0.0507601
0.0507633
0.0507633
0.0507698
0.0507622
0.0507681
0.0507774
0.0507917
0.0507832
0.0686936
0.0577611
0.050794
0.0507945
0.0507848
0.050789
0.0507743
0.0507761
0.0507862
0.0507775
0.0507914
0.0506251
0.051029
0.0642774
0.0507315
0.0507313
0.0507421
0.0507448
0.0507577
0.0507826
0.050726
0.0507385
0.0507768
0.0509905
0.072292
0.0508239
0.0508267
0.0507965
0.0508232
0.0507544
0.0507443
0.0508195
0.0509204
0.0686967
0.064274
0.0506799
0.0506794
0.0507185
0.0506712
0.050781
0.0509144
0.068497
0.0613245
0.0577605
0.0508864
0.0509161
0.0507991
0.0509903
0.066971
0.0602295
0.0561627
0.0616267
0.0619585
0.0600861
0.062835
0.0570903
0.049716
0.0497164
0.0497137
0.0497156
0.0497094
0.0497147
0.0497024
0.0497167
0.0496901
0.0497282
0.0496644
0.0497586
0.0496111
0.0498189
0.060559
0.0497164
0.0497168
0.0497142
0.0497159
0.0497099
0.0497149
0.0497031
0.0497168
0.0496914
0.0497293
0.0496692
0.0497653
0.0496036
0.0498476
0.0608909
0.049714
0.0497144
0.0497119
0.0497136
0.0497081
0.0497126
0.0497022
0.0497131
0.049693
0.0497191
0.0496756
0.0497313
0.0496498
0.0497322
0.0590187
0.0497157
0.049716
0.0497136
0.0497148
0.0497098
0.0497136
0.0497045
0.0497143
0.0496961
0.049723
0.0496777
0.0497572
0.0496042
0.0499238
0.0617683
0.0497098
0.0497102
0.0497082
0.0497099
0.0497056
0.0497094
0.0497016
0.0497089
0.0496969
0.0497079
0.0496916
0.0496884
0.0497144
0.0659053
0.056024
0.049715
0.0497151
0.0497127
0.0497136
0.0497094
0.0497119
0.0497064
0.0497112
0.0497031
0.0497097
0.0497157
0.0496783
0.0498479
0.0591634
0.049703
0.0497035
0.0497022
0.0497046
0.0497016
0.0497063
0.0496995
0.0497084
0.0496955
0.0497199
0.0496602
0.0497536
0.0674311
0.0550966
0.0497169
0.049717
0.0497132
0.0497144
0.0497091
0.0497113
0.0497085
0.0497104
0.0497018
0.049711
0.0496713
0.0498546
0.0602584
0.0496905
0.0496916
0.0496931
0.0496962
0.0496969
0.0497032
0.0496959
0.0497018
0.0497116
0.0497241
0.0497126
0.0676274
0.0566955
0.0497285
0.0497295
0.0497192
0.0497232
0.0497081
0.0497101
0.0497203
0.0497118
0.0497258
0.0495589
0.0499231
0.0632077
0.049665
0.0496698
0.049676
0.049678
0.0496917
0.0497161
0.0496601
0.049672
0.0497166
0.0499594
0.0712237
0.0497592
0.0497659
0.0497318
0.0497577
0.0496887
0.0496787
0.0497538
0.049855
0.067633
0.0632158
0.049612
0.0496042
0.0496506
0.049605
0.0497148
0.0498483
0.0674315
0.0602587
0.056696
0.0498199
0.0498485
0.0497332
0.0499246
0.0659059
0.0591639
0.0550969
0.0605604
0.0608925
0.0590202
0.0617694
0.0560246
0.0486468
0.0486472
0.0486447
0.0486467
0.0486409
0.0486464
0.0486345
0.0486497
0.0486225
0.0486619
0.048596
0.0486924
0.0485453
0.0487542
0.0594929
0.0486472
0.0486477
0.0486452
0.0486471
0.0486415
0.0486468
0.0486354
0.0486499
0.0486239
0.0486618
0.0485941
0.048696
0.0485477
0.048784
0.0598248
0.048645
0.0486455
0.0486432
0.0486451
0.0486399
0.0486447
0.0486347
0.0486464
0.0486259
0.0486529
0.0486077
0.0486654
0.0485845
0.048667
0.0579525
0.0486468
0.0486472
0.048645
0.0486464
0.0486418
0.0486458
0.0486372
0.0486476
0.0486291
0.048657
0.048611
0.0486914
0.0485379
0.0488581
0.0607024
0.0486413
0.0486418
0.04864
0.0486419
0.0486379
0.048642
0.0486347
0.0486422
0.0486306
0.0486418
0.0486254
0.0486226
0.0486481
0.0648397
0.054958
0.0486466
0.0486469
0.0486448
0.0486458
0.048642
0.0486447
0.0486395
0.0486444
0.0486367
0.0486436
0.0486494
0.0486125
0.0487817
0.0580975
0.048635
0.0486357
0.0486348
0.0486373
0.0486347
0.0486395
0.0486326
0.0486421
0.0486294
0.0486542
0.0485939
0.0486878
0.0663653
0.0540306
0.0486498
0.0486499
0.0486463
0.0486476
0.0486423
0.0486445
0.048642
0.0486439
0.0486355
0.0486452
0.0486056
0.048789
0.0591925
0.0486226
0.0486237
0.0486257
0.048629
0.0486305
0.0486367
0.0486294
0.0486354
0.0486455
0.0486595
0.0486507
0.0665626
0.0556298
0.0486619
0.0486615
0.0486526
0.048657
0.0486419
0.0486439
0.0486544
0.0486452
0.0486585
0.0484939
0.0488923
0.0621455
0.0485964
0.0485958
0.0486077
0.0486111
0.0486255
0.0486496
0.0485939
0.0486053
0.0486472
0.0488624
0.0701618
0.0486929
0.0486968
0.0486659
0.0486919
0.048623
0.0486129
0.048688
0.0487891
0.0665673
0.062148
0.0485466
0.0485471
0.0485857
0.048539
0.0486487
0.0487822
0.0663657
0.0591929
0.0556306
0.0487557
0.0487856
0.0486686
0.0488592
0.0648404
0.058098
0.0540309
0.0594947
0.059827
0.0579545
0.0607038
0.0549588
0.0475774
0.0475782
0.0475758
0.0475778
0.0475724
0.0475782
0.0475667
0.0475828
0.0475554
0.0475969
0.0475307
0.0476278
0.0474768
0.0476864
0.0584264
0.0475782
0.0475787
0.0475764
0.0475783
0.0475732
0.0475786
0.0475678
0.047583
0.0475572
0.0475989
0.0475392
0.0476326
0.047468
0.0477146
0.0587583
0.0475761
0.0475767
0.0475745
0.0475766
0.0475718
0.0475769
0.0475674
0.0475797
0.0475592
0.0475879
0.0475429
0.0476003
0.0475157
0.0476001
0.0568861
0.0475779
0.0475784
0.0475765
0.0475781
0.0475739
0.0475781
0.0475699
0.0475808
0.0475621
0.0475912
0.0475446
0.0476257
0.0474714
0.0477918
0.0596363
0.0475728
0.0475735
0.0475719
0.047574
0.0475704
0.0475747
0.0475679
0.0475757
0.0475641
0.0475758
0.0475594
0.0475567
0.0475818
0.0637739
0.0538922
0.0475784
0.0475788
0.0475769
0.0475781
0.0475747
0.0475774
0.0475727
0.0475778
0.0475702
0.0475775
0.0475831
0.0475466
0.0477155
0.0570316
0.0475671
0.047568
0.0475674
0.04757
0.0475678
0.0475727
0.047566
0.0475756
0.0475629
0.0475882
0.0475276
0.0476218
0.0652995
0.0529648
0.0475828
0.0475829
0.0475796
0.0475807
0.0475757
0.0475779
0.0475756
0.0475775
0.0475691
0.0475789
0.0475391
0.0477229
0.0581266
0.047555
0.0475562
0.0475586
0.0475619
0.047564
0.0475702
0.0475629
0.0475691
0.0475794
0.0475925
0.0475816
0.0654965
0.0545639
0.0475958
0.0475947
0.0475865
0.0475909
0.0475758
0.0475776
0.0475882
0.0475794
0.0475934
0.0474274
0.0477994
0.0610778
0.0475292
0.0475256
0.0475405
0.0475444
0.0475594
0.0475833
0.0475277
0.0475394
0.047584
0.04782
0.0690936
0.0476271
0.0476308
0.0476003
0.0476261
0.0475571
0.0475469
0.0476221
0.0477233
0.065502
0.0610841
0.0474802
0.047484
0.0475198
0.0474727
0.0475825
0.047716
0.0653
0.0581271
0.0545648
0.0476903
0.0477208
0.0476032
0.0477934
0.0637749
0.0570322
0.0529651
0.0584288
0.0587614
0.0568888
0.0596382
0.0538932
0.0465077
0.0465089
0.0465067
0.046509
0.0465038
0.0465103
0.0464988
0.046516
0.0464879
0.0465308
0.0464636
0.0465619
0.0464105
0.0466207
0.05736
0.046509
0.0465097
0.0465076
0.0465098
0.046505
0.046511
0.0465
0.0465163
0.0464897
0.0465324
0.0464714
0.0465661
0.0464029
0.0466491
0.0576922
0.0465068
0.0465077
0.0465058
0.0465081
0.0465037
0.0465093
0.0464998
0.046513
0.046492
0.0465217
0.0464758
0.0465345
0.0464493
0.0465344
0.0558199
0.0465092
0.0465099
0.0465082
0.0465099
0.0465061
0.0465107
0.0465026
0.0465141
0.046495
0.046525
0.0464779
0.0465598
0.0464051
0.0467259
0.0585702
0.0465042
0.0465052
0.0465038
0.0465062
0.0465028
0.0465075
0.0465007
0.0465091
0.0464975
0.0465096
0.0464931
0.0464906
0.0465156
0.062708
0.0528262
0.0465106
0.0465111
0.0465094
0.0465107
0.0465076
0.0465104
0.0465058
0.0465113
0.0465037
0.0465113
0.0465167
0.0464806
0.0466493
0.0559657
0.0464991
0.0465002
0.0464999
0.0465026
0.0465007
0.0465058
0.0464994
0.046509
0.0464964
0.0465224
0.0464614
0.0465558
0.0642335
0.0518988
0.0465161
0.0465162
0.0465129
0.0465141
0.0465091
0.0465113
0.0465091
0.0465113
0.0465028
0.0465127
0.046473
0.0466569
0.0570605
0.0464878
0.0464892
0.0464916
0.0464949
0.0464975
0.0465037
0.0464965
0.0465027
0.0465134
0.046527
0.0465174
0.0644307
0.0534978
0.0465306
0.0465312
0.0465211
0.0465248
0.0465096
0.0465114
0.0465225
0.0465128
0.0465266
0.0463616
0.046751
0.0600126
0.0464638
0.0464701
0.0464754
0.046478
0.0464932
0.0465169
0.0464616
0.0464729
0.0465162
0.0467379
0.0680293
0.0465623
0.0465683
0.0465351
0.0465603
0.0464911
0.0464809
0.0465561
0.0466572
0.0644359
0.0600173
0.0464121
0.0464042
0.0464511
0.0464063
0.0465162
0.0466497
0.064234
0.057061
0.0534988
0.0466225
0.0466513
0.0465362
0.046727
0.0627089
0.0559662
0.0518991
0.0573622
0.0576949
0.0558224
0.0585719
0.0528272
0.0454381
0.0454397
0.0454373
0.0454406
0.0454352
0.0454428
0.0454309
0.0454492
0.0454199
0.0454634
0.045395
0.0454945
0.0453455
0.0455568
0.0562943
0.0454398
0.045441
0.0454387
0.0454417
0.0454366
0.0454437
0.0454322
0.0454496
0.0454214
0.0454626
0.0453931
0.0454986
0.045348
0.0455867
0.0566267
0.0454375
0.0454388
0.0454367
0.0454399
0.0454351
0.0454418
0.0454319
0.0454461
0.0454241
0.0454543
0.0454068
0.045468
0.0453851
0.0454697
0.0547542
0.0454409
0.0454419
0.04544
0.0454424
0.0454383
0.0454436
0.0454351
0.0454475
0.0454277
0.0454584
0.0454107
0.0454935
0.0453389
0.0456602
0.0575043
0.0454355
0.0454368
0.0454352
0.0454383
0.0454346
0.0454402
0.0454332
0.0454422
0.0454305
0.0454431
0.0454266
0.0454244
0.0454493
0.0616421
0.05176
0.0454432
0.0454438
0.045442
0.0454436
0.0454402
0.0454436
0.0454386
0.0454448
0.0454369
0.0454449
0.0454501
0.0454144
0.0455828
0.0548994
0.0454312
0.0454324
0.045432
0.0454351
0.0454332
0.0454387
0.0454324
0.0454423
0.0454297
0.0454558
0.0453949
0.0454895
0.0631671
0.0508324
0.0454494
0.0454496
0.0454461
0.0454475
0.0454423
0.0454449
0.0454423
0.0454452
0.0454364
0.0454468
0.0454065
0.0455906
0.055994
0.0454201
0.0454214
0.0454241
0.0454277
0.0454305
0.045437
0.0454297
0.0454364
0.0454473
0.0454603
0.0454499
0.0633645
0.0524314
0.0454636
0.0454625
0.0454543
0.0454584
0.0454432
0.0454451
0.0454558
0.0454471
0.0454607
0.0452952
0.045674
0.0589462
0.0453955
0.0453932
0.045407
0.045411
0.0454268
0.0454503
0.045395
0.0454066
0.0454509
0.045681
0.0669623
0.0454952
0.0454994
0.0454685
0.045494
0.0454248
0.0454147
0.0454898
0.0455909
0.0633698
0.0589514
0.0453466
0.0453491
0.0453861
0.0453397
0.0454498
0.0455832
0.0631676
0.0559945
0.0524324
0.045558
0.045588
0.0454709
0.0456611
0.0616428
0.0548999
0.0508327
0.056296
0.0566287
0.054756
0.0575055
0.0517608
0.0443689
0.0443708
0.0443683
0.0443725
0.0443666
0.0443756
0.0443627
0.0443822
0.044352
0.0443967
0.0443279
0.0444281
0.0442787
0.0444906
0.055228
0.0443709
0.0443724
0.04437
0.0443738
0.0443681
0.0443765
0.0443642
0.0443828
0.0443537
0.0443959
0.0443261
0.0444327
0.0442809
0.0445205
0.0555605
0.0443685
0.0443701
0.0443677
0.0443718
0.0443665
0.0443744
0.0443637
0.044379
0.0443564
0.0443877
0.0443397
0.0444018
0.0443184
0.0444036
0.0536881
0.0443728
0.0443739
0.0443718
0.0443748
0.0443702
0.0443766
0.0443674
0.0443809
0.0443604
0.0443918
0.0443436
0.0444272
0.0442724
0.0445941
0.0564382
0.0443669
0.0443683
0.0443666
0.0443702
0.0443662
0.0443727
0.0443653
0.0443753
0.0443632
0.0443764
0.04436
0.044358
0.0443828
0.060576
0.0506937
0.044376
0.0443767
0.0443746
0.0443766
0.0443727
0.0443769
0.0443715
0.0443784
0.04437
0.0443786
0.0443833
0.044348
0.0445162
0.0538331
0.0443631
0.0443644
0.0443639
0.0443674
0.0443653
0.0443715
0.0443652
0.0443755
0.0443627
0.0443895
0.0443282
0.0444231
0.0621006
0.0497661
0.0443826
0.0443829
0.0443792
0.0443809
0.0443754
0.0443785
0.0443755
0.044379
0.0443696
0.0443803
0.0443399
0.0445243
0.0549277
0.0443524
0.0443539
0.0443566
0.0443605
0.0443633
0.0443701
0.0443628
0.0443696
0.0443809
0.044394
0.0443841
0.0622982
0.0513652
0.0443971
0.0443961
0.0443879
0.044392
0.0443766
0.0443788
0.0443898
0.0443802
0.0443939
0.0442289
0.0446134
0.05788
0.0443285
0.0443266
0.04434
0.044344
0.0443602
0.0443836
0.0443284
0.0443399
0.044384
0.0446094
0.0658966
0.0444287
0.0444334
0.0444023
0.0444276
0.0443583
0.0443484
0.0444233
0.0445245
0.0623035
0.0578851
0.0442795
0.0442816
0.0443192
0.044273
0.0443832
0.0445166
0.0621011
0.0549281
0.0513662
0.0444914
0.0445214
0.0444044
0.0445947
0.0605765
0.0538336
0.0497664
0.0552293
0.0555621
0.0536895
0.0564391
0.0506943
0.0433003
0.0433022
0.0432995
0.0433045
0.0432981
0.0433083
0.0432946
0.0433153
0.0432845
0.0433306
0.0432616
0.0433628
0.043211
0.0434229
0.0541612
0.0433023
0.043304
0.0433014
0.0433058
0.0432997
0.0433093
0.0432962
0.043316
0.0432865
0.0433316
0.0432677
0.0433682
0.0432047
0.0434516
0.0544936
0.0432997
0.0433014
0.0432989
0.0433036
0.043298
0.043307
0.0432956
0.0433122
0.0432891
0.0433218
0.043274
0.0433358
0.0432501
0.0433365
0.0526214
0.0433048
0.043306
0.0433037
0.0433072
0.0433022
0.0433095
0.0432997
0.0433143
0.0432932
0.0433254
0.0432768
0.0433609
0.0432057
0.0435275
0.0553716
0.0432984
0.0432999
0.0432981
0.0433022
0.0432979
0.0433053
0.0432975
0.0433084
0.0432959
0.0433097
0.0432933
0.0432916
0.0433162
0.0595096
0.0496274
0.0433087
0.0433095
0.0433072
0.0433096
0.0433054
0.0433102
0.0433042
0.043312
0.0433031
0.0433122
0.0433165
0.0432816
0.0434496
0.0527668
0.0432949
0.0432964
0.0432958
0.0432998
0.0432975
0.0433043
0.0432979
0.0433086
0.0432956
0.043323
0.0432615
0.0433567
0.0610343
0.0486997
0.0433157
0.0433162
0.0433124
0.0433144
0.0433086
0.0433121
0.0433086
0.0433126
0.0433028
0.0433136
0.0432733
0.0434579
0.0538614
0.043285
0.0432868
0.0432893
0.0432934
0.043296
0.0433032
0.0432956
0.0433029
0.0433143
0.0433274
0.0433173
0.0612318
0.0502988
0.0433311
0.0433319
0.0433221
0.0433256
0.0433099
0.0433122
0.0433228
0.0433141
0.0433275
0.0431625
0.0435436
0.0568137
0.0432622
0.0432681
0.0432744
0.0432771
0.0432935
0.0433167
0.0432616
0.0432734
0.0433178
0.0435458
0.0648301
0.0433634
0.0433687
0.0433363
0.0433613
0.043292
0.0432819
0.0433569
0.0434582
0.0612371
0.0568189
0.0432117
0.0432053
0.0432507
0.0432062
0.0433166
0.0434499
0.0610347
0.0538618
0.0502998
0.0434236
0.0434522
0.0433371
0.043528
0.0595101
0.0527672
0.0486999
0.0541623
0.0544949
0.0526225
0.0553724
0.0496278
0.0422317
0.0422335
0.0422307
0.0422363
0.0422296
0.042241
0.0422265
0.0422487
0.0422171
0.042264
0.0421941
0.0422958
0.0421452
0.042358
0.053095
0.0422337
0.0422354
0.0422327
0.0422379
0.0422314
0.042242
0.0422283
0.0422494
0.0422191
0.0422638
0.0421936
0.0422992
0.0421471
0.0423874
0.0534272
0.0422308
0.0422327
0.0422302
0.0422355
0.0422296
0.0422397
0.0422277
0.0422456
0.0422217
0.042255
0.0422063
0.0422692
0.0421847
0.0422707
0.0515549
0.0422366
0.042238
0.0422356
0.0422396
0.0422344
0.0422425
0.0422321
0.0422478
0.042226
0.042259
0.0422099
0.0422945
0.0421391
0.0424613
0.0543052
0.0422299
0.0422316
0.0422297
0.0422344
0.0422301
0.0422381
0.0422298
0.0422417
0.0422285
0.0422432
0.0422268
0.0422249
0.0422496
0.0584433
0.048561
0.0422413
0.0422422
0.0422399
0.0422426
0.0422382
0.0422435
0.0422372
0.0422455
0.0422363
0.0422457
0.0422498
0.0422153
0.0423831
0.0517004
0.0422269
0.0422285
0.0422278
0.0422322
0.0422298
0.0422372
0.0422305
0.0422417
0.0422284
0.0422562
0.0421948
0.0422903
0.0599678
0.047633
0.0422491
0.0422497
0.0422458
0.042248
0.0422418
0.0422456
0.0422418
0.0422462
0.0422362
0.0422476
0.0422069
0.0423915
0.0527949
0.0422175
0.0422194
0.0422219
0.0422262
0.0422286
0.0422364
0.0422285
0.042236
0.0422478
0.0422611
0.0422511
0.0601655
0.0492322
0.0422644
0.0422641
0.0422553
0.0422592
0.0422434
0.0422459
0.0422568
0.0422471
0.0422609
0.0420962
0.0424795
0.0557475
0.0421946
0.042194
0.0422066
0.0422101
0.0422271
0.04225
0.042195
0.0422068
0.0422511
0.0424774
0.0637639
0.0422963
0.0422997
0.0422696
0.0422948
0.0422252
0.0422155
0.0422905
0.0423917
0.0601707
0.0557524
0.0421458
0.0421476
0.0421851
0.0421394
0.0422499
0.0423833
0.0599682
0.0527953
0.0492332
0.0423585
0.0423879
0.0422712
0.0424617
0.0584436
0.0517006
0.0476332
0.0530959
0.0534282
0.0515558
0.0543058
0.0485614
0.0411627
0.0411648
0.0411619
0.0411683
0.0411613
0.0411737
0.0411586
0.0411822
0.04115
0.0411979
0.0411279
0.0412304
0.0410781
0.0412907
0.0520286
0.041165
0.0411669
0.0411642
0.04117
0.0411633
0.0411748
0.0411604
0.0411829
0.0411521
0.0411988
0.0411339
0.0412354
0.041072
0.0413191
0.0523608
0.0411621
0.0411642
0.0411616
0.0411676
0.0411615
0.0411725
0.0411598
0.041179
0.0411544
0.041189
0.0411405
0.0412032
0.041117
0.0412039
0.0504884
0.0411685
0.0411701
0.0411677
0.0411722
0.0411668
0.0411757
0.0411647
0.0411813
0.041159
0.0411926
0.0411432
0.0412282
0.0410726
0.0413947
0.0532388
0.0411616
0.0411635
0.0411616
0.0411668
0.0411624
0.0411711
0.0411622
0.041175
0.0411614
0.0411768
0.04116
0.0411588
0.0411832
0.0573768
0.0474946
0.041174
0.0411751
0.0411727
0.0411758
0.0411711
0.0411769
0.0411702
0.041179
0.0411696
0.0411793
0.0411833
0.041149
0.0413166
0.0506339
0.0411589
0.0411607
0.04116
0.0411648
0.0411623
0.0411702
0.0411631
0.041175
0.0411615
0.0411903
0.0411283
0.041224
0.0589013
0.0465664
0.0411826
0.0411832
0.0411792
0.0411815
0.0411751
0.0411791
0.0411751
0.0411798
0.0411696
0.0411809
0.0411404
0.0413252
0.0517285
0.0411504
0.0411524
0.0411547
0.0411592
0.0411615
0.0411696
0.0411615
0.0411697
0.0411813
0.0411947
0.0411844
0.0590991
0.0481656
0.0411983
0.0411992
0.0411893
0.0411929
0.0411769
0.0411793
0.0411898
0.0411816
0.0411948
0.0410299
0.0414109
0.0546808
0.0411284
0.0411343
0.0411408
0.0411434
0.0411601
0.0411834
0.0411283
0.0411405
0.0411849
0.0414128
0.0626971
0.0412309
0.0412357
0.0412036
0.0412285
0.0411591
0.0411492
0.0412241
0.0413254
0.0591044
0.054686
0.0410786
0.0410724
0.0411173
0.0410729
0.0411834
0.0413168
0.0589016
0.0517288
0.0481665
0.0412911
0.0413195
0.0412042
0.041395
0.0573771
0.0506341
0.0465665
0.0520294
0.0523617
0.0504892
0.0532393
0.0474949
0.0400939
0.0400963
0.0400935
0.0401004
0.0400933
0.0401064
0.0400907
0.0401154
0.0400825
0.040131
0.0400605
0.0401632
0.0400121
0.0402253
0.0509624
0.0400964
0.0400987
0.040096
0.0401022
0.0400954
0.0401077
0.0400927
0.0401161
0.0400847
0.0401308
0.0400603
0.0401667
0.0400136
0.0402546
0.0512945
0.0400936
0.040096
0.0400934
0.0400999
0.0400936
0.0401053
0.0400921
0.0401122
0.0400871
0.0401222
0.0400727
0.0401365
0.0400515
0.0401381
0.0494221
0.0401007
0.0401024
0.0401
0.0401049
0.0400992
0.0401087
0.0400973
0.0401147
0.040092
0.0401261
0.0400763
0.0401617
0.040006
0.0403284
0.0521723
0.0400935
0.0400955
0.0400937
0.0400992
0.0400948
0.0401039
0.0400947
0.0401082
0.0400942
0.0401103
0.0400936
0.0400922
0.0401166
0.0563103
0.0464281
0.0401067
0.0401079
0.0401055
0.0401088
0.0401039
0.0401101
0.0401032
0.0401125
0.0401029
0.0401127
0.0401169
0.0400827
0.0402502
0.0495674
0.040091
0.0400929
0.0400923
0.0400973
0.0400948
0.0401032
0.0400957
0.0401084
0.0400946
0.0401237
0.0400617
0.0401576
0.0578348
0.0455001
0.0401158
0.0401164
0.0401124
0.0401148
0.0401083
0.0401125
0.0401085
0.0401135
0.0401032
0.040115
0.040074
0.040259
0.050662
0.0400829
0.0400849
0.0400873
0.0400921
0.0400943
0.0401029
0.0400947
0.0401031
0.0401148
0.0401284
0.0401182
0.0580327
0.0470993
0.0401314
0.0401311
0.0401224
0.0401263
0.0401104
0.0401129
0.0401241
0.0401146
0.0401283
0.0399636
0.0403472
0.0536147
0.0400609
0.0400606
0.040073
0.0400765
0.0400937
0.0401169
0.0400618
0.0400739
0.040118
0.0403438
0.061631
0.0401636
0.040167
0.0401368
0.0401619
0.0400924
0.0400828
0.0401577
0.0402591
0.0580378
0.0536194
0.0400126
0.0400139
0.0400517
0.0400062
0.0401168
0.0402503
0.0578351
0.0506623
0.0471001
0.0402257
0.0402549
0.0401383
0.0403287
0.0563105
0.0495675
0.0455001
0.0509631
0.0512953
0.0494228
0.0521727
0.0464283
0.0390256
0.0390282
0.0390254
0.0390327
0.0390254
0.0390391
0.0390229
0.0390483
0.0390152
0.0390644
0.038994
0.0390972
0.0389447
0.0391578
0.0498957
0.0390284
0.0390307
0.039028
0.0390346
0.0390275
0.0390404
0.039025
0.0390491
0.0390174
0.0390653
0.0389997
0.0391019
0.0389393
0.0391863
0.0502278
0.0390255
0.039028
0.0390254
0.0390322
0.0390257
0.0390379
0.0390244
0.0390451
0.0390198
0.0390558
0.0390066
0.0390701
0.0389837
0.0390711
0.0483555
0.0390329
0.0390347
0.0390323
0.0390374
0.0390315
0.0390415
0.0390298
0.0390478
0.0390249
0.0390594
0.0390095
0.0390952
0.0389395
0.0392617
0.0511058
0.0390255
0.0390276
0.0390258
0.0390316
0.039027
0.0390366
0.0390272
0.0390413
0.039027
0.0390437
0.0390267
0.0390258
0.0390501
0.0552438
0.0453617
0.0390394
0.0390406
0.0390381
0.0390416
0.0390366
0.0390431
0.0390361
0.0390458
0.0390361
0.0390461
0.0390503
0.0390162
0.0391838
0.048501
0.0390232
0.0390252
0.0390246
0.0390298
0.0390273
0.0390362
0.0390286
0.0390418
0.0390277
0.0390574
0.038995
0.0390913
0.0567684
0.044434
0.0390487
0.0390493
0.0390454
0.0390479
0.0390414
0.0390459
0.0390418
0.0390472
0.0390365
0.0390484
0.0390074
0.0391928
0.0495957
0.0390156
0.0390177
0.03902
0.039025
0.0390271
0.0390361
0.0390277
0.0390365
0.039048
0.0390618
0.039051
0.0569662
0.0460333
0.0390648
0.0390656
0.039056
0.0390595
0.0390438
0.0390461
0.0390573
0.0390485
0.039062
0.038897
0.0392757
0.0525479
0.0389943
0.039
0.0390067
0.0390096
0.0390268
0.0390503
0.038995
0.0390074
0.0390518
0.0392817
0.0605641
0.0390976
0.0391021
0.0390703
0.0390953
0.0390259
0.0390162
0.0390912
0.0391929
0.0569715
0.0525536
0.0389451
0.0389395
0.0389839
0.0389396
0.0390501
0.0391838
0.0567686
0.0495958
0.0460341
0.0391581
0.0391865
0.0390713
0.0392619
0.0552439
0.048501
0.0444339
0.0498963
0.0502285
0.0483561
0.0511061
0.0453618
0.0379575
0.0379603
0.0379575
0.0379651
0.0379574
0.0379717
0.0379551
0.0379811
0.0379477
0.0379971
0.0379264
0.0380297
0.0378785
0.0380923
0.0488291
0.0379604
0.0379628
0.03796
0.0379669
0.0379597
0.0379729
0.0379572
0.0379819
0.0379499
0.037997
0.0379267
0.0380336
0.0378794
0.0381212
0.0491613
0.0379576
0.03796
0.0379573
0.0379644
0.0379578
0.0379704
0.0379567
0.037978
0.0379523
0.0379885
0.0379387
0.0380032
0.037918
0.038005
0.047289
0.0379652
0.0379669
0.0379645
0.0379698
0.0379638
0.0379742
0.0379623
0.0379808
0.0379576
0.0379924
0.0379424
0.0380284
0.037873
0.0381951
0.0500393
0.0379576
0.0379597
0.0379579
0.0379638
0.0379592
0.0379692
0.0379598
0.0379743
0.0379597
0.037977
0.0379598
0.0379591
0.0379835
0.0541772
0.0442953
0.0379719
0.037973
0.0379706
0.0379742
0.0379693
0.0379762
0.0379691
0.0379791
0.0379692
0.0379793
0.0379836
0.0379497
0.0381175
0.0474347
0.0379554
0.0379574
0.0379568
0.0379623
0.0379598
0.0379691
0.0379613
0.0379749
0.0379606
0.0379907
0.0379282
0.0380249
0.0557019
0.0433679
0.0379815
0.0379821
0.0379782
0.0379809
0.0379744
0.0379791
0.0379749
0.0379806
0.0379697
0.037982
0.0379409
0.0381268
0.0485295
0.0379481
0.0379501
0.0379524
0.0379577
0.0379597
0.0379692
0.0379606
0.0379696
0.0379812
0.0379956
0.0379854
0.0559003
0.0449674
0.0379975
0.0379972
0.0379887
0.0379925
0.037977
0.0379793
0.0379907
0.0379818
0.037995
0.0378307
0.0382198
0.0514829
0.0379268
0.0379269
0.0379388
0.0379425
0.0379598
0.0379835
0.0379281
0.0379405
0.037984
0.0382058
0.0594986
0.03803
0.0380337
0.0380033
0.0380284
0.0379591
0.0379496
0.0380248
0.0381267
0.0559051
0.0514859
0.0378787
0.0378796
0.0379181
0.037873
0.0379834
0.0381174
0.055702
0.0485295
0.044968
0.0380924
0.0381213
0.038005
0.0381951
0.0541772
0.0474346
0.0433677
0.0488296
0.0491619
0.0472894
0.0500395
0.0442953
0.0368894
0.0368923
0.0368895
0.0368973
0.0368895
0.0369042
0.0368874
0.0369138
0.0368803
0.0369302
0.0368597
0.0369635
0.0368115
0.037025
0.0477623
0.0368923
0.0368947
0.036892
0.0368991
0.0368917
0.0369054
0.0368896
0.0369145
0.0368826
0.0369309
0.0368649
0.0369673
0.0368073
0.0370532
0.0480947
0.0368895
0.0368919
0.0368894
0.0368966
0.0368899
0.0369029
0.0368891
0.0369108
0.0368849
0.0369217
0.0368723
0.0369364
0.0368506
0.0369381
0.0462223
0.0368974
0.0368991
0.0368966
0.0369022
0.0368961
0.0369069
0.0368948
0.0369137
0.0368904
0.0369254
0.0368756
0.0369614
0.0368063
0.0371285
0.0489729
0.0368895
0.0368917
0.03689
0.0368961
0.0368916
0.0369019
0.0368924
0.0369072
0.0368924
0.0369101
0.0368929
0.0368925
0.036917
0.0531108
0.0432289
0.0369043
0.0369055
0.0369031
0.036907
0.036902
0.0369092
0.0369019
0.0369121
0.0369022
0.0369125
0.0369169
0.0368834
0.0370515
0.0463684
0.0368877
0.0368897
0.0368892
0.0368949
0.0368925
0.0369019
0.036894
0.0369079
0.0368934
0.0369242
0.0368613
0.0369587
0.0546353
0.0423018
0.0369142
0.0369147
0.036911
0.0369138
0.0369073
0.0369121
0.0369079
0.0369139
0.0369027
0.0369154
0.036874
0.037061
0.0474634
0.0368807
0.0368828
0.036885
0.0368904
0.0368924
0.0369021
0.0368934
0.0369026
0.0369141
0.0369281
0.0369164
0.0548338
0.0439012
0.0369306
0.0369311
0.0369219
0.0369254
0.0369101
0.0369124
0.0369239
0.0369155
0.036929
0.0367639
0.0371308
0.0504136
0.03686
0.0368651
0.0368724
0.0368755
0.0368927
0.0369167
0.0368611
0.0368739
0.0369193
0.0371591
0.0584299
0.0369638
0.0369674
0.0369365
0.0369614
0.0368924
0.0368832
0.0369583
0.0370608
0.0548392
0.0504223
0.0368117
0.0368074
0.0368506
0.0368063
0.0369169
0.0370512
0.0546352
0.0474632
0.0439017
0.037025
0.0370532
0.0369381
0.0371284
0.0531106
0.0463682
0.0423014
0.0477626
0.0480951
0.0462227
0.048973
0.0432288
0.0358213
0.0358241
0.0358214
0.0358294
0.0358215
0.0358366
0.0358198
0.0358465
0.0358129
0.0358629
0.0357928
0.0358952
0.0357451
0.0359594
0.0466963
0.0358242
0.0358267
0.0358239
0.0358313
0.0358239
0.0358378
0.035822
0.0358471
0.0358151
0.0358623
0.035793
0.0359001
0.0357455
0.0359877
0.0470285
0.0358214
0.0358239
0.0358215
0.0358287
0.0358222
0.0358354
0.0358216
0.0358436
0.0358175
0.0358542
0.0358046
0.0358695
0.035785
0.0358719
0.045156
0.0358294
0.0358312
0.0358287
0.0358346
0.0358284
0.0358395
0.0358274
0.0358465
0.0358231
0.0358582
0.0358087
0.0358946
0.035741
0.036061
0.0479064
0.0358215
0.0358237
0.0358222
0.0358286
0.0358241
0.0358345
0.035825
0.0358401
0.0358251
0.0358432
0.035826
0.035826
0.0358508
0.0520442
0.0421626
0.0358366
0.0358378
0.0358355
0.0358397
0.0358346
0.035842
0.0358346
0.0358452
0.0358351
0.0358457
0.0358504
0.0358171
0.0359862
0.0453025
0.03582
0.0358221
0.0358217
0.0358275
0.0358251
0.0358346
0.0358267
0.0358408
0.0358263
0.0358575
0.0357945
0.0358928
0.053569
0.0412361
0.0358469
0.0358474
0.0358438
0.0358466
0.0358401
0.0358451
0.0358408
0.0358473
0.0358358
0.0358496
0.0358077
0.0359961
0.0463972
0.0358134
0.0358153
0.0358176
0.0358231
0.0358251
0.035835
0.0358261
0.0358355
0.0358471
0.0358633
0.0358542
0.0537689
0.0428354
0.0358634
0.0358625
0.0358544
0.0358582
0.0358431
0.0358455
0.0358573
0.0358488
0.0358611
0.0356987
0.0361075
0.0493538
0.0357931
0.0357931
0.0358047
0.0358086
0.0358258
0.03585
0.0357941
0.0358065
0.0358481
0.0360537
0.0573683
0.0358956
0.0359001
0.0358695
0.0358944
0.0358258
0.0358167
0.0358922
0.0359953
0.0537723
0.0493507
0.0357451
0.0357456
0.035785
0.0357408
0.0358505
0.0359857
0.0535687
0.0463968
0.0428353
0.0359593
0.0359875
0.0358717
0.0360608
0.052044
0.0453021
0.0412355
0.0466964
0.0470287
0.0451563
0.0479065
0.0421623
0.0347533
0.034756
0.0347533
0.0347614
0.0347537
0.0347689
0.0347521
0.034779
0.0347456
0.0347951
0.0347251
0.0348274
0.0346783
0.0348939
0.0456308
0.0347561
0.0347586
0.0347558