/*--------------------------------*- C++ -*----------------------------------*\
| =========                 |                                                 |
| \\      /  F ield         | OpenFOAM: The Open Source CFD Toolbox           |
|  \\    /   O peration     | Version:  2.1.1                                 |
|   \\  /    A nd           | Web:      www.OpenFOAM.org                      |
|    \\/     M anipulation  |                                                 |
\*---------------------------------------------------------------------------*/
FoamFile
{
    version     2.0;
    format      ascii;
    class       surfaceScalarField;
    location    "0.005";
    object      phi;
}
// * * * * * * * * * * * * * * * * * * * * * * * * * * * * * * * * * * * * * //

dimensions      [0 3 -1 0 0 0 0];

internalField   nonuniform List<scalar> 
28985
(
4.19359e-14
4.34757e-14
1.14878e-09
-1.14888e-09
8.49179e-14
4.50515e-14
1.14786e-09
-1.14796e-09
1.31447e-13
4.13967e-14
1.14666e-09
-1.14675e-09
1.66774e-13
4.37875e-14
1.14543e-09
-1.14551e-09
2.09185e-13
3.10823e-14
1.14422e-09
-1.14429e-09
2.25133e-13
3.88923e-14
1.14301e-09
-1.14306e-09
2.61703e-13
1.0893e-14
1.14178e-09
-1.14182e-09
2.37331e-13
4.5638e-14
1.14035e-09
-1.14037e-09
2.8707e-13
-3.73589e-14
1.13851e-09
-1.13852e-09
1.7271e-13
9.78252e-14
1.13538e-09
-1.13536e-09
2.86262e-13
-1.38425e-13
1.13046e-09
-1.13044e-09
3.8407e-15
2.31092e-13
1.12894e-09
-1.12889e-09
2.26934e-13
-2.67851e-13
1.1257e-09
-1.12565e-09
6.19531e-11
2.01932e-13
8.71992e-10
6.27948e-11
-6.19653e-11
-6.28098e-11
-8.71935e-10
1.43272e-11
-1.07089e-12
9.86843e-11
-4.99792e-11
4.31042e-14
8.64705e-14
1.14788e-09
-1.14797e-09
8.59542e-14
8.80812e-14
1.1473e-09
-1.14739e-09
1.30889e-13
8.15581e-14
1.14623e-09
-1.14631e-09
1.65885e-13
8.4902e-14
1.14507e-09
-1.14514e-09
2.0545e-13
6.42485e-14
1.14386e-09
-1.14393e-09
2.19979e-13
8.13249e-14
1.14266e-09
-1.14271e-09
2.52609e-13
2.75335e-14
1.14151e-09
-1.14156e-09
2.25911e-13
9.67868e-14
1.14034e-09
-1.14036e-09
2.67938e-13
-6.04839e-14
1.13916e-09
-1.13918e-09
1.14567e-13
2.40033e-13
1.1374e-09
-1.13739e-09
2.49656e-13
-2.83013e-13
1.13483e-09
-1.13482e-09
-1.80195e-13
6.15141e-13
1.13729e-09
-1.13724e-09
1.08524e-13
-5.95528e-13
1.13984e-09
-1.1398e-09
6.46885e-11
3.1384e-14
8.78362e-10
6.60452e-11
-6.45436e-11
-6.59593e-11
-8.78313e-10
9.42982e-13
1.41758e-11
1.50855e-12
9.65205e-11
-4.8459e-11
4.13266e-14
1.32973e-13
1.14667e-09
-1.14676e-09
8.14251e-14
1.32864e-13
1.14632e-09
-1.14641e-09
1.22568e-13
1.22942e-13
1.14547e-09
-1.14556e-09
1.58019e-13
1.23663e-13
1.14435e-09
-1.14442e-09
1.95208e-13
9.57879e-14
1.1432e-09
-1.14327e-09
2.18137e-13
1.10411e-13
1.14206e-09
-1.14211e-09
2.47161e-13
4.31527e-14
1.14105e-09
-1.14109e-09
2.47238e-13
1.14173e-13
1.14024e-09
-1.14026e-09
2.7767e-13
-7.45628e-14
1.13987e-09
-1.13988e-09
2.89239e-13
2.14364e-13
1.13959e-09
-1.13957e-09
3.07872e-13
-3.19361e-13
1.14051e-09
-1.14049e-09
1.8889e-13
6.85093e-13
1.15484e-09
-1.15479e-09
2.87019e-13
-7.43719e-13
1.18684e-09
-1.18679e-09
5.74766e-11
8.49947e-13
9.74181e-10
4.00844e-11
-5.73906e-11
-4.07612e-11
-9.74121e-10
-4.36095e-12
8.44811e-12
1.02063e-12
1.11754e-10
-5.93856e-11
4.27468e-14
1.67989e-13
1.14543e-09
-1.14552e-09
8.39652e-14
1.67432e-13
1.14511e-09
-1.14519e-09
1.22651e-13
1.58178e-13
1.14445e-09
-1.14453e-09
1.55433e-13
1.56186e-13
1.14343e-09
-1.14349e-09
1.83528e-13
1.26721e-13
1.14215e-09
-1.14221e-09
1.99233e-13
1.3796e-13
1.14095e-09
-1.14099e-09
2.18135e-13
6.03677e-14
1.13995e-09
-1.13998e-09
2.04295e-13
1.38395e-13
1.13926e-09
-1.13927e-09
2.2149e-13
-8.20641e-14
1.13916e-09
-1.13917e-09
1.19295e-13
2.99889e-13
1.13942e-09
-1.1394e-09
3.1547e-13
-5.42205e-13
1.14437e-09
-1.14434e-09
-8.38441e-13
1.79111e-12
1.16984e-09
-1.16979e-09
3.21216e-13
-1.95771e-12
1.16273e-09
-1.16268e-09
4.26863e-11
4.44509e-11
7.6177e-10
4.82997e-11
-4.23497e-11
-4.82027e-11
5.77866e-11
-4.4894e-11
-5.66511e-11
-7.61724e-10
7.68685e-12
-6.93754e-12
7.8997e-11
-3.70604e-11
3.2203e-14
2.10483e-13
1.14421e-09
-1.14429e-09
6.52778e-14
2.06818e-13
1.14387e-09
-1.14394e-09
9.6414e-14
1.95518e-13
1.14323e-09
-1.1433e-09
1.2735e-13
1.8416e-13
1.14223e-09
-1.14229e-09
1.53359e-13
1.52996e-13
1.1409e-09
-1.14095e-09
1.83517e-13
1.45527e-13
1.13945e-09
-1.13948e-09
1.98557e-13
7.36787e-14
1.13809e-09
-1.13812e-09
2.43717e-13
1.007e-13
1.13709e-09
-1.13709e-09
2.43997e-13
-8.34152e-14
1.13648e-09
-1.13647e-09
5.26574e-13
-7.37381e-15
1.13678e-09
-1.13676e-09
7.21586e-14
-1.16355e-13
1.14712e-09
-1.14709e-09
1.33724e-12
4.76829e-13
1.15658e-09
-1.15653e-09
4.65805e-11
8.31101e-13
9.01469e-10
5.50199e-11
-4.79194e-11
-5.51711e-11
-9.01429e-10
1.35081e-11
7.01009e-12
1.34719e-10
-6.42052e-11
-3.4364e-12
-6.4942e-12
2.02161e-11
-1.02855e-11
3.84779e-14
2.26128e-13
1.143e-09
-1.14306e-09
8.08765e-14
2.20957e-13
1.14266e-09
-1.14272e-09
1.0981e-13
2.18215e-13
1.14207e-09
-1.14212e-09
1.37594e-13
1.99392e-13
1.14097e-09
-1.14101e-09
1.45209e-13
1.82839e-13
1.13946e-09
-1.1395e-09
1.56983e-13
1.56567e-13
1.13771e-09
-1.13774e-09
1.52963e-13
9.15899e-14
1.13577e-09
-1.13578e-09
1.55272e-13
9.3582e-14
1.13389e-09
-1.13389e-09
7.0812e-14
-7.47595e-15
1.13222e-09
-1.13221e-09
1.80418e-13
-1.49139e-13
1.13456e-09
-1.13452e-09
-9.20694e-13
9.48623e-13
1.15512e-09
-1.15509e-09
2.36208e-13
-7.32091e-13
1.13153e-09
-1.13148e-09
5.79198e-11
4.46963e-11
7.21954e-10
6.15993e-11
-5.7475e-11
-6.08484e-11
6.50173e-11
-4.52827e-11
-6.45949e-11
-7.21917e-10
-5.82943e-12
9.65635e-12
8.4177e-12
1.02869e-10
-5.71941e-11
1.26566e-14
2.62719e-13
1.14178e-09
-1.14182e-09
2.92272e-14
2.53293e-13
1.14151e-09
-1.14156e-09
4.43591e-14
2.4727e-13
1.14107e-09
-1.14111e-09
6.15593e-14
2.18087e-13
1.13998e-09
-1.14001e-09
7.44368e-14
1.97965e-13
1.13813e-09
-1.13815e-09
9.29954e-14
1.52128e-13
1.13583e-09
-1.13585e-09
9.42815e-14
9.28026e-14
1.13314e-09
-1.13314e-09
7.10705e-14
1.10308e-13
1.12983e-09
-1.12982e-09
3.43415e-13
-3.07806e-13
1.1276e-09
-1.12757e-09
1.29692e-13
3.37024e-14
1.13641e-09
-1.13638e-09
1.23283e-12
-1.95321e-13
1.14604e-09
-1.146e-09
4.69736e-11
1.6424e-12
8.81846e-10
5.8899e-11
-4.81558e-11
-5.88964e-11
-8.81807e-10
1.44376e-11
6.96383e-12
1.25623e-10
-5.53541e-11
-1.14128e-11
-1.62862e-11
4.89493e-12
5.45343e-11
-3.17302e-11
4.52741e-14
2.38875e-13
1.14034e-09
-1.14036e-09
9.61328e-14
2.26803e-13
1.14035e-09
-1.14037e-09
1.13267e-13
2.47148e-13
1.14027e-09
-1.14029e-09
1.37377e-13
2.03756e-13
1.13931e-09
-1.13931e-09
9.94095e-14
2.4196e-13
1.13715e-09
-1.13716e-09
9.27926e-14
1.52028e-13
1.13399e-09
-1.13398e-09
1.093e-13
5.94583e-14
1.13002e-09
-1.13e-09
9.44981e-14
8.03992e-14
1.12491e-09
-1.12487e-09
1.75944e-13
-4.39623e-13
1.12368e-09
-1.12363e-09
-1.07364e-12
1.23994e-12
1.14398e-09
-1.14394e-09
3.11435e-13
-1.62754e-12
1.1359e-09
-1.13585e-09
5.8424e-11
4.37851e-11
7.46592e-10
6.28075e-11
-5.79181e-11
-6.18902e-11
5.83616e-11
-4.44412e-11
-5.7212e-11
-7.46553e-10
-5.54157e-12
1.12983e-11
4.47539e-12
1.02812e-10
-5.46204e-11
-3.39721e-14
2.87369e-13
1.13851e-09
-1.13852e-09
-5.75399e-14
2.68284e-13
1.13918e-09
-1.1392e-09
-7.19412e-14
2.77249e-13
1.1399e-09
-1.13992e-09
-7.983e-14
2.20782e-13
1.13922e-09
-1.13923e-09
-8.24119e-14
2.42358e-13
1.13657e-09
-1.13657e-09
-5.31106e-15
6.4189e-14
1.13236e-09
-1.13235e-09
-3.14417e-13
3.35078e-13
1.12782e-09
-1.12778e-09
-4.2491e-13
1.27865e-13
1.12407e-09
-1.124e-09
-4.59529e-13
-4.62103e-13
1.12708e-09
-1.12702e-09
1.73733e-12
-9.75972e-13
1.1318e-09
-1.13178e-09
4.52389e-11
1.31596e-12
8.80861e-10
5.28064e-11
-4.62852e-11
-5.29849e-11
-8.8084e-10
1.43659e-11
-2.97896e-13
1.3759e-10
-6.26342e-11
-5.82063e-12
-1.14432e-11
3.42954e-11
-1.70317e-11
9.7908e-14
1.73048e-13
1.13538e-09
-1.13535e-09
2.38977e-13
1.15376e-13
1.13742e-09
-1.13741e-09
2.12365e-13
2.89033e-13
1.13962e-09
-1.1396e-09
2.94574e-13
1.19564e-13
1.13947e-09
-1.13945e-09
-1.84376e-14
5.23776e-13
1.13689e-09
-1.13686e-09
-1.73171e-13
1.74969e-13
1.13468e-09
-1.13463e-09
-3.98974e-14
1.27735e-13
1.13664e-09
-1.13657e-09
1.13434e-12
-1.22713e-12
1.14437e-09
-1.14418e-09
-1.02878e-12
1.40512e-12
1.13242e-09
-1.13213e-09
-9.68054e-13
-1.04135e-12
1.12271e-09
-1.1227e-09
5.67695e-11
3.38411e-11
7.19366e-10
5.05433e-11
-5.62856e-11
-5.07723e-11
4.33065e-11
-3.47662e-11
-4.2299e-11
-7.19355e-10
6.95028e-12
1.23313e-11
-1.89028e-11
1.02096e-10
-4.57049e-11
-1.36083e-13
2.86466e-13
1.13045e-09
-1.13042e-09
-2.80763e-13
2.49988e-13
1.13486e-09
-1.13485e-09
-3.18582e-13
3.0795e-13
1.14052e-09
-1.1405e-09
-5.40658e-13
3.15465e-13
1.14439e-09
-1.14437e-09
-1.12184e-13
6.97057e-14
1.1472e-09
-1.14718e-09
9.36862e-13
-9.20675e-13
1.15522e-09
-1.15517e-09
-1.79743e-13
1.21322e-12
1.14618e-09
-1.14615e-09
-1.90624e-12
3.04576e-13
1.13618e-09
-1.13598e-09
1.05541e-12
4.52341e-11
8.8122e-10
5.28076e-11
-4.6327e-11
-5.31542e-11
-8.81335e-10
3.37117e-11
5.67721e-11
7.20185e-10
4.32454e-11
-3.46982e-11
-4.23401e-11
5.05958e-11
-5.63189e-11
-5.07676e-11
-7.2037e-10
-1.06485e-11
-1.06511e-11
1.4583e-10
-5.69785e-11
2.31967e-13
4.0476e-15
1.12893e-09
-1.12887e-09
6.15617e-13
-1.79876e-13
1.13732e-09
-1.13727e-09
6.85461e-13
1.89027e-13
1.15484e-09
-1.15479e-09
1.79183e-12
-8.38653e-13
1.16985e-09
-1.1698e-09
4.78955e-13
1.33456e-12
1.15662e-09
-1.15657e-09
-7.26678e-13
2.37512e-13
1.13157e-09
-1.13152e-09
1.65645e-12
4.69687e-11
8.81893e-10
5.88957e-11
-4.8154e-11
-5.88981e-11
-8.81873e-10
4.37809e-11
5.84253e-11
7.46652e-10
5.83774e-11
-4.44357e-11
-5.71982e-11
6.28101e-11
-5.79117e-11
-6.18866e-11
-7.4665e-10
-3.00474e-13
1.43552e-11
1.37615e-10
-6.26549e-11
6.95829e-12
-1.89157e-11
1.2319e-11
1.02204e-10
-4.57935e-11
-2.65822e-13
2.2693e-13
1.12569e-09
-1.12564e-09
-5.93456e-13
1.0847e-13
1.13984e-09
-1.1398e-09
-7.4177e-13
2.87211e-13
1.18682e-09
-1.18677e-09
-1.95584e-12
3.21309e-13
1.16273e-09
-1.16268e-09
8.31776e-13
4.65793e-11
9.01477e-10
5.50197e-11
-4.79187e-11
-5.51709e-11
-9.01438e-10
4.47003e-11
5.79193e-11
7.21955e-10
6.50187e-11
-4.52854e-11
-6.45962e-11
6.15994e-11
-5.74745e-11
-6.08481e-11
-7.21918e-10
6.96429e-12
1.44363e-11
1.25623e-10
-5.53541e-11
-5.54164e-12
4.47603e-12
1.12989e-11
1.02811e-10
-5.46198e-11
-1.14386e-11
-5.82395e-12
3.42981e-11
-1.70356e-11
2.02997e-13
6.19521e-11
8.71977e-10
6.27943e-11
-6.19645e-11
-6.28091e-11
-8.7192e-10
3.1708e-14
6.46896e-11
8.78331e-10
6.60473e-11
-6.45449e-11
-6.5961e-11
-8.78281e-10
8.49941e-13
5.74776e-11
9.74169e-10
4.0085e-11
-5.73913e-11
-4.07616e-11
-9.74109e-10
4.44519e-11
4.26858e-11
7.61772e-10
5.77871e-11
-4.4895e-11
-5.66516e-11
4.82996e-11
-4.23495e-11
-4.82025e-11
-7.61726e-10
7.01014e-12
1.35078e-11
1.34719e-10
-6.42053e-11
-5.8296e-12
8.4176e-12
9.65628e-12
1.02869e-10
-5.7194e-11
-1.6286e-11
-1.14129e-11
4.89504e-12
5.45342e-11
-3.17304e-11
-1.0728e-12
1.43269e-11
9.86817e-11
-4.99768e-11
9.44839e-13
1.5074e-12
1.41762e-11
9.65181e-11
-4.84567e-11
-4.36196e-12
1.02284e-12
8.44785e-12
1.11751e-10
-5.9382e-11
7.68483e-12
-6.93694e-12
7.89985e-11
-3.70608e-11
-6.49412e-12
-3.43655e-12
2.02162e-11
-1.02855e-11
3.29293e-14
3.47147e-14
1.1487e-09
6.60933e-14
3.57271e-14
1.14779e-09
1.0231e-13
3.15232e-14
1.14659e-09
1.28707e-13
3.41296e-14
1.14537e-09
1.64044e-13
2.27792e-14
1.14416e-09
1.74385e-13
3.31414e-14
1.14297e-09
2.07634e-13
5.56797e-15
1.14174e-09
1.97088e-13
4.34268e-14
1.14032e-09
2.38087e-13
-4.22163e-14
1.13851e-09
1.25996e-13
1.01583e-13
1.13539e-09
2.51884e-13
-1.37278e-13
1.13048e-09
-2.31455e-14
2.37171e-13
1.12898e-09
2.18649e-13
-2.75709e-13
1.12573e-09
6.19552e-11
2.03603e-13
8.72033e-10
6.27972e-11
-6.19671e-11
-6.28119e-11
-4.99816e-11
1.43272e-11
-1.07123e-12
9.86877e-11
3.35838e-14
6.77687e-14
1.14781e-09
6.66805e-14
6.88393e-14
1.14723e-09
1.02024e-13
6.21056e-14
1.14616e-09
1.28065e-13
6.63857e-14
1.14501e-09
1.60888e-13
4.64145e-14
1.14381e-09
1.70393e-13
6.57572e-14
1.14262e-09
2.00028e-13
1.27612e-14
1.14147e-09
1.86054e-13
8.69987e-14
1.14031e-09
2.19426e-13
-7.65178e-14
1.13917e-09
6.19846e-14
2.43254e-13
1.13742e-09
2.26032e-13
-3.01995e-13
1.13483e-09
-1.80365e-13
6.12783e-13
1.13732e-09
1.02834e-13
-5.99904e-13
1.13988e-09
6.46917e-11
3.31495e-14
8.78401e-10
6.6048e-11
-6.45455e-11
-6.5961e-11
-4.84607e-11
9.43558e-13
1.41764e-11
1.50835e-12
9.65239e-11
3.16184e-14
1.03931e-13
1.1466e-09
6.21602e-14
1.04073e-13
1.14626e-09
9.41669e-14
9.44076e-14
1.14541e-09
1.21068e-13
9.66476e-14
1.14429e-09
1.51566e-13
6.99234e-14
1.14315e-09
1.69799e-13
8.71818e-14
1.14202e-09
1.9521e-13
2.23851e-14
1.14102e-09
2.09267e-13
9.67872e-14
1.14022e-09
2.31342e-13
-9.66781e-14
1.13987e-09
2.49376e-13
2.12875e-13
1.13961e-09
2.7392e-13
-3.38601e-13
1.14052e-09
1.58694e-13
6.9016e-13
1.15488e-09
2.75792e-13
-7.5479e-13
1.18687e-09
5.74769e-11
8.55723e-13
9.74227e-10
4.00862e-11
-5.73937e-11
-4.07626e-11
-5.9388e-11
-4.36096e-12
8.44793e-12
1.01962e-12
1.11759e-10
3.30251e-14
1.2994e-13
1.14538e-09
6.54037e-14
1.29627e-13
1.14505e-09
9.55857e-14
1.21078e-13
1.1444e-09
1.20369e-13
1.21067e-13
1.14338e-09
1.42489e-13
9.31145e-14
1.14211e-09
1.54264e-13
1.07568e-13
1.14092e-09
1.71097e-13
3.27423e-14
1.13992e-09
1.71276e-13
1.13885e-13
1.13924e-09
1.76353e-13
-1.05845e-13
1.13917e-09
7.15122e-14
3.01433e-13
1.13944e-09
2.86426e-13
-5.7134e-13
1.14439e-09
-8.57902e-13
1.79698e-12
1.16987e-09
3.14111e-13
-1.96758e-12
1.16278e-09
4.26878e-11
4.44537e-11
7.61806e-10
4.83018e-11
-4.23515e-11
-4.82041e-11
5.77913e-11
-4.48942e-11
-5.66502e-11
-3.70617e-11
7.68811e-12
-6.93808e-12
7.89998e-11
2.41809e-14
1.65396e-13
1.14416e-09
4.77395e-14
1.62253e-13
1.14381e-09
7.07503e-14
1.51792e-13
1.14318e-09
9.39845e-14
1.43034e-13
1.14219e-09
1.14409e-13
1.13894e-13
1.14086e-09
1.40089e-13
1.10321e-13
1.13942e-09
1.51918e-13
4.34188e-14
1.13807e-09
1.98507e-13
7.20906e-14
1.13708e-09
2.02438e-13
-1.08759e-13
1.13648e-09
5.19531e-13
-2.87258e-14
1.1368e-09
5.04123e-14
-1.30887e-13
1.14715e-09
1.33089e-12
4.79666e-13
1.15662e-09
4.65814e-11
8.28879e-13
9.01499e-10
5.50212e-11
-4.79224e-11
-5.51747e-11
-6.42077e-11
1.35078e-11
7.01168e-12
1.34723e-10
-1.0286e-11
-3.43619e-12
-6.49455e-12
2.02167e-11
3.25464e-14
1.75326e-13
1.14296e-09
6.51945e-14
1.71266e-13
1.14262e-09
8.64618e-14
1.6971e-13
1.14203e-09
1.07194e-13
1.54097e-13
1.14094e-09
1.10045e-13
1.39046e-13
1.13944e-09
1.17898e-13
1.17127e-13
1.1377e-09
1.15317e-13
5.55793e-14
1.13576e-09
1.18611e-13
6.28768e-14
1.1339e-09
3.69606e-14
-3.47276e-14
1.13223e-09
1.55605e-13
-1.70419e-13
1.13458e-09
-9.41482e-13
9.38994e-13
1.15515e-09
2.29902e-13
-7.31778e-13
1.13157e-09
5.79217e-11
4.46978e-11
7.21982e-10
6.16014e-11
-5.74774e-11
-6.08508e-11
6.50198e-11
-4.5284e-11
-6.45969e-11
-5.71963e-11
-5.82994e-12
9.65624e-12
8.41796e-12
1.02873e-10
7.67012e-15
2.08609e-13
1.14174e-09
1.47705e-14
2.00677e-13
1.14148e-09
2.37753e-14
1.95153e-13
1.14104e-09
3.41522e-14
1.70719e-13
1.13995e-09
4.42177e-14
1.511e-13
1.13811e-09
5.709e-14
1.1389e-13
1.13582e-09
5.84725e-14
5.76683e-14
1.13314e-09
2.82998e-14
8.48204e-14
1.12984e-09
3.14221e-13
-3.34815e-13
1.12762e-09
1.01528e-13
1.83797e-14
1.13643e-09
1.22223e-12
-2.10979e-13
1.14607e-09
4.69752e-11
1.64275e-12
8.81875e-10
5.89008e-11
-4.81579e-11
-5.88991e-11
-5.5356e-11
1.44378e-11
6.96394e-12
1.25627e-10
-3.17317e-11
-1.14131e-11
-1.62862e-11
4.89435e-12
5.45367e-11
4.29332e-14
1.97828e-13
1.14032e-09
8.60881e-14
1.86435e-13
1.14032e-09
9.551e-14
2.08639e-13
1.14025e-09
1.12518e-13
1.69323e-13
1.13929e-09
7.06699e-14
1.95939e-13
1.13715e-09
6.21467e-14
1.14295e-13
1.13399e-09
8.37948e-14
2.32439e-14
1.13003e-09
7.18637e-14
6.32489e-14
1.12495e-09
1.54002e-13
-4.435e-13
1.12371e-09
-1.08946e-12
1.2269e-12
1.14402e-09
3.03179e-13
-1.63928e-12
1.13593e-09
5.8426e-11
4.37868e-11
7.46621e-10
6.281e-11
-5.79217e-11
-6.18935e-11
5.83652e-11
-4.44427e-11
-5.72133e-11
-5.46223e-11
-5.54139e-12
1.12988e-11
4.47506e-12
1.02815e-10
-3.87638e-14
2.38309e-13
1.13851e-09
-7.34189e-14
2.19671e-13
1.13918e-09
-9.3819e-14
2.30669e-13
1.1399e-09
-1.03717e-13
1.75025e-13
1.13923e-09
-1.07764e-13
2.00276e-13
1.13657e-09
-3.54589e-14
3.02091e-14
1.13237e-09
-3.40965e-13
3.08907e-13
1.12784e-09
-4.4301e-13
1.26267e-13
1.12411e-09
-4.71236e-13
-4.441e-13
1.12711e-09
1.72494e-12
-9.93279e-13
1.13183e-09
4.52401e-11
1.29189e-12
8.80881e-10
5.28088e-11
-4.62879e-11
-5.29874e-11
-6.26359e-11
1.43657e-11
-2.9842e-13
1.37595e-10
-1.70323e-11
-5.82016e-12
-1.1444e-11
3.42965e-11
1.01555e-13
1.26228e-13
1.13539e-09
2.41966e-13
6.2884e-14
1.13744e-09
2.10569e-13
2.48834e-13
1.13964e-09
2.96222e-13
7.1039e-14
1.13949e-09
-3.36847e-14
5.13234e-13
1.13691e-09
-1.83098e-13
1.48756e-13
1.13471e-09
-1.27401e-14
1.02694e-13
1.13668e-09
1.1877e-12
-1.13901e-12
1.14443e-09
-1.00235e-12
1.75549e-12
1.13242e-09
-1.0175e-12
-9.982e-13
1.12273e-09
5.67779e-11
3.38219e-11
7.19421e-10
5.05569e-11
-5.62832e-11
-5.07629e-11
4.32573e-11
-3.47894e-11
-4.23609e-11
-4.57027e-11
6.95177e-12
1.23322e-11
-1.89034e-11
1.02099e-10
-1.35172e-13
2.52101e-13
1.13046e-09
-2.99606e-13
2.26304e-13
1.13486e-09
-3.36475e-13
2.73764e-13
1.14053e-09
-5.70033e-13
2.86287e-13
1.14441e-09
-1.26136e-13
4.58379e-14
1.14723e-09
9.35592e-13
-9.4334e-13
1.15525e-09
-1.90137e-13
1.20469e-12
1.14621e-09
-1.63075e-12
3.00002e-13
1.13618e-09
1.27247e-12
4.52587e-11
8.81316e-10
5.29513e-11
-4.63175e-11
-5.31357e-11
3.37392e-11
5.67914e-11
7.20132e-10
4.3297e-11
-3.4681e-11
-4.2289e-11
5.0566e-11
-5.63094e-11
-5.07884e-11
-5.69668e-11
-1.07126e-11
-1.0596e-11
1.45836e-10
2.38191e-13
-2.29279e-14
1.12897e-09
6.13319e-13
-1.80191e-13
1.13735e-09
6.90739e-13
1.58454e-13
1.15488e-09
1.79803e-12
-8.58371e-13
1.16988e-09
4.81742e-13
1.32666e-12
1.15665e-09
-7.27918e-13
2.30762e-13
1.1316e-09
1.64917e-12
4.69708e-11
8.81908e-10
5.88984e-11
-4.81563e-11
-5.89013e-11
4.37647e-11
5.84259e-11
7.46672e-10
5.83668e-11
-4.44275e-11
-5.72005e-11
6.2811e-11
-5.79186e-11
-6.18928e-11
-6.26356e-11
-3.12948e-13
1.43575e-11
1.37614e-10
-4.57262e-11
6.89028e-12
-1.89033e-11
1.23418e-11
1.02188e-10
-2.73396e-13
2.18582e-13
1.12572e-09
-5.97497e-13
1.02601e-13
1.13988e-09
-7.52406e-13
2.75723e-13
1.18686e-09
-1.96522e-12
3.14022e-13
1.16278e-09
8.29818e-13
4.65802e-11
9.01505e-10
5.5021e-11
-4.79218e-11
-5.51746e-11
4.47016e-11
5.79213e-11
7.21982e-10
6.50216e-11
-4.52865e-11
-6.45977e-11
6.16016e-11
-5.74769e-11
-6.08505e-11
-5.53559e-11
6.96418e-12
1.44367e-11
1.25627e-10
-5.46225e-11
-5.54122e-12
4.47432e-12
1.1299e-11
1.02815e-10
-1.70332e-11
-1.14457e-11
-5.81996e-12
3.42989e-11
2.04897e-13
6.19541e-11
8.72018e-10
6.27966e-11
-6.19662e-11
-6.28112e-11
3.3737e-14
6.46926e-11
8.7837e-10
6.605e-11
-6.45468e-11
-6.59627e-11
8.55968e-13
5.74778e-11
9.74215e-10
4.00868e-11
-5.73945e-11
-4.0763e-11
4.44547e-11
4.26873e-11
7.61808e-10
5.77918e-11
-4.48951e-11
-5.66506e-11
4.83017e-11
-4.23513e-11
-4.82039e-11
-6.42077e-11
7.01173e-12
1.35076e-11
1.34723e-10
-5.71962e-11
-5.83009e-12
8.41787e-12
9.6562e-12
1.02873e-10
-3.17318e-11
-1.6286e-11
-1.14132e-11
4.8945e-12
5.45366e-11
-4.99793e-11
-1.07308e-12
1.4327e-11
9.86851e-11
-4.84584e-11
9.45379e-13
1.50719e-12
1.41768e-11
9.65215e-11
-5.93844e-11
-4.36197e-12
1.02183e-12
8.44761e-12
1.11755e-10
-3.70621e-11
7.68608e-12
-6.93749e-12
7.90012e-11
-1.0286e-11
-6.49446e-12
-3.43633e-12
2.02168e-11
2.74792e-14
2.94701e-14
1.14865e-09
5.34679e-14
2.96625e-14
1.14774e-09
8.1822e-14
2.52301e-14
1.14654e-09
1.01334e-13
2.77634e-14
1.14532e-09
1.31027e-13
1.66644e-14
1.14412e-09
1.3586e-13
2.81328e-14
1.14294e-09
1.68573e-13
3.27265e-16
1.14171e-09
1.49542e-13
4.1967e-14
1.1403e-09
2.01723e-13
-5.02428e-14
1.13852e-09
8.50492e-14
1.03372e-13
1.13541e-09
2.2418e-13
-1.44684e-13
1.13048e-09
-4.41063e-14
2.35704e-13
1.12901e-09
2.09473e-13
-2.77222e-13
1.12575e-09
6.19575e-11
2.06156e-13
8.7206e-10
6.2799e-11
-6.19692e-11
-6.28142e-11
-4.99826e-11
1.4328e-11
-1.07171e-12
9.86897e-11
2.75243e-14
5.53471e-14
1.14775e-09
5.32865e-14
5.5399e-14
1.14718e-09
8.13797e-14
4.84956e-14
1.14611e-09
1.00897e-13
5.31456e-14
1.14497e-09
1.28482e-13
3.34816e-14
1.14377e-09
1.32815e-13
5.44246e-14
1.14259e-09
1.6153e-13
1.76638e-15
1.14144e-09
1.38888e-13
8.28491e-14
1.14029e-09
1.82177e-13
-9.24664e-14
1.13917e-09
2.58383e-14
2.44345e-13
1.13743e-09
1.81921e-13
-3.13271e-13
1.13484e-09
-2.29618e-13
6.14879e-13
1.13735e-09
8.74642e-14
-6.09516e-13
1.1399e-09
6.46935e-11
3.31862e-14
8.78428e-10
6.60499e-11
-6.45475e-11
-6.59633e-11
-4.84617e-11
9.44277e-13
1.41768e-11
1.50804e-12
9.65261e-11
2.54894e-14
8.36361e-14
1.14655e-09
4.87808e-14
8.35043e-14
1.14621e-09
7.38875e-14
7.39975e-14
1.14536e-09
9.44758e-14
7.69623e-14
1.14425e-09
1.19555e-13
5.08489e-14
1.14311e-09
1.33648e-13
6.99488e-14
1.142e-09
1.56736e-13
6.99094e-15
1.14099e-09
1.7458e-13
8.59302e-14
1.1402e-09
1.96475e-13
-1.15814e-13
1.13987e-09
2.18124e-13
2.12033e-13
1.13962e-09
2.48429e-13
-3.53348e-13
1.14053e-09
1.36948e-13
6.95176e-13
1.15491e-09
2.66583e-13
-7.64703e-13
1.1869e-09
5.7478e-11
8.59749e-13
9.7426e-10
4.00876e-11
-5.73963e-11
-4.07637e-11
-5.93896e-11
-4.36109e-12
8.44858e-12
1.01888e-12
1.11761e-10
2.65242e-14
1.02615e-13
1.14533e-09
5.21101e-14
1.02483e-13
1.14501e-09
7.5827e-14
9.43593e-14
1.14436e-09
9.46879e-14
9.53829e-14
1.14335e-09
1.12233e-13
6.82848e-14
1.14208e-09
1.2029e-13
8.48326e-14
1.14089e-09
1.36099e-13
1.19026e-14
1.1399e-09
1.34474e-13
9.91009e-14
1.13923e-09
1.42768e-13
-1.26199e-13
1.13917e-09
3.30714e-14
3.03831e-13
1.13946e-09
2.63877e-13
-5.93443e-13
1.1444e-09
-8.73462e-13
1.80199e-12
1.16991e-09
3.08315e-13
-1.97663e-12
1.16281e-09
4.2689e-11
4.44559e-11
7.61832e-10
4.83036e-11
-4.2353e-11
-4.82055e-11
5.7795e-11
-4.48944e-11
-5.66496e-11
-3.70629e-11
7.68914e-12
-6.93852e-12
7.90018e-11
1.84078e-14
1.32496e-13
1.14411e-09
3.51718e-14
1.29841e-13
1.14377e-09
5.18909e-14
1.19746e-13
1.14314e-09
6.93487e-14
1.12717e-13
1.14215e-09
8.54707e-14
8.48465e-14
1.14083e-09
1.0812e-13
8.36666e-14
1.1394e-09
1.1725e-13
2.15802e-14
1.13805e-09
1.71435e-13
5.11497e-14
1.13708e-09
1.72449e-13
-1.26318e-13
1.13648e-09
5.05002e-13
-4.08688e-14
1.13681e-09
3.74005e-14
-1.43816e-13
1.14717e-09
1.32583e-12
4.8172e-13
1.15665e-09
4.65821e-11
8.26265e-13
9.01519e-10
5.50221e-11
-4.79248e-11
-5.51778e-11
-6.42093e-11
1.35076e-11
7.01304e-12
1.34727e-10
-1.02863e-11
-3.43587e-12
-6.49501e-12
2.02171e-11
2.7387e-14
1.36906e-13
1.14294e-09
5.38048e-14
1.33689e-13
1.14259e-09
6.91625e-14
1.336e-13
1.14201e-09
8.44548e-14
1.20037e-13
1.14092e-09
8.35058e-14
1.06898e-13
1.13942e-09
8.88934e-14
8.78618e-14
1.13769e-09
8.8284e-14
2.94229e-14
1.13575e-09
9.32181e-14
4.08064e-14
1.1339e-09
1.31265e-14
-4.48051e-14
1.13223e-09
1.37125e-13
-1.85876e-13
1.1346e-09
-9.57958e-13
9.31374e-13
1.15517e-09
2.2475e-13
-7.32653e-13
1.1316e-09
5.79235e-11
4.46991e-11
7.21999e-10
6.16034e-11
-5.7479e-11
-6.08525e-11
6.50215e-11
-4.52852e-11
-6.45987e-11
-5.71979e-11
-5.83012e-12
9.65668e-12
8.41797e-12
1.02876e-10
2.67897e-15
1.69556e-13
1.14171e-09
3.6157e-15
1.62287e-13
1.14145e-09
8.3641e-15
1.56542e-13
1.14101e-09
1.32531e-14
1.35597e-13
1.13993e-09
2.22901e-14
1.16398e-13
1.13809e-09
3.05095e-14
8.66431e-14
1.13581e-09
3.22939e-14
3.27424e-14
1.13313e-09
-7.44088e-15
6.92728e-14
1.12985e-09
2.93935e-13
-3.56074e-13
1.12763e-09
8.14421e-14
3.91261e-15
1.13646e-09
1.21579e-12
-2.24658e-13
1.14609e-09
4.69764e-11
1.64092e-12
8.81897e-10
5.89024e-11
-4.81593e-11
-5.89007e-11
-5.53573e-11
1.44376e-11
6.96436e-12
1.2563e-10
-3.17326e-11
-1.14142e-11
-1.62865e-11
4.89484e-12
5.45384e-11
4.15511e-14
1.50281e-13
1.1403e-09
8.19131e-14
1.39472e-13
1.14031e-09
8.45727e-14
1.74071e-13
1.14023e-09
9.74221e-14
1.33348e-13
1.13928e-09
5.02585e-14
1.67055e-13
1.13715e-09
4.09933e-14
8.95087e-14
1.134e-09
6.89332e-14
-7.34397e-15
1.13004e-09
6.27795e-14
5.42013e-14
1.12497e-09
1.39553e-13
-4.50399e-13
1.12373e-09
-1.09949e-12
1.21747e-12
1.14405e-09
2.95783e-13
-1.64535e-12
1.13596e-09
5.8427e-11
4.37874e-11
7.46641e-10
6.28118e-11
-5.79234e-11
-6.18948e-11
5.83662e-11
-4.4444e-11
-5.72152e-11
-5.46242e-11
-5.54111e-12
1.12987e-11
4.47442e-12
1.02818e-10
-4.69295e-14
2.01956e-13
1.13851e-09
-8.95311e-14
1.82401e-13
1.13919e-09
-1.13149e-13
1.95779e-13
1.13991e-09
-1.24248e-13
1.41492e-13
1.13923e-09
-1.26106e-13
1.7044e-13
1.13657e-09
-4.64418e-14
8.30387e-15
1.13238e-09
-3.59104e-13
2.91354e-13
1.12785e-09
-4.52893e-13
1.25665e-13
1.12413e-09
-4.69892e-13
-4.60534e-13
1.12714e-09
1.72563e-12
-1.00211e-12
1.13185e-09
4.52397e-11
1.30069e-12
8.80892e-10
5.28087e-11
-4.62909e-11
-5.29908e-11
-6.26377e-11
1.43653e-11
-2.98911e-13
1.37598e-10
-1.70328e-11
-5.8196e-12
-1.14449e-11
3.42973e-11
1.03392e-13
8.53419e-14
1.13541e-09
2.43373e-13
2.61291e-14
1.13746e-09
2.10288e-13
2.17525e-13
1.13965e-09
3.00348e-13
3.23285e-14
1.13951e-09
-4.31208e-14
5.01327e-13
1.13693e-09
-1.91094e-13
1.32209e-13
1.13474e-09
-4.94259e-15
8.15293e-14
1.1367e-09
1.20598e-12
-1.11923e-12
1.14447e-09
-1.00804e-12
1.73747e-12
1.13243e-09
-1.00348e-12
-1.03732e-12
1.12276e-09
5.67716e-11
3.38414e-11
7.19392e-10
5.05443e-11
-5.62924e-11
-5.07784e-11
4.33162e-11
-3.47751e-11
-4.23011e-11
-4.57075e-11
6.95114e-12
1.2331e-11
-1.89056e-11
1.02102e-10
-1.42764e-13
2.24389e-13
1.13047e-09
-3.1087e-13
1.82416e-13
1.13487e-09
-3.51509e-13
2.48152e-13
1.14055e-09
-5.92946e-13
2.63767e-13
1.14443e-09
-1.41317e-13
2.98556e-14
1.14725e-09
9.31661e-13
-9.59803e-13
1.15527e-09
-2.18481e-13
1.20641e-12
1.14624e-09
-1.64209e-12
2.9199e-13
1.13619e-09
1.27853e-12
4.52669e-11
8.81362e-10
5.29597e-11
-4.63193e-11
-5.31384e-11
3.372e-11
5.67969e-11
7.20164e-10
4.32474e-11
-3.46983e-11
-4.23431e-11
5.05731e-11
-5.63068e-11
-5.07811e-11
-5.69751e-11
-1.06356e-11
-1.06673e-11
1.4584e-10
2.36875e-13
-4.39206e-14
1.129e-09
6.15439e-13
-2.29438e-13
1.13738e-09
6.95783e-13
1.36534e-13
1.15491e-09
1.80288e-12
-8.73947e-13
1.16991e-09
4.81729e-13
1.32226e-12
1.15668e-09
-7.32969e-13
2.25221e-13
1.13163e-09
1.63892e-12
4.69729e-11
8.81926e-10
5.89017e-11
-4.81571e-11
-5.8902e-11
4.37659e-11
5.84258e-11
7.46687e-10
5.83608e-11
-4.44271e-11
-5.72063e-11
6.2812e-11
-5.79217e-11
-6.18951e-11
-6.26378e-11
-3.12883e-13
1.43646e-11
1.37618e-10
-4.57286e-11
6.88766e-12
-1.88986e-11
1.23421e-11
1.02194e-10
-2.74667e-13
2.09274e-13
1.12574e-09
-6.06996e-13
8.68543e-14
1.1399e-09
-7.62202e-13
2.66254e-13
1.18689e-09
-1.97414e-12
3.07969e-13
1.1628e-09
8.27139e-13
4.65809e-11
9.01523e-10
5.5022e-11
-4.79243e-11
-5.51778e-11
4.47026e-11
5.79232e-11
7.21998e-10
6.50231e-11
-4.52877e-11
-6.45996e-11
6.16037e-11
-5.74785e-11
-6.08522e-11
-5.53569e-11
6.96482e-12
1.44367e-11
1.2563e-10
-5.46236e-11
-5.54178e-12
4.47319e-12
1.12989e-11
1.02818e-10
-1.70337e-11
-1.14492e-11
-5.81732e-12
3.43002e-11
2.07649e-13
6.19564e-11
8.72046e-10
6.27984e-11
-6.19683e-11
-6.28134e-11
3.39498e-14
6.46942e-11
8.78397e-10
6.60518e-11
-6.45489e-11
-6.5965e-11
8.60112e-13
5.74788e-11
9.74248e-10
4.00882e-11
-5.73972e-11
-4.07641e-11
4.44569e-11
4.26885e-11
7.61834e-10
5.77955e-11
-4.48952e-11
-5.66499e-11
4.83034e-11
-4.23529e-11
-4.82053e-11
-6.42094e-11
7.0131e-12
1.35073e-11
1.34727e-10
-5.71978e-11
-5.83029e-12
8.41792e-12
9.65665e-12
1.02876e-10
-3.17326e-11
-1.62863e-11
-1.14143e-11
4.89492e-12
5.45382e-11
-4.99802e-11
-1.07349e-12
1.43277e-11
9.8687e-11
-4.84593e-11
9.46047e-13
1.5069e-12
1.41771e-11
9.65236e-11
-5.9386e-11
-4.36212e-12
1.02111e-12
8.44817e-12
1.11758e-10
-3.70633e-11
7.68705e-12
-6.93793e-12
7.90032e-11
-1.02863e-11
-6.49491e-12
-3.43603e-12
2.02172e-11
2.31535e-14
2.57148e-14
1.14862e-09
4.44432e-14
2.5739e-14
1.1477e-09
6.76136e-14
2.11625e-14
1.1465e-09
8.28634e-14
2.33124e-14
1.14529e-09
1.07613e-13
1.18356e-14
1.14408e-09
1.10554e-13
2.36866e-14
1.14292e-09
1.40452e-13
-7.99042e-15
1.1417e-09
1.14394e-13
4.03622e-14
1.14029e-09
1.73975e-13
-5.83952e-14
1.13851e-09
5.10226e-14
1.06231e-13
1.13542e-09
2.01281e-13
-1.49198e-13
1.13048e-09
-6.35878e-14
2.38665e-13
1.12903e-09
2.03474e-13
-2.86712e-13
1.12577e-09
6.19585e-11
2.0649e-13
8.72086e-10
6.27995e-11
-6.19716e-11
-6.28165e-11
-4.99831e-11
1.43286e-11
-1.07184e-12
9.86914e-11
2.35777e-14
4.69324e-14
1.14771e-09
4.45351e-14
4.66626e-14
1.14714e-09
6.69433e-14
3.94143e-14
1.14607e-09
8.21396e-14
4.38151e-14
1.14493e-09
1.05156e-13
2.39186e-14
1.14373e-09
1.07473e-13
4.56703e-14
1.14257e-09
1.33811e-13
-1.25282e-14
1.14142e-09
1.04276e-13
8.2343e-14
1.14028e-09
1.54449e-13
-1.05906e-13
1.13916e-09
7.62516e-15
2.44393e-13
1.13744e-09
1.92516e-13
-3.276e-13
1.13484e-09
-2.03426e-13
6.13572e-13
1.13737e-09
8.58603e-14
-6.08013e-13
1.13993e-09
6.46939e-11
3.51034e-14
8.78455e-10
6.60506e-11
-6.45497e-11
-6.59655e-11
-4.84624e-11
9.44411e-13
1.41766e-11
1.50794e-12
9.65278e-11
2.15194e-14
6.9839e-14
1.14651e-09
3.9907e-14
6.92177e-14
1.14617e-09
5.94656e-14
5.94583e-14
1.14532e-09
7.57997e-14
6.25402e-14
1.14422e-09
9.60694e-14
3.66699e-14
1.14308e-09
1.07758e-13
5.70446e-14
1.14197e-09
1.2847e-13
-9.91486e-15
1.14097e-09
1.44478e-13
8.10282e-14
1.14018e-09
1.71386e-13
-1.32243e-13
1.13987e-09
1.94202e-13
2.12789e-13
1.13963e-09
2.28681e-13
-3.66966e-13
1.14054e-09
1.16875e-13
6.99272e-13
1.15494e-09
2.58705e-13
-7.7309e-13
1.18692e-09
5.74775e-11
8.62066e-13
9.74289e-10
4.00885e-11
-5.73994e-11
-4.07646e-11
-5.93909e-11
-4.3613e-12
8.44811e-12
1.01825e-12
1.11763e-10
2.18063e-14
8.44674e-14
1.1453e-09
4.26386e-14
8.39349e-14
1.14498e-09
6.12963e-14
7.56757e-14
1.14432e-09
7.62347e-14
7.70413e-14
1.14332e-09
9.0239e-14
5.04219e-14
1.14205e-09
9.62256e-14
6.85757e-14
1.14087e-09
1.10807e-13
-6.58381e-15
1.13988e-09
1.04588e-13
9.52749e-14
1.13922e-09
1.17904e-13
-1.45805e-13
1.13917e-09
1.27533e-14
3.06068e-13
1.13947e-09
2.45825e-13
-6.10244e-13
1.14441e-09
-8.86286e-13
1.80571e-12
1.16993e-09
3.02371e-13
-1.98592e-12
1.16283e-09
4.26896e-11
4.44569e-11
7.61854e-10
4.83045e-11
-4.23543e-11
-4.82068e-11
5.77973e-11
-4.48948e-11
-5.66499e-11
-3.70636e-11
7.69001e-12
-6.93919e-12
7.90032e-11
1.3982e-14
1.09323e-13
1.14408e-09
2.60219e-14
1.06548e-13
1.14374e-09
3.79332e-14
9.62794e-14
1.1431e-09
5.16006e-14
9.06495e-14
1.14212e-09
6.4283e-14
6.35801e-14
1.1408e-09
8.61092e-14
6.4204e-14