/*--------------------------------*- C++ -*----------------------------------*\
| =========                 |                                                 |
| \\      /  F ield         | OpenFOAM: The Open Source CFD Toolbox           |
|  \\    /   O peration     | Version:  2.1.1                                 |
|   \\  /    A nd           | Web:      www.OpenFOAM.org                      |
|    \\/     M anipulation  |                                                 |
\*---------------------------------------------------------------------------*/
FoamFile
{
    version     2.0;
    format      ascii;
    class       volScalarField;
    location    "0.0045";
    object      p;
}
// * * * * * * * * * * * * * * * * * * * * * * * * * * * * * * * * * * * * * //

dimensions      [0 2 -2 0 0 0 0];

internalField   nonuniform List<scalar> 
10266
(
0.0544646
0.0519501
0.0517514
0.0518861
0.0517984
0.0518573
0.0518245
0.0518501
0.0518379
0.0518508
0.0518468
0.0518538
0.051853
0.0518562
0.0518563
0.0548788
0.0519919
0.0517446
0.0518942
0.0517945
0.051861
0.0518256
0.0518512
0.0518388
0.0518515
0.0518474
0.0518543
0.0518534
0.0518566
0.0518566
0.0562506
0.0518679
0.0517904
0.0518626
0.051811
0.0518512
0.0518278
0.0518485
0.0518383
0.0518495
0.0518457
0.051852
0.0518509
0.0518538
0.0518537
0.0520641
0.051736
0.0518913
0.0518114
0.0518569
0.0518307
0.0518493
0.0518401
0.05185
0.0518468
0.0518527
0.0518519
0.0518548
0.0518548
0.0604896
0.0518508
0.0518228
0.0518274
0.0518428
0.0518318
0.0518447
0.0518374
0.0518459
0.0518425
0.0518474
0.0518461
0.0518484
0.051848
0.0548586
0.0519828
0.0518127
0.0518501
0.0518436
0.0518376
0.0518455
0.0518411
0.0518474
0.0518453
0.0518501
0.0518495
0.0518522
0.0518522
0.0624527
0.051888
0.0517955
0.0518539
0.0518305
0.0518427
0.0518346
0.0518417
0.0518374
0.0518408
0.0518387
0.05184
0.0518393
0.0550063
0.0519887
0.0518055
0.0518446
0.0518354
0.0518438
0.0518418
0.0518453
0.0518434
0.0518492
0.0518481
0.0518519
0.0518517
0.060286
0.0518496
0.0518588
0.0518458
0.0518357
0.0518302
0.0518378
0.0518312
0.0518314
0.0518281
0.0518272
0.051826
0.057107
0.0520735
0.0516923
0.0518582
0.0518442
0.0518526
0.0518429
0.0518412
0.0518556
0.0518516
0.0518613
0.0518604
0.0727209
0.0520789
0.0518494
0.0518053
0.0517944
0.0518499
0.0518251
0.0518127
0.0518105
0.0518023
0.0518002
0.0705163
0.0645554
0.0519879
0.0518866
0.0518111
0.051821
0.0518896
0.0518628
0.0518968
0.0518901
0.0618847
0.0630163
0.0519817
0.0518482
0.0517382
0.0517851
0.0517406
0.0517465
0.054968
0.0600635
0.0624079
0.0520565
0.0518647
0.0519808
0.0519515
0.0679376
0.0637698
0.0635465
0.062889
0.0533971
0.0508823
0.0506825
0.0508218
0.0507328
0.0507921
0.0507574
0.0507827
0.0507697
0.0507821
0.0507775
0.0507842
0.0507829
0.0507859
0.0507858
0.053819
0.0509278
0.0506753
0.0508345
0.0507316
0.0507968
0.0507586
0.0507841
0.0507708
0.050783
0.0507784
0.0507848
0.0507835
0.0507864
0.0507862
0.055188
0.0508018
0.0507261
0.0507995
0.050746
0.0507859
0.0507612
0.0507813
0.0507705
0.0507814
0.0507769
0.0507828
0.0507813
0.0507839
0.0507837
0.050992
0.0506781
0.0508288
0.0507452
0.050792
0.0507639
0.0507825
0.0507725
0.0507821
0.0507784
0.0507838
0.0507827
0.0507853
0.0507852
0.0594233
0.0507863
0.0507581
0.0507621
0.0507768
0.0507656
0.0507781
0.0507702
0.0507784
0.0507745
0.050779
0.0507773
0.0507794
0.0507789
0.0537934
0.0509171
0.0507475
0.0507839
0.0507781
0.0507712
0.0507791
0.0507742
0.0507802
0.0507777
0.0507822
0.0507813
0.0507838
0.0507838
0.0613873
0.0508225
0.0507294
0.0507885
0.0507641
0.0507767
0.050768
0.050775
0.0507702
0.0507733
0.0507709
0.050772
0.0507715
0.0539406
0.050923
0.0507396
0.0507789
0.0507695
0.0507776
0.0507757
0.0507789
0.0507767
0.0507822
0.0507809
0.0507848
0.0507846
0.0592204
0.0507838
0.0507931
0.0507799
0.0507698
0.0507639
0.0507713
0.0507649
0.0507647
0.0507614
0.0507601
0.0507589
0.0560408
0.0510105
0.0506267
0.0507924
0.0507784
0.0507872
0.0507771
0.0507752
0.0507901
0.0507858
0.0507954
0.0507948
0.0716803
0.0510097
0.0507832
0.0507393
0.0507283
0.0507837
0.0507593
0.050746
0.0507432
0.0507322
0.0507324
0.0694529
0.0634901
0.0509222
0.050821
0.0507456
0.0507556
0.0508243
0.0507975
0.0508275
0.0508247
0.0608192
0.0619507
0.0509157
0.0507822
0.0506722
0.0507195
0.0506804
0.0506807
0.0539021
0.0589981
0.0613427
0.0509913
0.0508
0.0509171
0.0508872
0.0668726
0.0627047
0.0624813
0.0618236
0.0523272
0.0498157
0.0496145
0.0497562
0.0496664
0.0497268
0.0496901
0.0497156
0.0497018
0.0497139
0.0497087
0.0497149
0.0497133
0.049716
0.0497158
0.0527545
0.0498611
0.0496051
0.0497678
0.0496697
0.0497324
0.0496913
0.0497172
0.049703
0.0497147
0.0497096
0.0497157
0.049714
0.0497167
0.0497164
0.0541231
0.0497375
0.0496575
0.0497337
0.0496802
0.0497204
0.0496945
0.049714
0.0497027
0.0497133
0.0497085
0.0497139
0.0497121
0.0497145
0.0497141
0.0499355
0.0496023
0.049761
0.0496782
0.0497265
0.0496969
0.0497157
0.0497051
0.0497142
0.0497101
0.0497151
0.0497137
0.0497161
0.0497159
0.0583592
0.049719
0.0496918
0.049696
0.0497105
0.0496991
0.0497112
0.0497031
0.0497109
0.0497066
0.0497108
0.0497089
0.0497107
0.0497102
0.0527276
0.0498507
0.0496816
0.0497175
0.0497121
0.0497047
0.0497125
0.0497072
0.049713
0.04971
0.0497142
0.0497132
0.0497156
0.0497155
0.0603214
0.0497566
0.049663
0.0497227
0.0496977
0.0497105
0.0497012
0.0497086
0.0497029
0.0497055
0.0497033
0.0497043
0.0497036
0.0528745
0.0498571
0.0496734
0.0497129
0.0497034
0.0497114
0.0497096
0.0497123
0.0497098
0.0497153
0.049714
0.0497179
0.0497177
0.0581545
0.0497176
0.0497271
0.0497138
0.0497036
0.0496975
0.0497048
0.0496986
0.0496976
0.0496945
0.0496928
0.0496915
0.0549749
0.0499437
0.0495608
0.0497264
0.0497125
0.0497215
0.0497111
0.0497092
0.0497244
0.0497204
0.0497306
0.0497295
0.070608
0.0499445
0.0497171
0.0496732
0.049662
0.0497174
0.0496933
0.0496794
0.0496773
0.0496707
0.049666
0.0683866
0.0624243
0.0498563
0.0497552
0.0496799
0.0496899
0.0497588
0.0497329
0.0497669
0.0497602
0.0597534
0.0608849
0.0498496
0.049716
0.049606
0.0496516
0.0496053
0.049613
0.052836
0.0579323
0.0602772
0.0499255
0.049734
0.0498495
0.0498209
0.0658071
0.061639
0.0614154
0.0607577
0.0512643
0.0487513
0.0485481
0.0486898
0.0485971
0.0486603
0.0486224
0.0486485
0.048634
0.0486457
0.0486403
0.048646
0.048644
0.0486464
0.0486462
0.0516851
0.0487948
0.0485457
0.0487031
0.0485943
0.0486641
0.0486235
0.0486503
0.0486353
0.0486466
0.0486412
0.0486467
0.0486448
0.0486472
0.0486469
0.0530548
0.0486704
0.0485924
0.0486683
0.0486117
0.0486535
0.0486271
0.0486468
0.0486351
0.0486451
0.0486401
0.0486452
0.0486432
0.0486453
0.0486449
0.0488604
0.048545
0.048697
0.0486114
0.0486601
0.0486296
0.0486489
0.0486377
0.0486463
0.0486419
0.0486466
0.048645
0.0486471
0.0486469
0.0572916
0.0486534
0.048626
0.0486295
0.048644
0.0486323
0.048644
0.0486357
0.0486434
0.0486388
0.0486427
0.0486406
0.0486423
0.0486417
0.0516614
0.0487843
0.0486155
0.0486509
0.0486458
0.0486383
0.0486457
0.0486404
0.0486455
0.0486425
0.0486464
0.0486452
0.0486474
0.0486472
0.059255
0.0486904
0.0485964
0.0486566
0.0486309
0.048644
0.0486341
0.0486411
0.048636
0.0486384
0.0486359
0.0486366
0.0486358
0.0518081
0.0487909
0.0486071
0.0486467
0.048637
0.048645
0.0486432
0.0486455
0.0486431
0.0486486
0.0486472
0.048651
0.0486507
0.0570884
0.0486513
0.048661
0.0486476
0.0486372
0.048631
0.0486383
0.048632
0.0486305
0.0486274
0.0486253
0.0486238
0.0539088
0.0488779
0.0484949
0.0486604
0.0486464
0.0486556
0.048645
0.0486431
0.0486583
0.0486542
0.048663
0.0486632
0.0695447
0.0488781
0.0486508
0.0486069
0.0485955
0.048651
0.048627
0.0486126
0.0486093
0.0485956
0.0485977
0.0673212
0.0613586
0.0487903
0.0486892
0.0486139
0.048624
0.0486929
0.048667
0.0486975
0.0486941
0.0586874
0.0598188
0.0487833
0.0486497
0.0485395
0.0485863
0.0485495
0.0485476
0.0517699
0.0568663
0.0592114
0.0488597
0.0486687
0.048786
0.0487566
0.0647412
0.060573
0.0603495
0.0596919
0.0501998
0.0476842
0.0474781
0.0476251
0.0475317
0.0475945
0.0475548
0.0475814
0.0475663
0.0475775
0.0475719
0.047577
0.047575
0.047577
0.0475767
0.0506139
0.0477245
0.0474741
0.0476365
0.0475324
0.0475987
0.047556
0.0475832
0.0475676
0.0475785
0.0475729
0.0475779
0.0475759
0.0475779
0.0475775
0.0519857
0.0476048
0.0475217
0.0476014
0.0475448
0.0475873
0.0475597
0.0475795
0.0475673
0.0475768
0.0475718
0.0475764
0.0475743
0.0475762
0.0475758
0.0478026
0.0474682
0.0476279
0.0475442
0.0475935
0.0475624
0.047582
0.0475702
0.0475785
0.047574
0.0475781
0.0475764
0.0475783
0.0475779
0.0562261
0.047585
0.0475588
0.0475626
0.0475772
0.0475652
0.0475768
0.0475687
0.0475756
0.047571
0.0475746
0.0475724
0.0475739
0.0475733
0.0505946
0.0477175
0.047549
0.0475843
0.0475792
0.0475717
0.047579
0.0475735
0.0475782
0.0475751
0.0475786
0.0475774
0.0475793
0.0475791
0.0581884
0.047624
0.0475297
0.0475902
0.047564
0.0475771
0.047567
0.0475739
0.0475688
0.047571
0.0475685
0.0475689
0.047568
0.0507417
0.0477247
0.0475406
0.0475804
0.0475705
0.0475787
0.0475766
0.0475787
0.0475765
0.0475817
0.0475806
0.047584
0.0475838
0.0560223
0.0475849
0.0475947
0.0475812
0.0475706
0.0475643
0.0475716
0.0475654
0.0475634
0.0475605
0.0475583
0.0475566
0.0528428
0.0478112
0.0474288
0.0475941
0.0475801
0.0475895
0.0475786
0.0475769
0.0475923
0.0475892
0.0476
0.047598
0.068477
0.0478121
0.0475845
0.0475405
0.0475291
0.0475844
0.0475607
0.047546
0.0475443
0.0475406
0.0475321
0.0662555
0.0602928
0.0477243
0.0476231
0.0475478
0.0475579
0.047627
0.0476017
0.047634
0.0476293
0.0576215
0.0587526
0.0477168
0.0475832
0.0474727
0.0475171
0.0474696
0.0474792
0.0507037
0.0558001
0.0581453
0.0477931
0.0476015
0.0477163
0.0476888
0.0636749
0.0595064
0.0592828
0.0586252
0.049133
0.0466201
0.0464117
0.0465581
0.0464621
0.0465276
0.046487
0.0465143
0.0464985
0.0465095
0.0465035
0.0465082
0.046506
0.0465077
0.0465075
0.0495437
0.0466566
0.0464124
0.0465685
0.0464621
0.0465313
0.0464886
0.0465163
0.0464999
0.0465107
0.0465048
0.0465093
0.0465071
0.0465089
0.0465085
0.0509167
0.0465365
0.0464552
0.0465353
0.0464769
0.0465206
0.0464921
0.0465124
0.0464996
0.0465089
0.0465035
0.0465076
0.0465054
0.0465071
0.0465067
0.0467256
0.0464114
0.0465635
0.0464775
0.0465267
0.0464951
0.046515
0.0465028
0.046511
0.0465063
0.04651
0.0465083
0.0465098
0.0465095
0.0551576
0.0465191
0.0464926
0.0464957
0.0465104
0.046498
0.0465095
0.0465009
0.0465077
0.0465031
0.0465064
0.0465041
0.0465053
0.0465048
0.0495278
0.0466508
0.0464825
0.0465175
0.0465126
0.0465049
0.0465122
0.0465065
0.046511
0.046508
0.0465112
0.04651
0.0465116
0.0465114
0.0571218
0.0465574
0.046463
0.0465236
0.046497
0.04651
0.0465
0.0465065
0.0465015
0.0465033
0.0465008
0.0465009
0.0465001
0.0496753
0.0466582
0.0464741
0.0465139
0.0465038
0.0465122
0.04651
0.0465121
0.0465099
0.0465149
0.0465139
0.0465171
0.046517
0.0549561
0.0465184
0.0465281
0.0465148
0.0465038
0.0464975
0.0465047
0.0464985
0.0464961
0.0464932
0.0464908
0.0464891
0.0517766
0.0467451
0.0463624
0.0465277
0.0465137
0.0465233
0.0465122
0.0465105
0.046526
0.046523
0.0465336
0.0465318
0.0674126
0.0467452
0.046518
0.046474
0.0464625
0.0465177
0.0464942
0.046479
0.0464772
0.0464728
0.0464649
0.0651895
0.0592266
0.046658
0.0465568
0.0464815
0.0464916
0.0465607
0.0465356
0.0465673
0.0465632
0.0565554
0.0576863
0.0466502
0.0465166
0.046406
0.0464503
0.046404
0.0464123
0.0496373
0.0547338
0.057079
0.0467268
0.0465353
0.0466503
0.0466226
0.0626085
0.0584398
0.0582162
0.0575585
0.0480658
0.0455535
0.0453435
0.0454927
0.0453954
0.0454615
0.0454195
0.0454473
0.0454304
0.0454416
0.045435
0.0454395
0.045437
0.0454385
0.0454384
0.0484742
0.0455866
0.0453401
0.045502
0.0453993
0.0454653
0.0454211
0.0454493
0.0454322
0.0454431
0.0454366
0.0454409
0.0454386
0.0454401
0.0454397
0.0498482
0.0454703
0.0453854
0.0454682
0.0454097
0.0454541
0.0454245
0.0454452
0.0454315
0.045441
0.0454351
0.0454391
0.0454367
0.0454381
0.0454377
0.0456648
0.045337
0.0454946
0.0454104
0.0454598
0.0454279
0.045448
0.0454352
0.0454436
0.0454386
0.0454422
0.0454403
0.0454416
0.0454414
0.0540913
0.0454508
0.0454253
0.0454285
0.0454435
0.0454306
0.0454423
0.0454332
0.04544
0.0454349
0.0454381
0.0454356
0.0454368
0.0454362
0.0484609
0.0455838
0.0454156
0.0454506
0.0454458
0.0454379
0.0454454
0.0454391
0.0454441
0.0454409
0.045444
0.0454427
0.0454441
0.0454441
0.0560549
0.0454907
0.045396
0.0454569
0.0454299
0.0454429
0.0454332
0.0454392
0.045434
0.0454355
0.0454329
0.0454328
0.045432
0.0486084
0.0455916
0.0454073
0.0454473
0.0454371
0.0454459
0.0454432
0.0454456
0.0454431
0.0454482
0.0454472
0.0454503
0.0454502
0.0538894
0.0454517
0.0454614
0.0454483
0.045437
0.0454305
0.0454376
0.0454314
0.0454286
0.0454255
0.0454228
0.0454213
0.0507099
0.0456782
0.0452959
0.0454612
0.0454476
0.0454565
0.0454457
0.045444
0.0454594
0.0454559
0.0454645
0.0454647
0.0663442
0.0456789
0.0454515
0.0454073
0.0453957
0.0454509
0.0454274
0.0454118
0.0454084
0.0453954
0.0453964
0.064123
0.0581602
0.0455916
0.0454903
0.0454151
0.0454251
0.0454943
0.045469
0.0454986
0.045496
0.0554889
0.0566198
0.0455836
0.04545
0.0453394
0.0453855
0.0453488
0.0453468
0.0485708
0.0536674
0.0560127
0.0456609
0.0454701
0.0455871
0.0455581
0.0615422
0.0573736
0.0571501
0.0564923
0.0469991
0.0444882
0.044277
0.044426
0.0443273
0.0443947
0.0443516
0.0443802
0.0443621
0.0443739
0.0443663
0.0443711
0.0443681
0.0443697
0.0443694
0.0474058
0.0445203
0.0442792
0.0444329
0.0443273
0.0443972
0.0443535
0.0443822
0.044364
0.0443756
0.0443682
0.0443729
0.04437
0.0443716
0.0443711
0.0487804
0.0444032
0.0443191
0.0444014
0.0443415
0.0443871
0.0443567
0.0443781
0.0443637
0.0443735
0.0443666
0.0443709
0.0443678
0.0443693
0.0443688
0.0445939
0.0442739
0.0444284
0.0443433
0.0443926
0.0443606
0.0443811
0.0443678
0.0443764
0.0443707
0.0443746
0.0443722
0.0443736
0.0443733
0.0530241
0.044384
0.0443585
0.0443613
0.0443766
0.0443633
0.0443752
0.0443655
0.0443726
0.0443667
0.0443701
0.044367
0.0443682
0.0443675
0.0473942
0.044517
0.0443489
0.0443837
0.0443791
0.044371
0.0443789
0.0443725
0.0443774
0.0443736
0.0443769
0.0443753
0.0443769
0.0443768
0.0549881
0.0444239
0.044329
0.0443901
0.0443628
0.0443757
0.0443655
0.0443716
0.0443661
0.0443678
0.0443647
0.0443647
0.0443639
0.0475416
0.0445249
0.0443406
0.0443808
0.0443704
0.0443795
0.0443763
0.0443791
0.0443763
0.0443816
0.0443804
0.0443835
0.0443835
0.0528227
0.044385
0.0443947
0.0443817
0.04437
0.0443635
0.0443705
0.0443642
0.0443614
0.0443581
0.0443555
0.0443538
0.0496432
0.0446119
0.0442293
0.0443946
0.0443807
0.0443904
0.0443793
0.0443774
0.044393
0.04439
0.0444001
0.0443987
0.0652795
0.0446119
0.0443847
0.0443406
0.044329
0.0443841
0.0443607
0.0443449
0.0443426
0.0443372
0.0443301
0.0630564
0.0570936
0.0445251
0.0444239
0.0443487
0.0443587
0.044428
0.0444031
0.0444346
0.0444307
0.0544224
0.0555532
0.0445169
0.0443834
0.0442727
0.044317
0.0442718
0.0442789
0.0475042
0.0526009
0.0549463
0.0445943
0.0444031
0.0445181
0.0444904
0.0604758
0.0563071
0.0560835
0.0554256
0.0459329
0.0434211
0.0432099
0.0433606
0.0432605
0.0433281
0.0432838
0.0433131
0.0432939
0.0433064
0.0432976
0.043303
0.0432993
0.0433011
0.0433005
0.0463384
0.0434515
0.0432051
0.0433677
0.043266
0.0433312
0.043286
0.0433151
0.043296
0.0433083
0.0432997
0.043305
0.0433014
0.0433032
0.0433026
0.0477132
0.0433362
0.0432505
0.0433349
0.0432747
0.0433206
0.043289
0.0433111
0.0432956
0.043306
0.043298
0.0433028
0.043299
0.0433008
0.0433
0.0435282
0.0432053
0.043361
0.0432763
0.0433256
0.0432934
0.0433142
0.0433001
0.0433093
0.0433027
0.043307
0.0433041
0.0433058
0.0433053
0.0519572
0.0433167
0.0432915
0.0432942
0.0433097
0.0432959
0.0433082
0.0432977
0.0433051
0.0432984
0.0433021
0.0432985
0.0432998
0.0432989
0.0463273
0.04345
0.043282
0.0433168
0.0433123
0.0433039
0.0433122
0.043305
0.0433105
0.0433062
0.0433099
0.0433079
0.0433097
0.0433094
0.0539212
0.0433571
0.043262
0.0433232
0.0432957
0.0433087
0.0432982
0.0433044
0.0432981
0.0433
0.0432966
0.0432967
0.0432957
0.0464751
0.0434583
0.0432739
0.0433143
0.0433036
0.043313
0.0433094
0.0433126
0.0433094
0.0433151
0.0433135
0.0433168
0.0433168
0.0517562
0.0433182
0.0433281
0.043315
0.0433032
0.0432961
0.0433035
0.0432968
0.043294
0.0432905
0.043288
0.0432863
0.0485768
0.043545
0.0431629
0.0433281
0.0433145
0.0433235
0.0433128
0.0433107
0.0433264
0.0433235
0.0433336
0.0433323
0.0642114
0.0435457
0.0433181
0.0432739
0.0432621
0.0433172
0.0432939
0.0432778
0.0432755
0.0432698
0.0432631
0.06199
0.0560273
0.0434587
0.0433574
0.0432823
0.0432924
0.0433616
0.0433367
0.0433679
0.0433643
0.0533559
0.0544866
0.0434503
0.0433168
0.0432062
0.0432505
0.0432056
0.0432121
0.0464378
0.0515346
0.05388
0.0435279
0.0433369
0.0434519
0.043424
0.0594093
0.0552406
0.0550169
0.054359
0.0448665
0.042356
0.0421439
0.0422931
0.0421928
0.0422609
0.042216
0.042246
0.0422255
0.0422388
0.0422292
0.042235
0.0422306
0.0422327
0.0422317
0.0452717
0.0423869
0.0421461
0.0422995
0.0421918
0.0422623
0.0422181
0.0422481
0.0422282
0.0422409
0.0422314
0.0422371
0.0422329
0.042235
0.0422341
0.0466466
0.0422701
0.0421849
0.042268
0.0422062
0.0422532
0.0422212
0.042244
0.0422276
0.0422385
0.0422296
0.0422347
0.0422304
0.0422323
0.0422313
0.0424608
0.0421391
0.0422941
0.0422092
0.0422585
0.042226
0.0422472
0.0422324
0.0422421
0.0422347
0.0422394
0.0422361
0.0422379
0.0422372
0.0508903
0.0422497
0.0422246
0.042227
0.0422427
0.0422284
0.0422411
0.0422297
0.0422376
0.0422302
0.0422341
0.0422301
0.0422316
0.0422305
0.0452603
0.0423831
0.0422152
0.0422499
0.0422456
0.0422369
0.0422454
0.0422378
0.0422436
0.0422388
0.0422428
0.0422405
0.0422424
0.042242
0.0528543
0.0422903
0.0421951
0.0422569
0.0422285
0.0422416
0.0422305
0.042237
0.0422302
0.0422322
0.0422284
0.0422287
0.0422276
0.0454085
0.0423916
0.042207
0.0422471
0.0422366
0.0422464
0.0422425
0.0422459
0.0422425
0.0422485
0.0422467
0.0422502
0.04225
0.0506896
0.0422514
0.0422613
0.0422481
0.0422363
0.0422289
0.0422366
0.0422292
0.0422266
0.0422228
0.0422201
0.0422185
0.0475104
0.0424786
0.0420963
0.0422614
0.0422477
0.0422572
0.0422463
0.042244
0.0422597
0.0422563
0.0422649
0.0422652
0.0631465
0.0424786
0.0422514
0.0422072
0.0421953
0.0422504
0.0422273
0.0422106
0.0422073
0.0421948
0.0421953
0.0609237
0.0549608
0.0423922
0.0422909
0.0422159
0.0422258
0.0422951
0.0422701
0.0423001
0.0422969
0.0522894
0.05342
0.0423837
0.0422502
0.0421395
0.0421852
0.0421475
0.0421462
0.0453712
0.0504681
0.0528136
0.0424618
0.0422713
0.0423879
0.0423589
0.0583431
0.0541745
0.0539507
0.0532927
0.0438001
0.0412896
0.0410774
0.0412266
0.0411257
0.041194
0.0411484
0.0411791
0.0411578
0.0411714
0.0411608
0.0411669
0.041162
0.0411643
0.0411632
0.0442052
0.0413201
0.0410796
0.0412325
0.0411246
0.0411952
0.0411506
0.041181
0.04116
0.0411734
0.0411631
0.0411692
0.0411645
0.0411668
0.0411657
0.04558
0.0412034
0.0411179
0.0412012
0.0411389
0.0411862
0.0411535
0.0411769
0.0411592
0.0411709
0.0411613
0.0411667
0.0411619
0.041164
0.0411628
0.0413941
0.0410721
0.0412271
0.0411421
0.0411914
0.0411586
0.0411802
0.0411645
0.0411748
0.0411668
0.0411718
0.0411681
0.0411701
0.0411693
0.0498234
0.0411827
0.0411577
0.0411599
0.0411757
0.0411608
0.0411739
0.0411617
0.0411701
0.0411622
0.0411663
0.0411619
0.0411633
0.0411622
0.0441932
0.0413161
0.0411483
0.0411829
0.0411785
0.0411697
0.0411784
0.0411699
0.0411765
0.0411714
0.0411756
0.0411731
0.0411751
0.0411746
0.0517875
0.0412234
0.041128
0.0411896
0.0411611
0.0411747
0.0411631
0.0411701
0.0411624
0.0411645
0.0411603
0.0411606
0.0411594
0.0443417
0.0413248
0.0411403
0.0411808
0.0411698
0.0411797
0.0411756
0.0411791
0.0411755
0.0411817
0.0411797
0.0411834
0.0411832
0.0496228
0.0411846
0.0411946
0.0411812
0.0411694
0.0411616
0.0411696
0.0411617
0.0411593
0.0411552
0.0411526
0.0411509
0.0464438
0.0414117
0.0410297
0.0411948
0.0411811
0.0411905
0.0411795
0.0411774
0.0411931
0.0411899
0.0411995
0.0411988
0.0620787
0.0414121
0.0411847
0.0411404
0.0411284
0.0411836
0.0411605
0.0411436
0.0411411
0.0411344
0.0411288
0.0598572
0.0538942
0.0413256
0.0412243
0.0411493
0.0411592
0.0412287
0.0412038
0.0412357
0.0412311
0.0512228
0.0523532
0.041317
0.0411836
0.0410731
0.0411175
0.0410727
0.0410787
0.0443045
0.0494014
0.0517471
0.041395
0.0412044
0.0413196
0.0412914
0.0572765
0.0531079
0.0528841
0.052226
0.0427339
0.0402219
0.04001
0.0401608
0.0400595
0.0401275
0.040081
0.0401121
0.0400896
0.040104
0.0400926
0.040099
0.0400937
0.0400961
0.0400948
0.0431387
0.0402511
0.0400041
0.0401671
0.0400655
0.0401299
0.0400834
0.0401139
0.040092
0.040106
0.040095
0.0401014
0.0400963
0.0400986
0.0400975
0.0445133
0.0401359
0.0400497
0.0401346
0.0400729
0.0401197
0.040086
0.0401097
0.0400913
0.0401034
0.0400931
0.0400988
0.0400936
0.0400958
0.0400944
0.0403268
0.0400053
0.0401602
0.0400752
0.0401244
0.0400913
0.0401131
0.0400969
0.0401075
0.040099
0.0401042
0.0401002
0.0401023
0.0401013
0.0487566
0.0401158
0.0400908
0.0400929
0.0401088
0.0400933
0.0401068
0.0400942
0.0401027
0.0400942
0.0400984
0.0400937
0.0400952
0.0400939
0.0431263
0.0402492
0.0400814
0.040116
0.0401114
0.0401027
0.0401116
0.0401039
0.0401094
0.0401039
0.0401083
0.0401056
0.0401078
0.0401072
0.0507205
0.0401565
0.0400609
0.040123
0.0400938
0.0401077
0.040095
0.0401018
0.0400944
0.0400969
0.0400924
0.0400928
0.0400914
0.0432746
0.0402579
0.0400734
0.0401138
0.0401029
0.0401129
0.0401086
0.040112
0.0401084
0.0401147
0.0401127
0.0401165
0.0401161
0.0485559
0.0401177
0.0401277
0.0401143
0.0401025
0.0400942
0.0401027
0.0400942
0.0400921
0.0400876
0.040085
0.0400833
0.0453769
0.0403447
0.0399629
0.0401281
0.0401143
0.0401239
0.0401126
0.0401107
0.0401263
0.0401228
0.0401313
0.0401316
0.0610114
0.0403455
0.0401179
0.0400736
0.0400615
0.0401169
0.0400937
0.0400765
0.0400732
0.0400608
0.0400611
0.0587905
0.0528275
0.040259
0.0401577
0.0400827
0.0400926
0.0401619
0.040137
0.0401671
0.0401638
0.050156
0.0512864
0.0402503
0.0401169
0.0400061
0.0400518
0.0400138
0.0400127
0.0432377
0.0483347
0.0506804
0.0403288
0.0401384
0.0402549
0.0402258
0.05621
0.0520414
0.0518176
0.0511595
0.0416678
0.0391567
0.0389446
0.0390929
0.0389917
0.0390599
0.0390134
0.039045
0.0390217
0.0390366
0.0390246
0.0390312
0.0390255
0.039028
0.0390265
0.0420721
0.0391867
0.0389467
0.0390986
0.0389901
0.0390606
0.0390157
0.0390467
0.0390242
0.0390385
0.039027
0.0390335
0.0390281
0.0390305
0.0390292
0.0434466
0.0390697
0.0389843
0.0390674
0.0390046
0.0390519
0.0390184
0.0390425
0.0390234
0.0390359
0.0390251
0.0390309
0.0390254
0.0390276
0.0390262
0.0392601
0.0389385
0.0390931
0.0390081
0.0390572
0.039024
0.0390459
0.0390292
0.0390401
0.0390311
0.0390366
0.0390322
0.0390345
0.0390334
0.0476897
0.039049
0.0390238
0.0390258
0.0390418
0.0390257
0.0390395
0.0390261
0.0390351
0.0390262
0.0390306
0.0390256
0.0390272
0.0390258
0.0420595
0.0391824
0.0390145
0.0390492
0.0390442
0.0390357
0.0390442
0.0390352
0.0390422
0.0390365
0.039041
0.039038
0.0390404
0.0390396
0.0496536
0.0390897
0.0389938
0.0390562
0.0390263
0.0390406
0.0390273
0.0390361
0.039027
0.0390294
0.0390245
0.039025
0.0390235
0.0422075
0.0391912
0.0390066
0.039047
0.039036
0.039046
0.0390417
0.0390453
0.0390415
0.0390478
0.0390456
0.0390495
0.039049
0.047489
0.0390508
0.039061
0.0390472
0.0390356
0.0390268
0.0390358
0.0390267
0.0390249
0.0390201
0.0390178
0.0390159
0.0443098
0.0392794
0.038896
0.0390614
0.0390476
0.0390574
0.0390456
0.0390441
0.0390596
0.0390563
0.0390659
0.039065
0.0599507
0.0392771
0.0390508
0.0390069
0.0389945
0.0390502
0.0390268
0.0390096
0.039007
0.0390001
0.0389947
0.0577235
0.0517607
0.0391924
0.0390911
0.0390161
0.039026
0.0390954
0.0390706
0.0391022
0.0390979
0.0490893
0.0502196
0.0391837
0.0390502
0.0389397
0.0389841
0.0389396
0.0389453
0.0421708
0.0472681
0.0496137
0.0392617
0.0390713
0.0391865
0.0391583
0.0551432
0.0509747
0.0507508
0.0500926
0.0406015
0.0380898
0.0378781
0.0380259
0.0379249
0.0379927
0.0379462
0.0379778
0.0379541
0.0379691
0.0379566
0.0379634
0.0379573
0.0379599
0.0379584
0.0410056
0.0381196
0.0378802
0.0380313
0.0379231
0.0379933
0.0379485
0.0379794
0.0379565
0.037971
0.0379591
0.0379657
0.03796
0.0379625
0.037961
0.0423799
0.0380027
0.0379176
0.0380002
0.0379376
0.0379847
0.037951
0.0379752
0.0379557
0.0379683
0.0379571
0.037963
0.0379572
0.0379595
0.037958
0.0381929
0.0378718
0.038026
0.0379411
0.0379899
0.0379568
0.0379786
0.0379617
0.0379726
0.0379634
0.0379689
0.0379643
0.0379666
0.0379655
0.0466228
0.0379822
0.0379567
0.0379588
0.0379749
0.0379582
0.0379724
0.0379586
0.0379677
0.0379584
0.0379628
0.0379576
0.0379593
0.0379578
0.0409927
0.0381158
0.0379476
0.0379825
0.0379769
0.0379689
0.0379773
0.0379691
0.0379749
0.0379689
0.0379736
0.0379705
0.0379729
0.0379721
0.048587
0.038023
0.0379267
0.0379896
0.0379589
0.0379736
0.0379598
0.0379676
0.0379589
0.0379618
0.0379567
0.0379573
0.0379557
0.0411409
0.0381246
0.0379397
0.0379801
0.0379691
0.0379792
0.0379747
0.0379781
0.0379743
0.0379807
0.0379784
0.0379824
0.0379818
0.0464223
0.0379833
0.0379942
0.03798
0.0379687
0.0379594
0.0379689
0.0379592
0.0379577
0.0379527
0.0379505
0.0379486
0.0432429
0.0382074
0.0378294
0.037995
0.0379809
0.0379909
0.0379786
0.0379775
0.0379927
0.0379892
0.0379979
0.0379979
0.0588607
0.0382164
0.0379845
0.0379402
0.0379275
0.0379835
0.0379599
0.0379426
0.0379393
0.0379272
0.0379273
0.0566577
0.0506943
0.0381262
0.0380247
0.0379495
0.0379593
0.0380285
0.0380036
0.0380339
0.0380303
0.0480227
0.0491529
0.0381173
0.0379836
0.0378727
0.0379182
0.0378798
0.0378791
0.0411044
0.0462016
0.0485471
0.0381954
0.038005
0.0381213
0.0380926
0.0540766
0.049908
0.049684
0.0490259
0.0395348
0.037021
0.0368105
0.0369594
0.0368593
0.0369261
0.0368794
0.0369105
0.0368865
0.0369016
0.0368887
0.0368956
0.0368892
0.0368918
0.0368902
0.0399387
0.0370496
0.0368038
0.036965
0.0368655
0.0369282
0.0368817
0.0369119
0.0368889
0.0369033
0.0368911
0.0368978
0.0368918
0.0368944
0.0368929
0.0413129
0.0369346
0.0368495
0.0369329
0.0368721
0.0369179
0.036884
0.0369078
0.036888
0.0369007
0.0368891
0.0368952
0.0368891
0.0368915
0.0368898
0.0371253
0.036805
0.0369586
0.0368743
0.0369228
0.0368897
0.0369113
0.0368942
0.0369051
0.0368956
0.0369012
0.0368965
0.0368989
0.0368975
0.0455559
0.0369155
0.0368897
0.0368918
0.0369078
0.0368906
0.036905
0.0368908
0.0369001
0.0368906
0.0368951
0.0368896
0.0368914
0.0368898
0.0399261
0.0370494
0.0368807
0.0369157
0.0369097
0.0369017
0.0369099
0.0369012
0.0369075
0.0369015
0.0369062
0.0369029
0.0369054
0.0369044
0.0475205
0.0369564
0.0368595
0.0369229
0.0368912
0.0369065
0.0368922
0.0369007
0.0368913
0.0368943
0.036889
0.0368897
0.036888
0.0400748
0.0370585
0.036873
0.0369134
0.0369021
0.0369122
0.0369077
0.036911
0.0369072
0.0369136
0.0369112
0.0369152
0.0369145
0.0453559
0.0369176
0.0369281
0.0369125
0.0369017
0.0368918
0.0369019
0.0368917
0.0368906
0.0368855
0.0368835
0.0368814
0.0421771
0.0371553
0.0367625
0.0369279
0.0369142
0.0369245
0.0369115
0.0369107
0.0369259
0.0369226
0.0369326
0.0369309
0.0578605
0.0371331
0.0369159
0.0368733
0.0368604
0.0369168
0.0368929
0.0368757
0.0368733
0.0368663
0.0368606
0.0555888
0.0496271
0.0370603
0.0369584
0.0368831
0.0368926
0.0369617
0.0369367
0.0369673
0.0369642
0.0469564
0.0480863
0.0370512
0.036917
0.0368064
0.0368504
0.0368067
0.0368117
0.0400385
0.0451354
0.0474805
0.0371279
0.0369377
0.0370526
0.0370249
0.0530098
0.0488411
0.0486169
0.0479589
0.0384679
0.0359546
0.0357454
0.0358908
0.0357918
0.035858
0.0358122
0.035843
0.0358189
0.0358339
0.0358207
0.0358276
0.035821
0.0358237
0.035822
0.038872
0.0359841
0.0357471
0.0358954
0.0357902
0.0358586
0.0358144
0.0358444
0.0358213
0.0358356
0.0358232
0.0358299
0.0358238
0.0358264
0.0358247
0.0402463
0.0358678
0.0357846
0.035865
0.0358042
0.0358498
0.0358166
0.0358402
0.0358204
0.035833
0.0358213
0.0358273
0.0358211
0.0358235
0.0358217
0.0360577
0.0357386
0.0358909
0.0358073
0.0358552
0.0358225
0.0358437
0.0358267
0.0358375
0.0358279
0.0358335
0.0358286
0.035831
0.0358296
0.0444891
0.035849
0.0358225
0.0358246
0.0358405
0.0358231
0.0358376
0.0358231
0.0358326
0.0358228
0.0358274
0.0358218
0.0358236
0.0358218
0.0388598
0.0359835
0.0358139
0.0358489
0.0358422
0.0358348
0.0358425
0.0358339
0.0358401
0.035834
0.0358387
0.0358353
0.0358379
0.0358367
0.0464546
0.0358901
0.0357921
0.0358561
0.0358232
0.0358392
0.0358243
0.0358334
0.0358237
0.0358268
0.0358214
0.0358221
0.0358204
0.0390091
0.0359929
0.0358055
0.0358464
0.0358349
0.0358452
0.0358404
0.0358438
0.0358399
0.0358464
0.0358438
0.0358479
0.035847
0.0442896
0.0358467
0.0358606
0.0358446
0.0358346
0.0358238
0.0358349
0.0358242
0.0358233
0.0358181
0.0358162
0.0358139
0.0411095
0.0360553
0.0356968
0.0358631
0.0358478
0.035858
0.0358444
0.0358436
0.0358588
0.0358553
0.0358656
0.0358634
0.0566394
0.0361036
0.0358527
0.0358068
0.0357933
0.03585
0.0358258
0.0358087
0.0358064
0.0357994
0.0357932
0.0545281
0.048563
0.0359954
0.0358925
0.0358166
0.0358259
0.0358944
0.0358694
0.0358992
0.0358972
0.0458905
0.0470199
0.0359858
0.0358506
0.0357398
0.0357838
0.0357405
0.035745
0.038973
0.0440696
0.0464139
0.0360611
0.0358709
0.0359855
0.0359581
0.0519433
0.0477744
0.0475499
0.046892
0.0374022
0.0348861
0.0346789
0.0348227
0.0347262
0.0347905
0.0347453
0.0347754
0.0347513
0.0347662
0.0347528
0.0347598
0.034753
0.0347558
0.0347538
0.0378062
0.0349142
0.0346744
0.0348274
0.03473
0.034792
0.0347477
0.0347766
0.0347538
0.0347679
0.0347554
0.0347621
0.0347557
0.0347584
0.0347566
0.0391804
0.0347998
0.034718
0.0347969
0.0347384
0.0347823
0.0347496
0.0347726
0.0347529
0.0347654
0.0347535
0.0347595
0.0347531
0.0347556
0.0347536
0.0349895
0.0346724
0.0348226
0.0347405
0.0347874
0.0347553
0.0347761
0.0347592
0.0347699
0.0347601
0.0347658
0.0347607
0.0347632
0.0347616
0.0434229
0.0347828
0.0347554
0.0347574
0.034773
0.0347554
0.0347701
0.0347555
0.034765
0.0347551
0.0347597
0.034754
0.0347558
0.034754
0.0377946
0.0349188
0.034747
0.034782
0.0347745
0.0347675
0.0347749
0.0347664
0.0347726
0.0347664
0.0347712
0.0347676
0.0347703
0.034769
0.0453899
0.0348243
0.0347243
0.0347891
0.0347549
0.0347718
0.0347563
0.0347659
0.034756
0.0347594
0.0347538
0.0347545
0.0347527
0.0379452
0.0349289
0.0347388
0.0347801
0.0347675
0.0347779
0.034773
0.0347763
0.0347725
0.0347789
0.0347762
0.0347804
0.0347794
0.0432251
0.0347858