/*--------------------------------*- C++ -*----------------------------------*\
| =========                 |                                                 |
| \\      /  F ield         | OpenFOAM: The Open Source CFD Toolbox           |
|  \\    /   O peration     | Version:  2.1.1                                 |
|   \\  /    A nd           | Web:      www.OpenFOAM.org                      |
|    \\/     M anipulation  |                                                 |
\*---------------------------------------------------------------------------*/
FoamFile
{
    version     2.0;
    format      ascii;
    class       surfaceScalarField;
    location    "0.0015";
    object      phi;
}
// * * * * * * * * * * * * * * * * * * * * * * * * * * * * * * * * * * * * * //

dimensions      [0 3 -1 0 0 0 0];

internalField   nonuniform List<scalar> 
29457
(
-2.90041e-12
-2.23159e-13
1.98681e-13
-3.04687e-12
5.97176e-12
-3.82324e-12
3.52294e-13
5.93338e-13
-3.06883e-12
-2.76149e-12
8.70794e-12
1.44389e-11
2.90178e-13
-5.87072e-11
-2.38166e-12
-1.99074e-11
7.40812e-11
1.38881e-11
-1.10178e-11
-1.06844e-11
1.38286e-11
-4.32743e-11
7.76319e-12
-1.81927e-11
-1.57785e-11
6.43886e-11
1.14946e-11
-1.11416e-11
-9.08793e-12
-2.54495e-12
4.83711e-12
8.08951e-10
7.30944e-11
6.99699e-11
-7.03934e-11
-6.57792e-11
7.48496e-11
4.96808e-11
-7.03671e-11
-4.69436e-11
5.14264e-12
9.92045e-10
6.93747e-11
6.92519e-11
-6.68783e-11
-6.67719e-11
-3.97942e-11
1.14935e-11
1.4709e-11
-1.63517e-11
-1.47312e-11
5.98022e-11
1.28977e-11
-9.01711e-12
-9.83286e-12
9.93282e-12
-1.03414e-11
-8.7667e-12
-4.43157e-12
3.36237e-12
8.17696e-10
6.84579e-11
6.77814e-11
-6.56827e-11
-6.37288e-11
6.69064e-11
4.69395e-11
-6.26826e-11
-4.46146e-11
-2.53716e-12
2.7001e-12
9.89856e-10
6.76327e-11
6.71548e-11
-6.51142e-11
-6.55593e-11
-2.19725e-12
1.73758e-12
9.78846e-10
6.70654e-11
6.48288e-11
-6.5191e-11
-6.27992e-11
1.71013e-12
2.26683e-12
9.71123e-10
6.1697e-11
4.78513e-11
-6.06106e-11
-4.66983e-11
4.94496e-13
6.20474e-12
1.20462e-09
6.53402e-12
1.21739e-09
-9.0286e-13
-5.83749e-13
-2.76334e-12
-1.33099e-12
5.58094e-12
-2.68673e-12
1.87917e-12
8.33174e-10
6.40144e-11
6.42258e-11
-6.16694e-11
-6.10643e-11
6.82224e-11
4.6678e-11
-6.3624e-11
-4.51565e-11
7.5573e-13
1.13229e-12
9.53168e-10
6.26746e-11
4.78504e-11
-6.11583e-11
-4.69173e-11
4.33298e-13
4.83295e-12
1.1985e-09
-5.66095e-13
5.0422e-12
1.21908e-09
-2.14194e-12
4.90716e-12
1.2101e-09
-2.35212e-12
5.71024e-12
1.20311e-09
-7.64034e-13
5.70337e-12
1.2106e-09
5.68505e-12
1.19506e-09
1.11138e-11
1.01896e-11
-3.67005e-11
-1.38343e-11
-1.34186e-11
5.72642e-11
9.61065e-12
-9.0646e-12
-8.2719e-12
8.72529e-12
-8.22651e-12
-7.3872e-12
8.33834e-13
1.47569e-12
7.7055e-10
6.78764e-11
4.49206e-11
-6.51566e-11
-4.40309e-11
6.74645e-11
4.92836e-11
-6.44888e-11
-4.63774e-11
2.11218e-12
3.6142e-12
1.19379e-09
-3.32878e-13
4.41896e-12
1.20352e-09
-2.73084e-13
3.76953e-12
1.20324e-09
-2.55264e-13
4.15422e-12
1.19369e-09
1.09124e-13
4.00677e-12
1.19182e-09
1.29098e-12
4.86132e-12
1.19355e-09
6.59611e-13
4.68823e-12
1.18593e-09
4.6971e-12
1.18278e-09
1.0202e-11
1.11105e-11
-3.68672e-11
-1.34543e-11
-1.3848e-11
5.74671e-11
8.71889e-12
-8.23414e-12
-7.37562e-12
9.5985e-12
-9.06139e-12
-8.25639e-12
1.55741e-12
1.61859e-12
7.78494e-10
6.85048e-11
5.04627e-11
-6.67234e-11
-4.82114e-11
6.8595e-11
5.05197e-11
-6.68138e-11
-4.82612e-11
1.58668e-12
2.58094e-12
1.18523e-09
1.24609e-12
3.74484e-12
1.21969e-09
1.25683e-12
2.81078e-12
1.19226e-09
4.15386e-13
3.26487e-12
1.18309e-09
3.35165e-14
3.41152e-12
1.18233e-09
-4.85764e-13
3.43983e-12
1.18259e-09
-3.77214e-13
4.06223e-12
1.18396e-09
-2.05904e-13
3.56305e-12
1.18222e-09
3.71956e-12
1.18215e-09
-9.03229e-13
-5.83715e-13
-1.33107e-12
-2.76254e-12
5.58057e-12
1.46698e-12
8.43086e-13
7.71146e-10
6.78733e-11
4.48961e-11
-6.51441e-11
-4.40112e-11
6.75096e-11
4.92865e-11
-6.4549e-11
-4.63825e-11
2.53057e-12
1.58631e-12
1.18537e-09
2.48693e-12
2.52638e-12
1.22381e-09
2.04647e-12
2.5714e-12
1.19199e-09
1.06021e-12
2.69432e-12
1.18304e-09
8.40687e-13
2.62835e-12
1.18099e-09
5.64591e-13
2.89295e-12
1.18105e-09
4.69938e-13
2.80178e-12
1.18008e-09
6.14709e-13
3.18863e-12
1.18044e-09
2.88909e-13
2.98607e-12
1.17894e-09
3.12531e-12
1.17884e-09
1.88816e-12
-2.67869e-12
8.33283e-10
6.82312e-11
4.6687e-11
-6.36326e-11
-4.51707e-11
6.40117e-11
6.42076e-11
-6.16747e-11
-6.10671e-11
3.59873e-12
2.13277e-12
1.19411e-09
3.6921e-12
1.24914e-12
1.21984e-09
2.5261e-12
2.05076e-12
1.19217e-09
2.02279e-12
2.04336e-12
1.18285e-09
1.56861e-12
2.16707e-12
1.18122e-09
1.06114e-12
2.26029e-12
1.17958e-09
7.08529e-13
2.38893e-12
1.17879e-09
4.07997e-13
2.32728e-12
1.17794e-09
2.83325e-13
2.57231e-12
1.17792e-09
1.11885e-13
2.3656e-12
1.17728e-09
2.45792e-12
1.17723e-09
-3.97965e-11
1.47098e-11
1.14924e-11
-1.47316e-11
-1.63558e-11
5.98021e-11
9.93549e-12
-1.03405e-11
-8.76487e-12
1.28976e-11
-9.01658e-12
-9.83158e-12
1.12633e-12
7.60756e-13
9.53265e-10
6.26634e-11
4.78455e-11
-6.11517e-11
-4.6912e-11
4.40318e-12
-2.90487e-13
1.20367e-09
2.78253e-12
1.2679e-12
1.19233e-09
2.6616e-12
1.07256e-12
1.18307e-09
2.14654e-12
1.58115e-12
1.18129e-09
1.66452e-12
1.68025e-12
1.18012e-09
1.27495e-12
1.76059e-12
1.17825e-09
9.25634e-13
1.86832e-12
1.17737e-09
6.65666e-13
1.83411e-12
1.17642e-09
5.02505e-13
1.98028e-12
1.17618e-09
2.37703e-13
1.89637e-12
1.17555e-09
1.95541e-12
1.17545e-09
3.34909e-12
-4.428e-12
8.17724e-10
6.69095e-11
4.69387e-11
-6.26809e-11
-4.46153e-11
6.84558e-11
6.77809e-11
-6.56811e-11
-6.37259e-11
4.81349e-12
4.32338e-13
1.19856e-09
3.75673e-12
-2.50136e-13
1.20334e-09
3.24768e-12
4.23401e-13
1.18315e-09
2.60867e-12
8.53525e-13
1.18103e-09
2.24442e-12
1.07058e-12
1.1796e-09
1.74979e-12
1.28712e-12
1.17831e-09
1.33176e-12
1.34005e-12
1.1768e-09
9.55356e-13
1.44872e-12
1.17597e-09
6.41303e-13
1.42439e-12
1.17521e-09
4.10392e-13
1.51405e-12
1.17498e-09
1.88689e-13
1.44112e-12
1.17463e-09
1.4753e-12
1.17455e-09
-3.82334e-12
5.93274e-13
3.52338e-13
-2.76133e-12
-3.06887e-12
8.70793e-12
2.69556e-12
-2.52887e-12
9.8989e-10
6.76298e-11
6.7156e-11
-6.51137e-11
-6.55585e-11
5.03241e-12
-5.55915e-13
1.21914e-09
4.14691e-12
-2.35306e-13
1.19377e-09
3.39761e-12
4.67667e-14
1.1824e-09
2.87615e-12
5.7751e-13
1.18112e-09
2.37848e-12
7.06423e-13
1.17882e-09
1.85814e-12
9.36027e-13
1.17739e-09
1.4412e-12
9.639e-13
1.17602e-09
1.06052e-12
1.06907e-12
1.17526e-09
7.53198e-13
1.05322e-12
1.17453e-09
4.9532e-13
1.11514e-12
1.17424e-09
2.37854e-13
1.08175e-12
1.17395e-09
1.10602e-12
1.17387e-09
2.90358e-13
1.44392e-11
-5.87099e-11
-1.99059e-11
-2.38147e-12
7.40823e-11
1.38876e-11
-1.10181e-11
-1.06839e-11
1.73519e-12
-2.18735e-12
9.78888e-10
6.70651e-11
6.48329e-11
-6.51935e-11
-6.2803e-11
4.89765e-12
-2.12627e-12
1.21016e-09
3.99936e-12
1.31708e-13
1.19188e-09
3.42805e-12
-4.65141e-13
1.18262e-09
2.78308e-12
4.86141e-13
1.18013e-09
2.32447e-12
3.74013e-13
1.17799e-09
1.82664e-12
6.76183e-13
1.17645e-09
1.41767e-12
6.47699e-13
1.17523e-09
1.04801e-12
7.5957e-13
1.17454e-09
7.34592e-13
7.38559e-13
1.17404e-09
4.67602e-13
7.82501e-13
1.17381e-09
2.23909e-13
7.55698e-13
1.17367e-09
7.69711e-13
1.17364e-09
1.38288e-11
-4.32768e-11
7.76091e-12
-1.57804e-11
-1.81879e-11
6.43908e-11
1.14954e-11
-1.11421e-11
-9.08865e-12
2.26126e-12
1.72468e-12
9.71215e-10
6.17038e-11
4.7859e-11
-6.06148e-11
-4.67048e-11
5.7054e-12
-2.33587e-12
1.20321e-09
4.85754e-12
1.30151e-12
1.19364e-09
4.05907e-12
-3.6962e-13
1.18403e-09
3.1826e-12
6.28209e-13
1.18048e-09
2.56739e-12
2.40141e-13
1.17794e-09
1.97443e-12
5.11501e-13
1.17619e-09
1.50847e-12
4.15265e-13
1.17499e-09
1.11061e-12
5.00306e-13
1.17425e-09
7.79319e-13
4.71232e-13
1.17387e-09
4.97719e-13
5.00434e-13
1.17374e-09
2.41341e-13
4.84175e-13
1.17363e-09
4.92044e-13
1.17366e-09
4.82739e-12
-2.54348e-12
8.09174e-10
7.31088e-11
6.99998e-11
-7.04067e-11
-6.58124e-11
7.48401e-11
4.96653e-11
-7.03571e-11
-4.69302e-11
6.19527e-12
5.02333e-13
1.20481e-09
5.69402e-12
-7.51059e-13
1.21069e-09
4.6808e-12
6.73687e-13
1.18599e-09
3.55651e-12
-1.92975e-13
1.18224e-09
2.98624e-12
2.97101e-13
1.17896e-09
2.35308e-12
9.21573e-14
1.17728e-09
1.88974e-12
2.43913e-13
1.17555e-09
1.43633e-12
1.93376e-13
1.17463e-09
1.07783e-12
2.41517e-13
1.17395e-09
7.5296e-13
2.2636e-13
1.17368e-09
4.82189e-13
2.43668e-13
1.1737e-09
2.33677e-13
2.35616e-13
1.17382e-09
2.39133e-13
1.17396e-09
-2.90308e-12
-2.24305e-13
-3.05251e-12
2.00064e-13
5.97983e-12
5.15577e-12
9.92308e-10
6.94158e-11
6.92544e-11
-6.69138e-11
-6.67772e-11
6.54608e-12
1.21752e-09
5.69424e-12
1.19514e-09
4.70191e-12
1.1828e-09
3.7228e-12
1.18216e-09
3.12922e-12
1.17883e-09
2.45049e-12
1.17722e-09
1.95118e-12
1.17543e-09
1.47162e-12
1.17454e-09
1.103e-12
1.17386e-09
7.6754e-13
1.17364e-09
4.90369e-13
1.17368e-09
2.37815e-13
1.17399e-09
1.17435e-09
-3.06779e-12
-2.23542e-13
2.00872e-13
-2.88634e-12
5.9768e-12
-4.06033e-12
3.54503e-13
5.3496e-13
-2.84371e-12
-2.65602e-12
8.6706e-12
1.37926e-11
-8.12745e-14
-5.90008e-11
-1.9311e-12
-1.76265e-11
7.37636e-11
1.32062e-11
-1.12283e-11
-1.08943e-11
1.3373e-11
-4.4286e-11
6.89981e-12
-1.61905e-11
-1.40746e-11
6.4179e-11
1.07465e-11
-1.1245e-11
-9.40222e-12
-1.54426e-12
1.76265e-12
8.05286e-10
7.05143e-11
6.72769e-11
-7.00685e-11
-6.54382e-11
7.24678e-11
4.84058e-11
-7.12987e-11
-4.84119e-11
8.89954e-13
9.88358e-10
6.70878e-11
6.67942e-11
-6.63474e-11
-6.62805e-11
-4.06102e-11
1.09548e-11
1.43156e-11
-1.4971e-11
-1.23044e-11
6.0062e-11
1.23476e-11
-9.30479e-12
-1.02746e-11
9.45784e-12
-1.05733e-11
-9.09936e-12
-2.8088e-12
1.52982e-12
8.1536e-10
6.71029e-11
6.49344e-11
-6.60013e-11
-6.40776e-11
6.58797e-11
4.61295e-11
-6.40188e-11
-4.63319e-11
-1.68831e-12
-1.67566e-13
9.87707e-10
6.62695e-11
6.48902e-11
-6.44719e-11
-6.54902e-11
-9.89701e-13
-1.41146e-12
9.7781e-10
6.54723e-11
6.36633e-11
-6.47306e-11
-6.26558e-11
2.33815e-12
-7.73614e-13
9.68793e-10
6.0902e-11
4.71363e-11
-6.06428e-11
-4.76202e-11
1.13872e-12
2.64215e-12
1.20494e-09
1.77697e-12
1.21765e-09
-1.20784e-12
-5.61581e-13
-2.55626e-12
-1.21088e-12
5.53656e-12
-2.72835e-12
1.44111e-12
8.30468e-10
6.36662e-11
6.26492e-11
-6.23084e-11
-6.17929e-11
6.7593e-11
4.52753e-11
-6.43193e-11
-4.67689e-11
1.85182e-12
-1.83167e-12
9.51597e-10
6.10493e-11
4.65692e-11
-6.1054e-11
-4.77402e-11
1.33104e-12
2.25491e-12
1.19829e-09
3.72471e-13
1.52181e-12
1.21835e-09
-1.29947e-12
1.52089e-12
1.20884e-09
-2.23497e-12
1.79878e-12
1.20147e-09
-6.95348e-13
1.19365e-12
1.21051e-09
9.15176e-13
1.19523e-09
1.08316e-11
9.93165e-12
-3.7754e-11
-1.20601e-11
-1.18417e-11
5.75107e-11
9.17689e-12
-9.35469e-12
-8.56889e-12
8.31971e-12
-8.52128e-12
-7.66989e-12
3.15352e-13
-7.71796e-13
7.69279e-10
6.71101e-11
4.30891e-11
-6.47868e-11
-4.5155e-11
6.58682e-11
4.83352e-11
-6.49949e-11
-4.77368e-11
1.74896e-12
1.39458e-12
1.19241e-09
-1.38227e-12
1.66795e-12
1.20315e-09
-5.34333e-13
8.18151e-13
1.20383e-09
-2.09095e-13
6.99135e-13
1.19419e-09
1.37832e-13
5.4437e-13
1.19245e-09
7.93318e-13
8.23049e-13
1.19387e-09
3.67142e-13
8.82219e-13
1.18667e-09
8.80766e-13
1.18319e-09
9.94599e-12
1.08304e-11
-3.79215e-11
-1.18721e-11
-1.20776e-11
5.77111e-11
8.31296e-12
-8.52989e-12
-7.65911e-12
9.1639e-12
-9.35103e-12
-8.55305e-12
1.57313e-14
5.47393e-14
7.77499e-10
6.73114e-11
4.96723e-11
-6.69965e-11
-4.9531e-11
6.74083e-11
4.9727e-11
-6.70854e-11
-4.95813e-11
4.80258e-13
5.96332e-13
1.1834e-09
-2.57956e-13
1.4548e-12
1.22037e-09
4.78687e-13
3.94727e-13
1.19279e-09
1.82805e-13
8.55938e-13
1.18335e-09
1.08457e-13
7.43269e-13
1.18237e-09
-1.87846e-13
7.64127e-13
1.18267e-09
-2.98315e-13
9.25702e-13
1.18397e-09
-1.74567e-13
6.67002e-13
1.18231e-09
7.34821e-13
1.18212e-09
-1.20869e-12
-5.61228e-13
-1.21021e-12
-2.55642e-12
5.53655e-12
-7.35031e-13
3.15734e-13
7.69864e-10
6.70977e-11
4.3066e-11
-6.47781e-11
-4.51379e-11
6.59213e-11
4.83354e-11
-6.50542e-11
-4.77465e-11
7.09473e-13
3.95404e-13
1.18359e-09
2.56521e-13
2.55282e-13
1.2246e-09
5.58359e-13
5.91106e-13
1.19255e-09
1.21937e-13
6.66944e-13
1.1832e-09
2.05408e-13
6.10193e-13
1.18116e-09
1.35516e-13
6.49551e-13
1.18122e-09
1.76823e-13
5.81395e-13
1.18023e-09
2.62788e-13
6.75906e-13
1.1806e-09
1.15887e-13
6.10028e-13
1.17914e-09
6.59921e-13
1.17903e-09
1.43702e-12
-2.72112e-12
8.30577e-10
6.75948e-11
4.52872e-11
-6.4324e-11
-4.67806e-11
6.36613e-11
6.2641e-11
-6.23025e-11
-6.17861e-11
1.39692e-12
1.75146e-12
1.19272e-09
1.39726e-12
-2.81531e-13
1.22052e-09
5.67508e-13
5.52765e-13
1.1927e-09
4.77461e-13
4.91371e-13
1.18304e-09
4.22897e-13
5.03828e-13
1.18144e-09
2.57322e-13
5.62867e-13
1.17979e-09
1.6903e-13
5.56249e-13
1.17897e-09
6.52308e-14
5.41814e-13
1.17809e-09
3.24829e-14
5.88484e-13
1.17804e-09
6.72243e-15
5.01412e-13
1.17742e-09
5.28368e-13
1.17737e-09
-4.06115e-11
1.43158e-11
1.09538e-11
-1.23018e-11
-1.49715e-11
6.00617e-11
9.45793e-12
-1.05735e-11
-9.09919e-12
1.23466e-11
-9.30439e-12
-1.02741e-11
-1.83298e-12
1.85612e-12
9.517e-10
6.10409e-11
4.65639e-11
-6.10465e-11
-4.77357e-11
1.66288e-12
-1.37839e-12
1.2033e-09
3.69238e-13
4.76794e-13
1.19287e-09
6.4752e-13
1.10923e-13
1.18324e-09
4.94007e-13
4.26315e-13
1.18151e-09
3.66442e-13
3.72958e-13
1.18037e-09
2.9067e-13
4.15031e-13
1.17847e-09
2.0745e-13
4.22175e-13
1.17759e-09
1.72093e-13
4.11629e-13
1.17659e-09
1.45592e-13
4.43154e-13
1.17635e-09
6.99621e-14
4.15311e-13
1.17571e-09
4.31453e-13
1.17561e-09
1.52742e-12
-2.80543e-12
8.15386e-10
6.58804e-11
4.61302e-11
-6.40187e-11
-4.63326e-11
6.71009e-11
6.49327e-11
-6.60003e-11
-6.4075e-11
2.24769e-12
1.33525e-12
1.19837e-09
8.14319e-13
-5.2716e-13
1.20392e-09
8.47836e-13
1.83334e-13
1.18341e-09
6.00818e-13
1.99739e-13
1.18119e-09
5.55315e-13
2.60079e-13
1.17981e-09
4.11098e-13
2.95165e-13
1.17852e-09
3.13235e-13
3.16139e-13
1.177e-09
2.1933e-13
3.35954e-13
1.17615e-09
1.44894e-13
3.30513e-13
1.17537e-09
9.01646e-14
3.47985e-13
1.17513e-09
4.19047e-14
3.19028e-13
1.17477e-09
3.27412e-13
1.1747e-09
-4.06038e-12
5.34902e-13
3.54638e-13
-2.65633e-12
-2.84355e-12
8.67072e-12
-1.68985e-13
-1.68673e-12
9.87742e-10
6.62673e-11
6.48903e-11
-6.44689e-11
-6.5489e-11
1.52005e-12
3.734e-13
1.21841e-09
6.96765e-13
-2.017e-13
1.19427e-09
7.38499e-13
1.09362e-13
1.18243e-09
6.42631e-13
1.31358e-13
1.18128e-09
5.5069e-13
1.70754e-13
1.179e-09
4.1784e-13
2.10957e-13
1.17761e-09
3.32911e-13
2.21401e-13
1.1762e-09
2.42063e-13
2.44698e-13
1.17544e-09
1.80094e-13
2.40724e-13
1.17468e-09
1.22194e-13
2.54044e-13
1.17439e-09
6.10684e-14
2.43098e-13
1.17409e-09
2.49595e-13
1.17401e-09
-8.08489e-14
1.37933e-11
-5.9004e-11
-1.76259e-11
-1.93089e-12
7.37646e-11
1.32058e-11
-1.12283e-11
-1.08937e-11
-1.41339e-12
-9.89125e-13
9.77855e-10
6.54729e-11
6.36666e-11
-6.47315e-11
-6.26594e-11
1.51732e-12
-1.29669e-12
1.2089e-09
5.43768e-13
1.42052e-13
1.19251e-09
7.60873e-13
-1.86399e-13
1.1827e-09
5.74386e-13
1.77579e-13
1.18028e-09
5.38019e-13
6.68647e-14
1.17813e-09
4.08534e-13
1.74662e-13
1.17662e-09
3.27889e-13
1.46011e-13
1.17538e-09
2.39043e-13
1.81556e-13
1.17469e-09
1.70048e-13
1.70764e-13
1.17418e-09
1.07404e-13
1.81829e-13
1.17395e-09
5.33655e-14
1.72099e-13
1.17379e-09
1.75272e-13
1.17377e-09
1.33733e-11
-4.42888e-11
6.89786e-12
-1.40761e-11
-1.61864e-11
6.41811e-11
1.07472e-11
-1.12453e-11
-9.40287e-12
-7.74676e-13
2.34072e-12
9.68883e-10
6.09074e-11
4.7143e-11
-6.0647e-11
-4.76267e-11
1.79899e-12
-2.23192e-12
1.20157e-09
8.23431e-13
7.96713e-13
1.19396e-09
9.24662e-13
-2.9868e-13
1.18405e-09
6.72858e-13
2.64681e-13
1.18064e-09
5.85553e-13
3.43471e-14
1.17806e-09
4.40474e-13
1.46962e-13
1.17636e-09
3.45593e-13
9.03565e-14
1.17514e-09
2.52394e-13
1.22495e-13
1.1744e-09
1.81143e-13
1.07459e-13
1.174e-09
1.17053e-13
1.16964e-13
1.17387e-09
5.93519e-14
1.11611e-13
1.17375e-09
1.13072e-13
1.17379e-09
1.75707e-12
-1.54585e-12
8.05518e-10
7.05268e-11
6.73067e-11
-7.0082e-11
-6.54685e-11
7.24577e-11
4.8391e-11
-7.12885e-11
-4.83978e-11
2.63855e-12
1.14184e-12
1.20513e-09
1.18987e-12
-6.92956e-13
1.2106e-09
8.79865e-13
3.69768e-13
1.18672e-09
6.65044e-13
-1.75934e-13
1.18233e-09
6.08342e-13
1.16657e-13
1.17916e-09
4.97631e-13
5.15409e-15
1.17742e-09
4.11719e-13
6.98487e-14
1.17571e-09
3.16215e-13
4.08694e-14
1.17477e-09
2.40944e-13
6.00915e-14
1.17408e-09
1.70873e-13
5.21139e-14
1.17381e-09
1.11229e-13
5.82961e-14
1.17382e-09
5.51863e-14
5.47192e-14
1.17393e-09
5.61173e-14
1.17407e-09
-3.07094e-12
-2.23658e-13
-2.89159e-12
2.01491e-13
5.9847e-12
8.94942e-13
9.88604e-10
6.71271e-11
6.67988e-11
-6.63828e-11
-6.6284e-11
1.78208e-12
1.21777e-09
9.18703e-13
1.1953e-09
8.82591e-13
1.18321e-09
7.35514e-13
1.18213e-09
6.59795e-13
1.17903e-09
5.26024e-13
1.17736e-09
4.29224e-13
1.1756e-09
3.2539e-13
1.17468e-09
2.48075e-13
1.174e-09
1.74377e-13
1.17377e-09
1.12852e-13
1.1738e-09
5.66644e-14
1.1741e-09
1.17446e-09
-3.09901e-12
-2.22459e-13
2.0002e-13
-2.87314e-12
5.99458e-12
-4.10112e-12
3.7499e-13
5.24579e-13
-2.84247e-12
-2.65047e-12
8.69449e-12
1.37986e-11
-1.90177e-13
-5.93096e-11
-1.67097e-12
-1.74336e-11
7.39181e-11
1.31764e-11
-1.12922e-11
-1.09966e-11
1.33949e-11
-4.43281e-11
6.55111e-12
-1.57315e-11
-1.40132e-11
6.43035e-11
1.06431e-11
-1.12793e-11
-9.54059e-12
-3.25735e-13
-1.54183e-12
8.07053e-10
7.034e-11
6.7033e-11
-7.01849e-11
-6.56402e-11
7.17711e-11
4.80626e-11
-7.22468e-11
-4.90335e-11
-2.23561e-12
9.90093e-10
6.67883e-11
6.64187e-11
-6.65495e-11
-6.64871e-11
-4.07991e-11
1.10023e-11
1.43191e-11
-1.46196e-11
-1.21865e-11
6.02294e-11
1.23023e-11
-9.37349e-12
-1.04046e-11
9.40899e-12
-1.06679e-11
-9.21096e-12
-8.79319e-13
2.92539e-13
8.15708e-10
6.69955e-11
6.45819e-11
-6.62258e-11
-6.44236e-11
6.53676e-11
4.58014e-11
-6.49293e-11
-4.69271e-11
-6.68888e-13
-1.70355e-12
9.89074e-10
6.60802e-11
6.45067e-11
-6.4616e-11
-6.5845e-11
-5.86437e-13
-2.71801e-12
9.78974e-10
6.55139e-11
6.35367e-11
-6.47168e-11
-6.28637e-11
2.12653e-13
-3.5966e-12
9.709e-10
6.14652e-11
4.72655e-11
-6.03873e-11
-4.76546e-11
-1.92448e-14
-2.06918e-12
1.2057e-09
-2.73122e-12
1.21812e-09
-1.25133e-12
-5.51582e-13
-2.52898e-12
-1.21906e-12
5.55095e-12
-2.09081e-12
5.68818e-13
8.30412e-10
6.34919e-11
6.24637e-11
-6.26616e-11
-6.21463e-11
6.73842e-11
4.50544e-11
-6.48248e-11
-4.71822e-11
1.19881e-12
-2.76652e-12
9.5151e-10
6.14976e-11
4.66938e-11
-6.0876e-11
-4.77492e-11
1.80343e-12
-5.08355e-13
1.19849e-09
1.5737e-12
-1.60989e-12
1.21848e-09
4.24184e-13
-1.70297e-12
1.20898e-09
-8.97436e-13
-2.44629e-12
1.20164e-09
-2.39963e-13
-3.09461e-12
1.21087e-09
-3.11178e-12
1.19536e-09
1.087e-11
9.96153e-12
-3.79826e-11
-1.18333e-11
-1.1688e-11
5.76564e-11
9.15484e-12
-9.42403e-12
-8.66837e-12
8.30159e-12
-8.59078e-12
-7.75722e-12
6.23027e-13
-1.42335e-12
7.69388e-10
6.72367e-11
4.31402e-11
-6.48602e-11
-4.52439e-11
6.57413e-11
4.81732e-11
-6.53862e-11
-4.8109e-11
1.45419e-12
-9.63985e-13
1.19311e-09
-9.0403e-13
-7.32786e-13
1.20347e-09
-4.12725e-14
-1.76673e-12
1.20423e-09
1.94623e-13
-2.09311e-12
1.19444e-09
6.36463e-13
-2.30809e-12
1.19261e-09
5.86009e-13
-2.74779e-12
1.19422e-09
1.52184e-13
-2.56308e-12
1.18657e-09
-2.62066e-12
1.18284e-09
9.97601e-12
1.08687e-11
-3.81488e-11
-1.17168e-11
-1.18521e-11
5.78559e-11
8.2946e-12
-8.59939e-12
-7.74669e-12
9.14178e-12
-9.42066e-12
-8.65251e-12
-7.6327e-14
-5.89495e-14
7.77744e-10
6.74021e-11
4.95891e-11
-6.7212e-11
-4.9837e-11
6.74968e-11
4.9642e-11
-6.73024e-11
-4.98877e-11
-6.4898e-13
-1.19525e-12
1.18375e-09
-1.12747e-12
-8.23498e-13
1.2207e-09
-5.26594e-14
-1.6245e-12
1.19261e-09
-4.97585e-14
-1.35479e-12
1.18294e-09
1.37811e-13
-1.77997e-12
1.18187e-09
1.0177e-13
-1.75752e-12
1.18215e-09
-9.98126e-14
-2.06556e-12
1.18349e-09
-5.16051e-14
-2.12751e-12
1.18183e-09
-2.16254e-12
1.1816e-09
-1.25195e-12
-5.51112e-13
-1.21834e-12
-2.52918e-12
5.55058e-12
-1.42311e-12
6.17282e-13
7.69991e-10
6.72238e-11
4.31174e-11
-6.48505e-11
-4.52248e-11
6.57971e-11
4.81752e-11
-6.54422e-11
-4.81163e-11
-1.21889e-12
-6.618e-13
1.18399e-09
-1.2898e-12
-1.28274e-12
1.22476e-09
-6.91438e-13
-1.1425e-12
1.19227e-09
-7.63047e-13
-1.22138e-12
1.18287e-09
-4.21607e-13
-1.35472e-12
1.18082e-09
-3.23444e-13
-1.523e-12
1.18086e-09
-1.1936e-13
-1.5619e-12
1.17983e-09
-8.26374e-14
-1.75949e-12
1.18026e-09
-4.77073e-14
-1.7084e-12
1.17869e-09
-1.7549e-12
1.17857e-09
5.5995e-13
-2.0975e-12
8.3053e-10
6.73882e-11
4.50674e-11
-6.48276e-11
-4.71927e-11
6.34884e-11
6.2455e-11
-6.26542e-11
-6.21383e-11
-9.68488e-13
1.44324e-12
1.19342e-09
-8.32917e-13
-1.14073e-12
1.22087e-09
-1.14673e-12
-6.97693e-13
1.19243e-09
-9.97444e-13
-9.97933e-13
1.18275e-09
-7.14304e-13
-1.11285e-12
1.18104e-09
-5.43398e-13
-1.10075e-12
1.17937e-09
-3.54118e-13
-1.24738e-12
1.17851e-09
-2.30775e-13
-1.21598e-12
1.17762e-09
-1.6895e-13
-1.35732e-12
1.17757e-09
-7.35761e-14
-1.33668e-12
1.17695e-09
-1.37435e-12
1.17691e-09
-4.08003e-11
1.43192e-11
1.10016e-11
-1.21833e-11
-1.46203e-11
6.0229e-11
9.40904e-12
-1.06681e-11
-9.21075e-12
1.23013e-11
-9.37309e-12
-1.04043e-11
-2.75649e-12
1.18563e-12
9.51614e-10
6.14885e-11
4.66869e-11
-6.08686e-11
-4.77461e-11
-7.29563e-13
-9.16879e-13
1.20364e-09
-1.62787e-12
-6.86232e-14
1.19269e-09
-1.22403e-12
-7.69576e-13
1.18291e-09
-1.11281e-12
-7.19929e-13
1.18112e-09
-9.06196e-13
-9.0843e-13
1.17995e-09
-6.71545e-13
-9.05163e-13
1.17804e-09
-4.98438e-13
-9.98704e-13
1.17717e-09
-3.13937e-13
-9.85275e-13
1.17617e-09
-2.0511e-13
-1.06922e-12
1.17595e-09
-9.36621e-14
-1.04372e-12
1.1753e-09
-1.07154e-12
1.1752e-09
2.95248e-13
-8.72877e-13
8.15734e-10
6.53684e-11
4.58034e-11
-6.49288e-11
-4.69267e-11
6.69896e-11
6.45721e-11
-6.62244e-11
-6.44218e-11
-5.06788e-13
1.79387e-12
1.19856e-09
-1.7616e-12
-4.95075e-14
1.20431e-09
-1.35263e-12
-6.32665e-14
1.183e-09
-1.35276e-12
-4.26245e-13
1.18085e-09
-1.09875e-12
-5.48717e-13
1.17938e-09
-9.02049e-13
-6.74606e-13
1.1781e-09
-6.86946e-13
-6.90292e-13
1.17657e-09
-5.05469e-13
-7.62077e-13
1.17574e-09
-3.44847e-13
-7.48945e-13
1.17497e-09
-2.23669e-13
-8.05969e-13
1.17475e-09
-1.02465e-13
-7.92025e-13
1.1744e-09
-8.1082e-13
1.17432e-09
-4.10105e-12
5.24278e-13
3.75244e-13
-2.65118e-12
-2.84181e-12
8.69452e-12
-1.69929e-12
-6.75081e-13
9.89105e-10
6.60884e-11
6.45081e-11
-6.46121e-11
-6.58452e-11
-1.60581e-12
1.56141e-12
1.21855e-09
-2.09081e-12
1.84636e-13
1.19452e-09
-1.77752e-12
1.24454e-13
1.18194e-09
-1.52193e-12
-3.27321e-13
1.18093e-09
-1.24654e-12
-3.59885e-13
1.17854e-09
-9.96831e-13
-5.02393e-13
1.17719e-09
-7.60087e-13
-5.09551e-13
1.17578e-09
-5.67901e-13
-5.7074e-13
1.17506e-09
-3.88396e-13
-5.62524e-13
1.17432e-09
-2.48945e-13
-6.00164e-13
1.17405e-09
-1.15755e-13
-5.89061e-13
1.17375e-09
-6.01312e-13
1.17368e-09
-1.89552e-13
1.37993e-11
-5.93126e-11
-1.74328e-11
-1.67067e-12
7.3919e-11
1.31758e-11
-1.12922e-11
-1.09963e-11
-2.71907e-12
-5.92971e-13
9.79019e-10
6.55157e-11
6.35399e-11
-6.47167e-11
-6.28676e-11
-1.70237e-12
4.12016e-13
1.20903e-09
-2.30401e-12
6.2649e-13
1.19267e-09
-1.75426e-12
9.35385e-14
1.18219e-09
-1.56109e-12
-1.21521e-13
1.17988e-09
-1.21481e-12
-2.36615e-13
1.17766e-09
-9.83682e-13
-3.18413e-13
1.1762e-09
-7.47363e-13
-3.49147e-13
1.17499e-09
-5.60415e-13
-3.91783e-13
1.17433e-09
-3.90492e-13
-3.93052e-13
1.17384e-09
-2.50155e-13
-4.17943e-13
1.17363e-09
-1.17739e-13
-4.12653e-13
1.17349e-09
-4.20528e-13
1.17347e-09
1.33953e-11
-4.43309e-11
6.54919e-12
-1.40148e-11
-1.57275e-11
6.43057e-11
1.06438e-11
-1.12795e-11
-9.54127e-12
-3.59213e-12
2.07692e-13
9.70982e-10
6.14704e-11
4.72722e-11
-6.03916e-11
-4.76611e-11
-2.44097e-12
-9.1204e-13
1.20175e-09
-2.74489e-12
5.72145e-13
1.19432e-09
-2.06675e-12
-1.03044e-13
1.18357e-09
-1.75913e-12
-8.61558e-14
1.1803e-09
-1.35703e-12
-1.76331e-13
1.1776e-09
-1.06842e-12
-2.10733e-13
1.17596e-09
-8.04904e-13
-2.28973e-13
1.17475e-09
-5.9861e-13
-2.53288e-13
1.17406e-09
-4.15975e-13
-2.53647e-13
1.17368e-09
-2.64699e-13
-2.67446e-13
1.17357e-09
-1.24499e-13
-2.62983e-13
1.17346e-09
-2.68253e-13
1.1735e-09
-1.53873e-12
-3.25212e-13
8.07278e-10
7.03536e-11
6.70644e-11
-7.01982e-11
-6.56695e-11
7.17609e-11
4.80484e-11
-7.22368e-11
-4.90188e-11
-2.06698e-12
-2.28278e-14
1.20588e-09
-3.09356e-12
-2.47707e-13
1.21096e-09
-2.56149e-12
1.38167e-13
1.18662e-09
-2.12592e-12
-5.50874e-14
1.18185e-09
-1.70687e-12
-5.17736e-14
1.17871e-09
-1.33676e-12
-8.23025e-14
1.17696e-09
-1.0443e-12
-9.96912e-14
1.1753e-09
-7.92526e-13
-1.08377e-13
1.1744e-09
-5.89066e-13
-1.20825e-13
1.17375e-09
-4.12058e-13
-1.21916e-13
1.1735e-09
-2.61873e-13
-1.28062e-13
1.17354e-09
-1.2474e-13
-1.26839e-13
1.17366e-09
-1.28896e-13
1.1738e-09
-3.10214e-12
-2.22508e-13
-2.87827e-12
2.0053e-13
6.00238e-12
-2.23602e-12
9.90341e-10
6.68255e-11
6.64236e-11
-6.65872e-11
-6.64913e-11
-2.73119e-12
1.21825e-09
-3.11261e-12
1.19544e-09
-2.62353e-12
1.18287e-09
-2.16426e-12
1.18161e-09
-1.75566e-12
1.17857e-09
-1.37506e-12
1.17689e-09
-1.07188e-12
1.17519e-09
-8.10945e-13
1.17431e-09
-6.00937e-13
1.17367e-09
-4.19692e-13
1.17347e-09
-2.66841e-13
1.17352e-09
-1.26899e-13
1.17383e-09
1.17419e-09
-3.11137e-12
-2.21786e-13
1.98917e-13
-2.8761e-12
6.01033e-12
-4.11454e-12
3.81752e-13
5.18131e-13
-2.82911e-12
-2.66859e-12
8.71236e-12
1.38635e-11
-2.6693e-13
-5.95434e-11
-1.47545e-12
-1.77173e-11
7.43104e-11
1.31943e-11
-1.13083e-11
-1.10569e-11
1.34638e-11
-4.44787e-11
6.29956e-12
-1.53999e-11
-1.42588e-11
6.46465e-11
1.06296e-11
-1.12866e-11
-9.61534e-12
-1.01969e-13
-5.60239e-12
8.14507e-10
7.0676e-11
6.72283e-11
-7.02498e-11
-6.58306e-11
7.12587e-11
4.77398e-11
-7.30351e-11
-4.95391e-11
-5.26153e-12
9.95284e-10
6.69126e-11
6.6521e-11
-6.67735e-11
-6.66912e-11
-4.08961e-11
1.10338e-11
1.42786e-11
-1.43538e-11
-1.23811e-11
6.03785e-11
1.22972e-11
-9.3633e-12
-1.04355e-11
9.38073e-12
-1.07141e-11
-9.22499e-12
9.3587e-13
-1.62559e-12
8.18165e-10
6.71994e-11
6.45808e-11
-6.61946e-11
-6.46232e-11
6.47737e-11
4.54461e-11
-6.56002e-11
-4.73502e-11
5.53649e-13
-3.87342e-12
9.92975e-10
6.63368e-11
6.4609e-11
-6.46025e-11
-6.59909e-11
-5.21691e-13
-5.15713e-12
9.82329e-10
6.61185e-11
6.39402e-11
-6.44134e-11
-6.27705e-11
-2.09279e-12
-7.55112e-12
9.77467e-10
6.23647e-11
4.76423e-11
-5.98895e-11
-4.75644e-11
-1.64987e-12
-7.2159e-12
1.20687e-09
-7.45347e-12
1.21866e-09
-1.26098e-12
-5.52582e-13
-2.5179e-12
-1.22436e-12
5.55583e-12
-2.09708e-12
-8.02e-13
8.32217e-10
6.35541e-11
6.24977e-11
-6.26114e-11
-6.21464e-11
6.7223e-11
4.48974e-11
-6.49894e-11
-4.73319e-11
3.84684e-13
-4.3353e-12
9.52301e-10
6.2075e-11
4.69471e-11
-6.03833e-11
-4.75737e-11
2.14154e-12
-3.32834e-12
1.19844e-09
2.89113e-12
-4.94788e-12
1.21881e-09
2.69093e-12
-5.08454e-12
1.2091e-09
5.74565e-13
-6.8498e-12
1.20306e-09
3.86027e-13
-7.31294e-12
1.21116e-09
-7.13638e-12
1.19542e-09
1.08843e-11
9.96865e-12
-3.80417e-11
-1.17789e-11
-1.17109e-11
5.77237e-11
9.1522e-12
-9.43268e-12
-8.6883e-12
8.30115e-12
-8.60427e-12
-7.77338e-12
7.89915e-14
-2.43223e-12
7.71199e-10
6.73906e-11
4.32116e-11
-6.47631e-11
-4.52061e-11
6.56293e-11
4.80679e-11
-6.55461e-11
-4.82406e-11
1.43824e-12
-2.78822e-12
1.19374e-09
-5.3343e-13
-3.04278e-12
1.20415e-09
5.66202e-13
-4.37019e-12
1.20417e-09
4.96928e-13
-4.9674e-12
1.19453e-09
9.06378e-13
-5.16382e-12
1.19228e-09
-1.94598e-13
-6.33802e-12
1.19481e-09
-2.86931e-13
-6.09586e-12
1.18544e-09
-6.27346e-12
1.18168e-09
9.98333e-12
1.08827e-11
-3.82078e-11
-1.17395e-11
-1.17991e-11
5.79239e-11
8.29409e-12
-8.61255e-12
-7.76277e-12
9.13929e-12
-9.42942e-12
-8.67218e-12
-7.07362e-13
-6.76941e-13
7.79093e-10
6.7501e-11
4.95793e-11
-6.71875e-11
-4.98769e-11
6.75967e-11
4.96332e-11
-6.72785e-11
-4.99282e-11
-1.81451e-12
-2.64656e-12
1.18508e-09
-2.01926e-12
-2.78117e-12
1.2209e-09
-7.48764e-13
-3.66269e-12
1.19196e-09
-4.54655e-13
-3.69832e-12
1.18198e-09
6.09197e-14
-4.42308e-12
1.18081e-09
3.34912e-13
-4.36271e-12
1.18108e-09
2.21163e-14
-5.12634e-12
1.1826e-09
4.0467e-14
-4.96358e-12
1.18068e-09
-5.09787e-12
1.18045e-09
-1.26147e-12
-5.52148e-13
-1.22355e-12
-2.51814e-12
5.55531e-12
-2.43699e-12
6.19704e-14
7.71835e-10
6.73749e-11
4.31876e-11
-6.47537e-11
-4.51878e-11
6.56862e-11
4.80684e-11
-6.55972e-11
-4.82454e-11
-2.55203e-12
-1.84802e-12
1.18528e-09
-2.82736e-12
-2.82076e-12
1.22521e-09
-2.07695e-12
-3.00246e-12
1.19174e-09
-1.71964e-12
-3.21422e-12
1.18207e-09
-1.08082e-12
-3.357e-12
1.17984e-09
-8.01972e-13
-3.70763e-12
1.17987e-09
-4.71246e-13
-3.68272e-12
1.17882e-09
-4.71451e-13
-4.18927e-12
1.17932e-09
-2.39743e-13
-4.01899e-12
1.17751e-09
-4.15515e-12
1.17738e-09
-8.02702e-13
-2.11575e-12
8.3234e-10
6.72286e-11
4.49112e-11
-6.49894e-11
-4.7339e-11
6.35509e-11
6.24891e-11
-6.26041e-11
-6.21393e-11
-2.78043e-12
1.39966e-12
1.19406e-09
-2.7749e-12
-2.04642e-12
1.22106e-09
-2.99043e-12
-2.08789e-12
1.19191e-09
-2.59602e-12
-2.60893e-12
1.18196e-09
-1.92855e-12
-2.78129e-12
1.17994e-09
-1.3808e-12
-2.78824e-12
1.17825e-09
-8.93242e-13
-3.05021e-12
1.17737e-09
-5.32062e-13
-2.96212e-12
1.17654e-09
-3.80699e-13
-3.29266e-12
1.17653e-09
-1.76729e-13
-3.14803e-12
1.17587e-09
-3.25158e-12
1.17581e-09
-4.08972e-11
1.42787e-11
1.10332e-11
-1.23781e-11
-1.43548e-11
6.0378e-11
9.38085e-12
-1.07142e-11
-9.22461e-12
1.22962e-11
-9.36272e-12
-1.04352e-11
-4.31595e-12
3.4676e-13
9.52414e-10
6.20658e-11
4.69389e-11
-6.03764e-11
-4.7572e-11
-3.03109e-12
-5.52425e-13
1.20431e-09
-3.65472e-12
-7.67465e-13
1.19204e-09
-3.2032e-12
-1.73363e-12
1.1821e-09
-2.77106e-12
-1.94413e-12
1.18002e-09
-2.20173e-12
-2.21281e-12
1.17882e-09
-1.64142e-12
-2.22806e-12
1.17693e-09
-1.20653e-12
-2.40684e-12
1.17609e-09
-7.99333e-13
-2.35969e-12
1.17516e-09
-5.57684e-13
-2.55751e-12
1.17498e-09
-2.58439e-13
-2.47379e-12
1.17432e-09
-2.54448e-12
1.17423e-09
-1.61911e-12
9.33771e-13
8.18189e-10
6.47747e-11
4.54485e-11
-6.55987e-11
-4.73487e-11
6.71946e-11
6.45721e-11
-6.61915e-11
-6.4623e-11
-3.31942e-12
2.11699e-12
1.19849e-09
-4.35099e-12
5.3208e-13
1.20426e-09
-3.68636e-12
-4.6028e-13
1.18203e-09
-3.3437e-12
-1.09417e-12
1.17986e-09
-2.77634e-12
-1.39477e-12
1.17826e-09
-2.21736e-12
-1.65228e-12
1.17698e-09
-1.68798e-12
-1.6978e-12
1.17551e-09
-1.22657e-12
-1.84973e-12
1.17472e-09
-8.29645e-13
-1.81186e-12
1.17403e-09
-5.34988e-13
-1.94122e-12
1.17384e-09
-2.4634e-13
-1.88117e-12
1.17351e-09
-1.92463e-12
1.17345e-09
-4.1144e-12
5.176e-13
3.8197e-13
-2.66894e-12
-2.82845e-12
8.71222e-12
-3.86294e-12