/*--------------------------------*- C++ -*----------------------------------*\
| =========                 |                                                 |
| \\      /  F ield         | OpenFOAM: The Open Source CFD Toolbox           |
|  \\    /   O peration     | Version:  2.1.1                                 |
|   \\  /    A nd           | Web:      www.OpenFOAM.org                      |
|    \\/     M anipulation  |                                                 |
\*---------------------------------------------------------------------------*/
FoamFile
{
    version     2.0;
    format      ascii;
    class       volScalarField;
    location    "0.0015";
    object      Th;
}
// * * * * * * * * * * * * * * * * * * * * * * * * * * * * * * * * * * * * * //

dimensions      [0 0 0 0 0 0 0];

internalField   nonuniform List<scalar> 
10154
(
2.10254e-13
1e-14
1.09853e-14
1.00199e-14
1.00598e-14
1.00175e-14
1.09029e-14
1.01068e-14
1.00007e-14
1.00005e-14
1e-14
1e-14
1e-14
1.75051e-13
1.01054e-14
1.00007e-14
1e-14
1e-14
1e-14
1e-14
1e-14
1e-14
1e-14
1e-14
1e-14
1e-14
1e-14
1e-14
1e-14
1.00001e-14
1.00001e-14
1e-14
1e-14
1e-14
1e-14
1e-14
1e-14
1e-14
1e-14
1e-14
1e-14
1e-14
1e-14
1.75048e-13
1e-14
1e-14
1.00001e-14
1e-14
1e-14
1e-14
1e-14
1e-14
1e-14
1e-14
1e-14
1.01055e-14
1e-14
1e-14
1e-14
1e-14
1e-14
1e-14
1e-14
1e-14
1e-14
1e-14
1e-14
1.09029e-14
1.00007e-14
1e-14
1e-14
1e-14
1e-14
1e-14
1e-14
1e-14
1e-14
1e-14
1e-14
1e-14
1.01068e-14
1e-14
1e-14
1e-14
1e-14
1e-14
1e-14
1e-14
1e-14
1e-14
1e-14
1e-14
1e-14
1e-14
1.00007e-14
1e-14
1e-14
1e-14
1e-14
1e-14
1e-14
1e-14
1.00001e-14
1e-14
1e-14
1e-14
1e-14
1.09854e-14
1.00005e-14
1e-14
1e-14
1e-14
1e-14
1e-14
1e-14
1e-14
1e-14
1e-14
1.00001e-14
1.00001e-14
1.00001e-14
1.00199e-14
1e-14
1e-14
1.00001e-14
1e-14
1e-14
1e-14
1e-14
1e-14
1e-14
1.00001e-14
1.00001e-14
1e-14
1.00001e-14
1.00598e-14
1e-14
1e-14
1.00001e-14
1e-14
1e-14
1e-14
1e-14
1e-14
1e-14
1.00001e-14
1e-14
1e-14
1e-14
2.10239e-13
1.00174e-14
1e-14
1e-14
1e-14
1e-14
1e-14
1e-14
1e-14
1e-14
1e-14
1.00001e-14
1.00001e-14
1e-14
1.00001e-14
2.1114e-13
1e-14
1.0951e-14
1.00198e-14
1.00546e-14
1.0016e-14
1.12009e-14
1.01011e-14
1.00006e-14
1.00005e-14
1e-14
1e-14
1.00001e-14
1.76494e-13
1.00994e-14
1.00006e-14
1e-14
1e-14
1e-14
1e-14
1e-14
1e-14
1e-14
1e-14
1e-14
1e-14
1e-14
1e-14
1e-14
1e-14
1e-14
1e-14
1e-14
1e-14
1e-14
1e-14
1e-14
1e-14
1e-14
1e-14
1e-14
1e-14
1e-14
1.76488e-13
1e-14
1e-14
1e-14
1e-14
1e-14
1e-14
1e-14
1e-14
1e-14
1e-14
1e-14
1.00994e-14
1e-14
1e-14
1e-14
1e-14
1e-14
1e-14
1e-14
1e-14
1e-14
1e-14
1e-14
1.12008e-14
1.00006e-14
1e-14
1e-14
1e-14
1e-14
1e-14
1e-14
1e-14
1e-14
1e-14
1e-14
1e-14
1.01011e-14
1e-14
1e-14
1e-14
1e-14
1e-14
1e-14
1e-14
1e-14
1e-14
1e-14
1e-14
1e-14
1e-14
1.00006e-14
1e-14
1e-14
1e-14
1e-14
1e-14
1e-14
1e-14
1e-14
1e-14
1e-14
1e-14
1e-14
1.09509e-14
1.00005e-14
1e-14
1e-14
1e-14
1e-14
1e-14
1e-14
1e-14
1e-14
1e-14
1e-14
1e-14
1e-14
1.00198e-14
1e-14
1e-14
1e-14
1e-14
1e-14
1e-14
1e-14
1e-14
1e-14
1e-14
1e-14
1e-14
1e-14
1.00546e-14
1e-14
1e-14
1e-14
1e-14
1e-14
1e-14
1e-14
1e-14
1e-14
1e-14
1e-14
1e-14
1e-14
2.11127e-13
1.0016e-14
1.00001e-14
1e-14
1e-14
1e-14
1e-14
1e-14
1e-14
1e-14
1e-14
1e-14
1e-14
1e-14
1e-14
2.11219e-13
1e-14
1.0959e-14
1.00203e-14
1.00535e-14
1.00157e-14
1.12407e-14
1.01001e-14
1.00007e-14
1.00005e-14
1e-14
1e-14
1.00001e-14
1.7651e-13
1.00986e-14
1.00006e-14
1e-14
1e-14
1e-14
1e-14
1e-14
1e-14
1e-14
1e-14
1e-14
1e-14
1e-14
1e-14
1e-14
1e-14
1e-14
1e-14
1e-14
1e-14
1e-14
1e-14
1e-14
1e-14
1e-14
1e-14
1e-14
1e-14
1e-14
1.76505e-13
1e-14
1e-14
1e-14
1e-14
1e-14
1e-14
1e-14
1e-14
1e-14
1e-14
1e-14
1.00985e-14
1e-14
1e-14
1e-14
1e-14
1e-14
1e-14
1e-14
1e-14
1e-14
1e-14
1e-14
1.12406e-14
1.00006e-14
1e-14
1e-14
1e-14
1e-14
1.00001e-14
1e-14
1e-14
1e-14
1e-14
1e-14
1e-14
1.01001e-14
1e-14
1e-14
1e-14
1e-14
1e-14
1e-14
1e-14
1e-14
1e-14
1e-14
1e-14
1e-14
1e-14
1.00007e-14
1e-14
1e-14
1e-14
1e-14
1e-14
1e-14
1e-14
1e-14
1e-14
1e-14
1e-14
1e-14
1.0959e-14
1.00005e-14
1e-14
1e-14
1e-14
1e-14
1e-14
1e-14
1e-14
1e-14
1e-14
1e-14
1e-14
1e-14
1.00203e-14
1e-14
1e-14
1e-14
1e-14
1e-14
1e-14
1e-14
1e-14
1e-14
1e-14
1e-14
1e-14
1e-14
1.00535e-14
1e-14
1e-14
1e-14
1e-14
1e-14
1e-14
1e-14
1e-14
1e-14
1e-14
1e-14
1e-14
1e-14
2.11206e-13
1.00157e-14
1.00001e-14
1e-14
1e-14
1e-14
1e-14
1e-14
1e-14
1e-14
1e-14
1e-14
1e-14
1e-14
1e-14
2.11201e-13
1e-14
1.09627e-14
1.00206e-14
1.00539e-14
1.00157e-14
1.12332e-14
1.01e-14
1.00007e-14
1.00005e-14
1.00001e-14
1e-14
1e-14
1.76543e-13
1.00982e-14
1.00006e-14
1e-14
1e-14
1e-14
1e-14
1e-14
1e-14
1e-14
1e-14
1e-14
1e-14
1e-14
1e-14
1e-14
1e-14
1e-14
1e-14
1e-14
1e-14
1e-14
1e-14
1e-14
1e-14
1e-14
1e-14
1e-14
1e-14
1e-14
1.76539e-13
1e-14
1e-14
1e-14
1e-14
1e-14
1e-14
1e-14
1e-14
1e-14
1e-14
1e-14
1.00982e-14
1e-14
1e-14
1e-14
1e-14
1e-14
1e-14
1e-14
1e-14
1e-14
1e-14
1.00001e-14
1.1233e-14
1.00006e-14
1e-14
1e-14
1e-14
1e-14
1e-14
1e-14
1e-14
1e-14
1e-14
1e-14
1.00001e-14
1.00999e-14
1e-14
1e-14
1e-14
1e-14
1e-14
1e-14
1e-14
1e-14
1e-14
1e-14
1e-14
1.00001e-14
1e-14
1.00007e-14
1e-14
1e-14
1e-14
1e-14
1e-14
1e-14
1e-14
1e-14
1e-14
1e-14
1e-14
1e-14
1.09627e-14
1.00005e-14
1e-14
1e-14
1e-14
1e-14
1e-14
1e-14
1e-14
1e-14
1e-14
1e-14
1e-14
1e-14
1.00206e-14
1e-14
1e-14
1e-14
1e-14
1e-14
1e-14
1e-14
1e-14
1e-14
1e-14
1e-14
1e-14
1e-14
1.00539e-14
1e-14
1e-14
1e-14
1e-14
1e-14
1e-14
1e-14
1e-14
1e-14
1e-14
1e-14
1e-14
1e-14
2.11188e-13
1.00158e-14
1e-14
1e-14
1e-14
1e-14
1e-14
1.00001e-14
1.00001e-14
1.00001e-14
1e-14
1e-14
1e-14
1e-14
1e-14
2.11088e-13
1e-14
1.09732e-14
1.00211e-14
1.0056e-14
1.00164e-14
1.12158e-14
1.01001e-14
1.00008e-14
1.00005e-14
1e-14
1e-14
1e-14
1.76578e-13
1.00968e-14
1.00006e-14
1e-14
1e-14
1e-14
1e-14
1e-14
1e-14
1e-14
1e-14
1e-14
1e-14
1e-14
1e-14
1e-14
1e-14
1e-14
1e-14
1e-14
1e-14
1e-14
1e-14
1e-14
1e-14
1e-14
1e-14
1e-14
1e-14
1e-14
1.76575e-13
1e-14
1e-14
1e-14
1e-14
1e-14
1e-14
1e-14
1e-14
1e-14
1e-14
1e-14
1.00968e-14
1e-14
1e-14
1e-14
1e-14
1e-14
1e-14
1e-14
1e-14
1e-14
1e-14
1.00001e-14
1.12155e-14
1.00006e-14
1e-14
1e-14
1e-14
1e-14
1e-14
1e-14
1e-14
1e-14
1e-14
1e-14
1e-14
1.01001e-14
1e-14
1e-14
1e-14
1e-14
1e-14
1e-14
1e-14
1e-14
1e-14
1e-14
1e-14
1e-14
1e-14
1.00008e-14
1e-14
1e-14
1e-14
1e-14
1e-14
1e-14
1e-14
1e-14
1e-14
1e-14
1e-14
1e-14
1.09732e-14
1.00005e-14
1e-14
1e-14
1e-14
1e-14
1e-14
1e-14
1e-14
1e-14
1e-14
1e-14
1e-14
1.00001e-14
1.00211e-14
1e-14
1e-14
1e-14
1e-14
1e-14
1e-14
1e-14
1e-14
1e-14
1e-14
1e-14
1e-14
1e-14
1.0056e-14
1e-14
1e-14
1e-14
1e-14
1e-14
1e-14
1e-14
1e-14
1e-14
1e-14
1e-14
1e-14
1e-14
2.11076e-13
1.00164e-14
1e-14
1e-14
1e-14
1e-14
1e-14
1.00001e-14
1e-14
1e-14
1e-14
1.00001e-14
1e-14
1e-14
1e-14
2.10696e-13
1e-14
1.10124e-14
1.00231e-14
1.00598e-14
1.00144e-14
1.12016e-14
1.01011e-14
1.00007e-14
1.00005e-14
1e-14
1e-14
1e-14
1.76618e-13
1.01099e-14
1.00005e-14
1e-14
1e-14
1e-14
1e-14
1e-14
1e-14
1e-14
1e-14
1e-14
1e-14
1e-14
1e-14
1e-14
1e-14
1e-14
1e-14
1e-14
1e-14
1e-14
1e-14
1e-14
1e-14
1e-14
1e-14
1e-14
1e-14
1e-14
1.76615e-13
1e-14
1e-14
1e-14
1e-14
1e-14
1e-14
1e-14
1e-14
1e-14
1e-14
1e-14
1.01099e-14
1e-14
1e-14
1e-14
1e-14
1e-14
1e-14
1e-14
1e-14
1e-14
1e-14
1e-14
1.12013e-14
1.00005e-14
1e-14
1e-14
1e-14
1e-14
1e-14
1e-14
1e-14
1e-14
1e-14
1e-14
1e-14
1.01011e-14
1e-14
1e-14
1e-14
1e-14
1e-14
1e-14
1e-14
1e-14
1e-14
1e-14
1e-14
1e-14
1e-14
1.00007e-14
1e-14
1e-14
1e-14
1e-14
1e-14
1e-14
1e-14
1e-14
1e-14
1e-14
1e-14
1e-14
1.10125e-14
1.00005e-14
1e-14
1e-14
1e-14
1e-14
1e-14
1e-14
1e-14
1e-14
1e-14
1e-14
1e-14
1e-14
1.00231e-14
1e-14
1e-14
1e-14
1e-14
1e-14
1e-14
1e-14
1e-14
1e-14
1e-14
1e-14
1e-14
1e-14
1.00599e-14
1e-14
1e-14
1e-14
1e-14
1e-14
1e-14
1e-14
1e-14
1e-14
1e-14
1e-14
1e-14
1e-14
2.10685e-13
1.00144e-14
1e-14
1e-14
1e-14
1e-14
1e-14
1e-14
1e-14
1e-14
1e-14
1e-14
1e-14
1e-14
1e-14
2.07894e-13
1e-14
1.12746e-14
1.00228e-14
1.00977e-14
1.0039e-14
1.13575e-14
1.01104e-14
1.00019e-14
1.00005e-14
1e-14
1e-14
1e-14
1.76285e-13
1.00702e-14
1.00006e-14
1e-14
1e-14
1e-14
1e-14
1e-14
1e-14
1e-14
1e-14
1e-14
1e-14
1e-14
1e-14
1e-14
1e-14
1e-14
1e-14
1e-14
1e-14
1e-14
1e-14
1e-14
1e-14
1e-14
1e-14
1e-14
1e-14
1e-14
1.76281e-13
1e-14
1e-14
1e-14
1e-14
1e-14
1e-14
1e-14
1e-14
1e-14
1e-14
1e-14
1.00702e-14
1e-14
1e-14
1e-14
1e-14
1e-14
1e-14
1e-14
1e-14
1e-14
1e-14
1e-14
1.13572e-14
1.00006e-14
1e-14
1e-14
1e-14
1e-14
1e-14
1e-14
1e-14
1e-14
1e-14
1e-14
1e-14
1.01104e-14
1e-14
1e-14
1e-14
1e-14
1e-14
1e-14
1e-14
1e-14
1e-14
1e-14
1e-14
1e-14
1e-14
1.00019e-14
1e-14
1e-14
1e-14
1e-14
1e-14
1e-14
1e-14
1e-14
1e-14
1e-14
1e-14
1e-14
1.12747e-14
1.00005e-14
1e-14
1e-14
1e-14
1e-14
1e-14
1e-14
1e-14
1e-14
1e-14
1e-14
1e-14
1e-14
1.00228e-14
1e-14
1e-14
1e-14
1e-14
1e-14
1e-14
1e-14
1e-14
1e-14
1e-14
1e-14
1e-14
1e-14
1.00978e-14
1e-14
1e-14
1e-14
1e-14
1e-14
1e-14
1e-14
1e-14
1e-14
1e-14
1e-14
1e-14
1e-14
2.07882e-13
1.0039e-14
1e-14
1e-14
1e-14
1e-14
1e-14
1e-14
1e-14
1e-14
1e-14
1e-14
1e-14
1e-14
1e-14
1.69636e-14
1.13366e-14
1e-14
1e-14
1.00093e-14
1.00059e-14
1.0269e-14
1.00069e-14
1.00002e-14
1e-14
1e-14
1e-14
1e-14
1.25362e-14
1.00037e-14
1e-14
1e-14
1e-14
1e-14
1e-14
1e-14
1e-14
1.00587e-14
1e-14
1e-14
1e-14
1e-14
1e-14
1e-14
1e-14
1e-14
1e-14
1.00584e-14
1e-14
1e-14
1e-14
1e-14
1e-14
1e-14
1e-14
1e-14
1e-14
1e-14
1.25378e-14
1e-14
1e-14
1e-14
1e-14
1e-14
1e-14
1e-14
1e-14
1e-14
1e-14
1e-14
1.00037e-14
1e-14
1e-14
1e-14
1e-14
1e-14
1e-14
1e-14
1e-14
1e-14
1e-14
1e-14
1.0269e-14
1e-14
1e-14
1e-14
1e-14
1e-14
1e-14
1e-14
1e-14
1e-14
1e-14
1e-14
1e-14
1.00069e-14
1e-14
1e-14
1e-14
1e-14
1e-14
1e-14
1e-14
1e-14
1e-14
1e-14
1e-14
1e-14
1.13362e-14
1.00002e-14
1e-14
1e-14
1e-14
1e-14
1e-14
1e-14
1e-14
1e-14
1e-14
1e-14
1e-14
1e-14
1e-14
1e-14
1e-14
1e-14
1e-14
1e-14
1e-14
1e-14
1e-14
1e-14
1e-14
1e-14
1e-14
1e-14
1e-14
1e-14
1e-14
1e-14
1e-14
1e-14
1e-14
1e-14
1e-14
1e-14
1e-14
1e-14
1e-14
1e-14
1.00093e-14
1e-14
1e-14
1e-14
1e-14
1e-14
1e-14
1e-14
1e-14
1e-14
1e-14
1e-14
1e-14
1e-14
1.69695e-14
1.00059e-14
1e-14
1e-14
1e-14
1e-14
1e-14
1e-14
1e-14
1e-14
1e-14
1e-14
1e-14
1e-14
1e-14
1e-14
1.00236e-14
1e-14
1.00011e-14
1e-14
1e-14
1.0001e-14
1.00007e-14
1e-14
1.00008e-14
1.00006e-14
1e-14
1e-14
1e-14
1e-14
1e-14
1.0002e-14
1.00004e-14
1e-14
1e-14
1e-14
1e-14
1e-14
1e-14
1e-14
1.00004e-14
1e-14
1e-14
1e-14
1e-14
1e-14
1e-14
1e-14
1e-14
1e-14
1.00004e-14
1e-14
1e-14
1e-14
1e-14
1e-14
1e-14
1e-14
1e-14
1e-14
1e-14
1.0002e-14
1e-14
1e-14
1e-14
1e-14
1e-14
1e-14
1e-14
1e-14
1e-14
1e-14
1e-14
1e-14
1.00004e-14
1e-14
1e-14
1e-14
1e-14
1e-14
1e-14
1e-14
1e-14
1e-14
1e-14
1e-14
1.00008e-14
1e-14
1e-14
1e-14
1e-14
1e-14
1e-14
1e-14
1e-14
1e-14
1e-14
1e-14
1e-14
1e-14
1.00006e-14
1e-14
1e-14
1e-14
1e-14
1e-14
1e-14
1e-14
1e-14
1e-14
1e-14
1e-14
1e-14
1.0001e-14
1e-14
1e-14
1e-14
1e-14
1e-14
1e-14
1e-14
1e-14
1e-14
1e-14
1e-14
1e-14
1e-14
1e-14
1e-14
1e-14
1e-14
1e-14
1e-14
1e-14
1e-14
1e-14
1e-14
1e-14
1e-14
1e-14
1e-14
1e-14
1e-14
1e-14
1e-14
1e-14
1e-14
1e-14
1e-14
1e-14
1e-14
1e-14
1e-14
1e-14
1e-14
1e-14
1.0001e-14
1e-14
1e-14
1e-14
1e-14
1e-14
1e-14
1e-14
1e-14
1e-14
1e-14
1e-14
1e-14
1e-14
1.00237e-14
1.00007e-14
1e-14
1e-14
1e-14
1e-14
1e-14
1e-14
1e-14
1e-14
1e-14
1e-14
1e-14
1e-14
1e-14
1e-14
1.00001e-14
1e-14
1e-14
1e-14
1e-14
1.00001e-14
1.00001e-14
1e-14
1e-14
1e-14
1e-14
1e-14
1e-14
1e-14
1e-14
1e-14
1e-14
1e-14
1e-14
1e-14
1e-14
1e-14
1e-14
1e-14
1e-14
1e-14
1e-14
1e-14
1e-14
1e-14
1e-14
1e-14
1e-14
1e-14
1e-14
1e-14
1e-14
1e-14
1e-14
1e-14
1e-14
1e-14
1e-14
1e-14
1e-14
1e-14
1e-14
1e-14
1e-14
1e-14
1e-14
1e-14
1e-14
1e-14
1e-14
1e-14
1e-14
1e-14
1e-14
1e-14
1e-14
1e-14
1e-14
1e-14
1e-14
1e-14
1e-14
1e-14
1e-14
1e-14
1e-14
1e-14
1e-14
1e-14
1e-14
1e-14
1e-14
1e-14
1e-14
1e-14
1e-14
1e-14
1e-14
1e-14
1e-14
1e-14
1e-14
1e-14
1e-14
1e-14
1e-14
1e-14
1e-14
1e-14
1e-14
1e-14
1e-14
1e-14
1e-14
1e-14
1e-14
1e-14
1e-14
1e-14
1e-14
1e-14
1e-14
1e-14
1e-14
1e-14
1e-14
1e-14
1e-14
1e-14
1e-14
1e-14
1e-14
1e-14
1e-14
1e-14
1e-14
1e-14
1e-14
1e-14
1e-14
1e-14
1e-14
1e-14
1e-14
1e-14
1e-14
1e-14
1e-14
1e-14
1e-14
1e-14
1e-14
1e-14
1e-14
1e-14
1.00001e-14
1e-14
1e-14
1e-14
1e-14
1e-14
1e-14
1e-14
1e-14
1e-14
1e-14
1e-14
1e-14
1e-14
1.00001e-14
1.00001e-14
1e-14
1e-14
1e-14
1e-14
1e-14
1e-14
1e-14
1e-14
1e-14
1e-14
1e-14
1e-14
1e-14
1e-14
1e-14
1e-14
1e-14
1e-14
1e-14
1e-14
1.00001e-14
1e-14
1e-14
1e-14
1e-14
1e-14
1e-14
1e-14
1e-14
1e-14
1e-14
1e-14
1e-14
1e-14
1e-14
1e-14
1e-14
1e-14
1e-14
1e-14
1e-14
1e-14
1e-14
1e-14
1e-14
1e-14
1e-14
1e-14
1e-14
1e-14
1e-14
1e-14
1e-14
1e-14
1e-14
1e-14
1e-14
1e-14
1e-14
1e-14
1e-14
1e-14
1e-14
1e-14
1e-14
1e-14
1e-14
1e-14
1e-14
1e-14
1e-14
1e-14
1e-14
1e-14
1e-14
1e-14
1e-14
1e-14
1e-14
1e-14
1e-14
1e-14
1e-14
1e-14
1e-14
1e-14
1e-14
1e-14
1e-14
1e-14
1e-14
1e-14
1e-14
1e-14
1e-14
1e-14
1e-14
1e-14
1e-14
1e-14
1e-14
1e-14
1e-14
1e-14
1e-14
1e-14
1e-14
1e-14
1e-14
1e-14
1e-14
1e-14
1e-14
1e-14
1e-14
1e-14
1e-14
1e-14
1e-14
1e-14
1e-14
1e-14
1e-14
1e-14
1e-14
1e-14
1e-14
1e-14
1e-14
1e-14
1e-14
1e-14
1e-14
1e-14
1e-14
1e-14
1e-14
1e-14
1e-14
1e-14
1e-14
1e-14
1e-14
1e-14
1e-14
1e-14
1e-14
1e-14
1e-14
1e-14
1e-14
1e-14
1e-14
1e-14
1e-14
1e-14
1e-14
1e-14
1e-14
1e-14
1e-14
1e-14
1e-14
1e-14
1e-14
1e-14
1e-14
1.00001e-14
1e-14
1.00001e-14
1e-14
1e-14
1e-14
1e-14
1e-14
1e-14
1e-14
1e-14
1e-14
1e-14
1e-14
1.00001e-14
1.00001e-14
1e-14
1e-14
1e-14
1e-14
1e-14
1e-14
1e-14
1e-14
1e-14
1e-14
1e-14
1e-14
1e-14
1e-14
1e-14
1e-14
1e-14
1e-14
1e-14
1e-14
1e-14
1e-14
1e-14
1e-14
1e-14
1e-14
1e-14
1e-14
1e-14
1e-14
1e-14
1e-14
1e-14
1e-14
1e-14
1e-14
1e-14
1e-14
1e-14
1e-14
1e-14
1e-14
1e-14
1e-14
1e-14
1e-14
1e-14
1e-14
1e-14
1e-14
1e-14
1e-14
1e-14
1e-14
1e-14
1e-14
1e-14
1e-14
1e-14
1e-14
1e-14
1e-14
1e-14
1e-14
1e-14
1e-14
1e-14
1e-14
1e-14
1e-14
1e-14
1e-14
1e-14
1e-14
1e-14
1e-14
1e-14
1e-14
1e-14
1e-14
1e-14
1e-14
1e-14
1e-14
1e-14
1e-14
1e-14
1e-14
1e-14
1e-14
1e-14
1e-14
1e-14
1e-14
1e-14
1e-14
1e-14
1e-14
1e-14
1e-14
1e-14
1e-14
1e-14
1e-14
1e-14
1e-14
1e-14
1e-14
1e-14
1e-14
1e-14
1e-14
1e-14
1e-14
1e-14
1e-14
1e-14
1e-14
1e-14
1e-14
1e-14
1e-14
1e-14
1e-14
1e-14
1.00001e-14
1e-14
1e-14
1e-14
1e-14
1e-14
1e-14
1e-14
1e-14
1e-14
1e-14
1e-14
1e-14
1e-14
1.00001e-14
1e-14
1e-14
1e-14
1e-14
1e-14
1e-14
1e-14
1e-14
1e-14
1e-14
1e-14
1e-14
1e-14
1.00001e-14
1.00001e-14
1e-14
1e-14
1e-14
1e-14
1e-14
1e-14
1e-14
1e-14
1e-14
1e-14
1e-14
1.00001e-14
1.00001e-14
1.00001e-14
1.00001e-14
1e-14
1e-14
1e-14
1e-14
1e-14
1e-14
1e-14
1e-14
1e-14
1e-14
1e-14
1e-14
1e-14
1e-14
1e-14
1e-14
1e-14
1e-14
1e-14
1e-14
1e-14
1e-14
1e-14
1e-14
1.00001e-14
1e-14
1e-14
1e-14
1e-14
1e-14
1e-14
1e-14
1e-14
1e-14
1e-14
1e-14
1e-14
1e-14
1e-14
1e-14
1e-14
1e-14
1e-14
1e-14
1e-14
1.00001e-14
1e-14
1e-14
1e-14
1e-14
1e-14
1e-14
1e-14
1e-14
1e-14
1e-14
1e-14
1.00001e-14
1e-14
1e-14
1e-14
1e-14
1e-14
1e-14
1e-14
1e-14
1e-14
1e-14
1e-14
1e-14
1.00001e-14
1e-14
1e-14
1e-14
1e-14
1e-14
1e-14
1e-14
1e-14
1e-14
1e-14
1e-14
1e-14
1.00001e-14
1e-14
1e-14
1e-14
1e-14
1e-14
1e-14
1e-14
1e-14
1e-14
1e-14
1e-14
1e-14
1e-14
1.00001e-14
1e-14
1e-14
1e-14
1e-14
1e-14
1e-14
1e-14
1e-14
1e-14
1e-14
1e-14
1e-14
1e-14
1.00001e-14
1e-14
1e-14
1e-14
1e-14
1e-14
1e-14
1e-14
1e-14
1e-14
1e-14
1e-14
1e-14
1e-14
1.00001e-14
1e-14
1e-14
1e-14
1e-14
1e-14
1e-14
1e-14
1e-14
1e-14
1e-14
1e-14
1e-14
1e-14
1e-14
1e-14
1e-14
1e-14
1e-14
1e-14
1e-14
1e-14
1e-14
1e-14
1e-14
1e-14
1e-14
1e-14
1e-14
1e-14
1e-14
1e-14
1e-14
1.00001e-14
1e-14
1.00001e-14
1.00001e-14
1.00001e-14
1.00001e-14
1.00001e-14
1.00001e-14
1.00001e-14
1e-14
1e-14
1.00001e-14
1e-14
1e-14
1e-14
1e-14
1e-14
1e-14
1e-14
1e-14
1e-14
1e-14
1e-14
1e-14
1e-14
1e-14
1e-14
1e-14
1e-14
1e-14
1e-14
1e-14
1e-14
1e-14
1e-14
1e-14
1e-14
1e-14
1e-14
1e-14
1e-14
1e-14
1e-14
1e-14
1e-14
1e-14
1e-14
1e-14
1e-14
1e-14
1e-14
1e-14
1e-14
1e-14
1e-14
1e-14
1e-14
1e-14
1e-14
1e-14
1e-14
1e-14
1e-14
1e-14
1e-14
1e-14
1e-14
1e-14
1e-14
1e-14
1e-14
1e-14
1e-14
1e-14
1e-14
1e-14
1e-14
1e-14
1e-14
1e-14
1e-14
1e-14
1e-14
1e-14
1e-14
1e-14
1e-14
1e-14
1e-14
1e-14
1e-14
1e-14
1e-14
1e-14
1e-14
1e-14
1e-14
1e-14
1e-14
1e-14
1e-14
1e-14
1e-14
1e-14
1e-14
1e-14
1e-14
1e-14
1e-14
1e-14
1e-14
1e-14
1e-14
1e-14
1e-14
1e-14
1e-14
1e-14
1e-14
1e-14
1e-14
1e-14
1e-14
1e-14
1e-14
1e-14
1e-14
1e-14
1e-14
1e-14
1e-14
1e-14
1e-14
1e-14
1e-14
1e-14
1e-14
1e-14
1e-14
1e-14
1e-14
1e-14
1e-14
1e-14
1e-14
1e-14
1e-14
1e-14
1e-14
1e-14
1e-14
1e-14
1e-14
1e-14
1e-14
1e-14
1e-14
1e-14
1e-14
1e-14
1e-14
1e-14
1e-14
1e-14
1e-14
1e-14
1e-14
1e-14
1e-14
1e-14
1e-14
1e-14
1e-14
1e-14
1e-14
1e-14
1e-14
1e-14
1e-14
1e-14
1e-14
1e-14
1e-14
1e-14
1e-14
1e-14
1e-14
1e-14
1e-14
1e-14
1e-14
1e-14
1e-14
1e-14
1e-14
1e-14
1e-14
1e-14
1e-14
1e-14
1e-14
1e-14
1e-14
1e-14
1e-14
1e-14
1e-14
1e-14
1e-14
1e-14
1e-14
1e-14
1e-14
1e-14
1e-14
1e-14
1e-14
1e-14
1e-14
1e-14
1e-14
1e-14
1e-14
1e-14
1e-14
1e-14
1e-14
1e-14
1e-14
1e-14
1e-14
1e-14
1e-14
1e-14
1e-14
1e-14
1e-14
1e-14
1e-14
1e-14
1e-14
1e-14
1e-14
1e-14
1e-14
1e-14
1e-14
1e-14
1e-14
1e-14
1e-14
1e-14
1e-14
1e-14
1e-14
1e-14
1e-14
1e-14
1e-14
1e-14
1e-14
1e-14
1e-14
1e-14
1e-14
1e-14
1e-14
1e-14
1e-14
1e-14
1e-14
1e-14
1e-14
1e-14
1e-14
1e-14
1e-14
1e-14
1e-14
1e-14
1e-14
1e-14
1e-14
1e-14
1e-14
1e-14
1e-14
1e-14
1e-14
1e-14
1e-14
1e-14
1e-14
1e-14
1e-14
1e-14
1e-14
1e-14
1e-14
1e-14
1e-14
1e-14
1e-14
1e-14
1e-14
1e-14
1e-14
1e-14
1e-14
1e-14
1e-14
1e-14
1e-14
1e-14
1e-14
1e-14
1e-14
1e-14
1e-14
1e-14
1e-14
1e-14
1e-14
1e-14
1e-14
1e-14
1e-14
1e-14
1e-14
1e-14
1e-14
1e-14
1e-14
1e-14
1e-14
1e-14
1e-14
1e-14
1e-14
1e-14
1e-14
1e-14
1e-14
1e-14
1e-14
1e-14
1e-14
1e-14
1e-14
1e-14
1e-14
1e-14
5.55078e-13
3.52352e-14
2.88759e-14
1.00698e-14
1.03753e-14
1.95104e-14
2.59573e-13
1.33765e-14
1.18367e-14
2.44145e-13
2.29363e-13
1.14787e-14
1.13033e-14
4.70166e-13
2.1306e-13
1.06926e-14
1.57794e-13
1.68648e-14
1.1031e-14
1.98223e-14
1.36349e-14
1.00211e-14
1.01013e-14
1e-14
4.22865e-14
1.80545e-14
1.03747e-14
1.42254e-14
1.0558e-14
1.00875e-14
1.00088e-14
4.79349e-13
5.28181e-13
1.35632e-14
2.01348e-13
1.2861e-14
1.02956e-14
1.00311e-14
5.25889e-13
5.23942e-13
1.22825e-14
5.2716e-13
4.79339e-13
1.35607e-14
1e-14
2.01352e-13
1.02953e-14
1.28561e-14
1.0031e-14
4.7015e-13
1.8125e-14
4.22751e-14
1.03756e-14
2.13048e-13
1.06923e-14
1.42244e-14
1.00875e-14
1.0558e-14
1.00088e-14
1.68648e-14
1.57792e-13
1.1031e-14
5.55082e-13
3.52337e-14
1.98197e-14
1.00211e-14
1.36349e-14
1.01013e-14
2.88795e-14
1.007e-14
1.03758e-14
1.95088e-14
1.33756e-14
2.59589e-13
1.18377e-14
2.44169e-13
1.14807e-14
2.29141e-13
1.13001e-14
5.25727e-13
1e-14
5.53201e-13
3.11989e-14
1e-14
1.00173e-14
2.68754e-14
1.00462e-14
1e-14
1.01078e-14
1.03076e-14
1.78105e-14
2.24662e-13
1e-14
1.11116e-14
2.5829e-13
1.27305e-14
1.15682e-14
1.99505e-13
1.07275e-14
1.06199e-14
2.42711e-13
2.27871e-13
1.12684e-14
1.10972e-14
4.10755e-13
4.66094e-13
1.34179e-13
1e-14
2.11085e-13
1.07367e-14
1.38628e-13
1.00044e-14
1.06574e-14
1.57287e-13
1.56346e-14
1.08904e-14
1.12152e-14
1.0018e-14
1e-14
1.91246e-14
1.28027e-14
1.00209e-14
1.00609e-14
1.28086e-14
1e-14
1e-14
1e-14
1.03732e-14
3.79767e-14
1.68818e-14
1.03649e-14
1.01884e-14
1e-14
1.00001e-14
1.33767e-14
1.04927e-14
1.00621e-14
1.00058e-14
4.27203e-13
3.60029e-13
1e-14
4.76492e-13
5.25908e-13
1.28037e-14
1.08577e-14
1.03453e-14
1e-14
2.01125e-13
1.24267e-14
1.02989e-14
1.00219e-14
3.68592e-13
3.67441e-13
1e-14
5.23196e-13
5.21204e-13
1.18141e-14
3.59645e-13
4.27202e-13
1e-14
5.24951e-13
4.76476e-13
1.27939e-14
1.28185e-14
1e-14
1.0345e-14
1.08571e-14
1e-14
2.01118e-13
1.02984e-14
1.24262e-14
1.00219e-14
4.10741e-13
4.66076e-13
1e-14
1e-14
1.03733e-14
1.68801e-14
3.79768e-14
1.03649e-14
1.34177e-13
1e-14
2.11076e-13
1.07366e-14
1e-14
1.01884e-14
1.00001e-14
1.33762e-14
1.00621e-14
1.04926e-14
1.00058e-14
1.00044e-14
1.38628e-13
1.06575e-14
1.56344e-14
1.57287e-13
1.08904e-14
5.25726e-13
1e-14
5.532e-13
3.11995e-14
1.0018e-14
1.12153e-14
1e-14
1.91241e-14
1.00209e-14
1.28028e-14
1.00609e-14
1e-14
1.00174e-14
2.6876e-14
1.00461e-14
1e-14
1.0108e-14
1.03075e-14
1.78091e-14
1e-14
2.24652e-13
1.11124e-14
1.273e-14
2.58303e-13
1.15693e-14
1.07285e-14
1.99372e-13
1.06195e-14
2.42728e-13
1.12706e-14
2.27738e-13
1.10967e-14
5.26124e-13
1e-14
5.53135e-13
3.14142e-14
1e-14
1.00166e-14
2.69486e-14
1.00407e-14
1e-14
1.05861e-14
1.03041e-14
1.7474e-14
2.25792e-13
1e-14
1.11103e-14
2.5837e-13
1.26041e-14
1.15662e-14
2.00276e-13
1.07422e-14
1.06332e-14
2.42723e-13
2.27879e-13
1.12623e-14
1.10905e-14
4.13132e-13
4.66471e-13
1.36869e-13
1e-14
2.1099e-13
1.07847e-14
1.39219e-13
1.00611e-14
1.06611e-14
1.57364e-13
1.55197e-14
1.08906e-14
1.13977e-14
1.00188e-14
1e-14
1.8961e-14
1.27656e-14
1.00204e-14
1.00567e-14
1.42956e-14
1e-14
1e-14
1e-14
1.03671e-14
3.84812e-14
1.65194e-14
1.03695e-14
1.0175e-14
1e-14
1.00002e-14
1.33464e-14
1.0498e-14
1.00575e-14
1.00057e-14
4.28739e-13
3.65196e-13
1e-14
4.76922e-13
5.255e-13
1.24172e-14
1.08342e-14
1.03393e-14
1e-14
2.01381e-13
1.24541e-14
1.02995e-14
1.00219e-14
3.74021e-13
3.72794e-13
1e-14
5.22847e-13
5.20854e-13
1.15302e-14
3.64802e-13
4.2874e-13
1e-14
5.24548e-13
4.76906e-13
1.24082e-14
1.42961e-14
1e-14
1.03391e-14
1.08342e-14
1e-14
2.01376e-13
1.02991e-14
1.24537e-14
1.00219e-14
4.13118e-13
4.66453e-13
1e-14
1e-14
1.03671e-14
1.65183e-14
3.84813e-14
1.03694e-14
1.3687e-13
1e-14
2.10981e-13
1.07847e-14
1e-14
1.0175e-14
1.00002e-14
1.3346e-14
1.00575e-14
1.04979e-14
1.00057e-14
1.00611e-14
1.39218e-13
1.06611e-14
1.55193e-14
1.57364e-13
1.08906e-14
5.2612e-13
1e-14
5.53135e-13
3.1414e-14
1.00188e-14
1.13977e-14
1e-14
1.89603e-14
1.00204e-14
1.27654e-14
1.00567e-14
1e-14
1.00165e-14
2.69494e-14
1.00408e-14
1e-14
1.05868e-14
1.03042e-14
1.74726e-14
1e-14
2.2578e-13
1.11109e-14
1.26038e-14
2.58383e-13
1.15673e-14
1.0743e-14
2.00143e-13
1.06333e-14
2.4274e-13
1.12644e-14
2.27748e-13
1.10901e-14
5.25746e-13
1e-14
5.53138e-13
3.1455e-14
1e-14
1.00164e-14
2.69352e-14
1.00406e-14
1e-14
1.06853e-14
1.03044e-14
1.74483e-14
2.25917e-13
1e-14
1.11203e-14
2.58413e-13
1.25868e-14
1.15702e-14
2.00376e-13
1.07524e-14
1.06431e-14
2.42739e-13
2.27908e-13
1.12645e-14
1.10918e-14
4.13239e-13
4.66573e-13
1.3679e-13
1e-14
2.10893e-13
1.07973e-14
1.39269e-13
1.00673e-14
1.06685e-14
1.57418e-13
1.5495e-14
1.08926e-14
1.1433e-14
1.00192e-14
1e-14
1.89223e-14
1.27583e-14
1.00206e-14
1.00562e-14
1.44711e-14
1e-14
1e-14
1e-14
1.03684e-14
3.87359e-14
1.64615e-14
1.03684e-14
1.01765e-14
1e-14
1.00002e-14
1.33332e-14
1.04994e-14
1.00561e-14
1.00055e-14
4.28625e-13
3.65164e-13
1e-14
4.77005e-13
5.2549e-13
1.2348e-14
1.08417e-14
1.03407e-14
1e-14
2.01431e-13
1.24596e-14
1.0299e-14
1.00213e-14
3.74048e-13
3.72823e-13
1e-14
5.22817e-13
5.20825e-13
1.14781e-14
3.64773e-13
4.28632e-13
1e-14
5.24537e-13
4.76988e-13
1.23392e-14
1.44723e-14
1e-14
1.03405e-14
1.08418e-14
1e-14
2.01427e-13
1.02986e-14
1.2459e-14
1.00212e-14
4.13223e-13
4.66556e-13
1e-14
1e-14
1.03684e-14
1.646e-14
3.8736e-14
1.03684e-14
1.3679e-13
1e-14
2.10886e-13
1.07973e-14
1e-14
1.01765e-14
1.00002e-14
1.33327e-14
1.00561e-14
1.04993e-14
1.00055e-14
1.00673e-14
1.39269e-13
1.06684e-14
1.54945e-14
1.57418e-13
1.08926e-14
5.25744e-13
1e-14
5.53137e-13
3.14567e-14
1.00192e-14
1.14329e-14
1e-14
1.89214e-14
1.00206e-14
1.27581e-14
1.00562e-14
1e-14
1.00164e-14
2.69357e-14
1.00406e-14
1e-14
1.06858e-14
1.03045e-14
1.74469e-14
1e-14
2.25904e-13
1.11209e-14
1.25866e-14
2.58426e-13
1.15713e-14
1.07532e-14
2.00245e-13
1.06431e-14
2.42757e-13
1.12666e-14
2.27776e-13
1.10914e-14
5.25586e-13
1e-14
5.53102e-13
3.14713e-14
1e-14
1.00169e-14
2.69133e-14
1.00419e-14
1e-14
1.07077e-14
1.0304e-14
1.74918e-14
2.25903e-13
1e-14
1.11234e-14
2.58452e-13
1.26111e-14
1.15823e-14
2.00373e-13
1.07544e-14
1.06442e-14
2.42761e-13
2.2791e-13
1.12711e-14
1.10964e-14
4.13292e-13
4.66623e-13
1.36667e-13
1e-14
2.108e-13
1.08068e-14
1.39288e-13
1.00608e-14
1.06691e-14
1.57501e-13
1.54887e-14
1.08937e-14
1.14362e-14
1.00193e-14
1e-14
1.88799e-14
1.27597e-14
1.00207e-14
1.00558e-14
1.44901e-14
1e-14
1e-14
1e-14
1.03663e-14
3.8969e-14
1.64268e-14
1.03648e-14
1.01768e-14
1e-14
1.00002e-14
1.33177e-14
1.04995e-14
1.00549e-14
1.00053e-14
4.28615e-13
3.6513e-13
1e-14
4.76998e-13
5.25507e-13
1.23423e-14
1.0843e-14
1.03403e-14
1e-14
2.01436e-13
1.2459e-14
1.02979e-14
1.00209e-14
3.74017e-13
3.72795e-13
1e-14
5.22805e-13
5.20813e-13
1.14752e-14
3.6474e-13
4.28619e-13
1e-14
5.24553e-13
4.76983e-13
1.23333e-14
1.44915e-14
1e-14
1.034e-14
1.0843e-14
1e-14
2.01432e-13
1.02975e-14
1.24583e-14
1.00208e-14
4.13278e-13
4.66606e-13
1e-14
1e-14
1.03663e-14
1.64253e-14
3.89697e-14
1.03647e-14
1.36668e-13
1e-14
2.10793e-13
1.08068e-14
1e-14
1.01768e-14
1.00002e-14
1.3317e-14
1.00549e-14
1.04994e-14
1.00053e-14
1.00607e-14
1.39287e-13
1.06691e-14
1.54881e-14
1.57501e-13
1.08937e-14
5.25581e-13
1e-14
5.53102e-13
3.14717e-14
1.00193e-14
1.14362e-14
1e-14
1.8879e-14
1.00207e-14
1.27593e-14
1.00558e-14
1e-14
1.00169e-14
2.69138e-14
1.0042e-14
1e-14
1.07083e-14
1.03041e-14
1.74906e-14
1e-14
2.25892e-13
1.1124e-14
1.26108e-14
2.58465e-13
1.15834e-14
1.07552e-14
2.00243e-13
1.06442e-14
2.42779e-13
1.12733e-14
2.27776e-13
1.10959e-14
5.25492e-13
1e-14
5.53041e-13
3.16409e-14
1e-14
1.00167e-14
2.6933e-14
1.00499e-14
1e-14
1.07333e-14
1.03109e-14
1.75823e-14
2.25717e-13
1e-14
1.11299e-14
2.58495e-13
1.27151e-14
1.16194e-14
2.00239e-13
1.07567e-14
1.06443e-14
2.42876e-13
2.2794e-13
1.12877e-14
1.11069e-14
4.13347e-13
4.66689e-13
1.36451e-13
1e-14
2.10733e-13
1.08232e-14
1.3934e-13
1.00495e-14
1.06682e-14
1.57721e-13
1.55047e-14
1.08961e-14
1.14434e-14
1.00192e-14
1e-14
1.87513e-14
1.27843e-14
1.00206e-14
1.00548e-14
1.45027e-14
1e-14
1e-14
1e-14
1.03625e-14
3.93028e-14
1.64358e-14
1.03606e-14
1.01777e-14
1e-14
1.00001e-14
1.33149e-14
1.05009e-14
1.00538e-14
1.00049e-14
4.28599e-13
3.65094e-13
1e-14
4.7697e-13
5.25543e-13
1.23903e-14
1.08421e-14
1.03396e-14
1e-14
2.01433e-13
1.24617e-14
1.02977e-14
1.00207e-14
3.73957e-13
3.72737e-13
1e-14
5.22813e-13
5.20822e-13
1.1497e-14
3.64705e-13
4.28603e-13
1e-14
5.24589e-13
4.76955e-13
1.23819e-14
1.45038e-14
1e-14
1.03394e-14
1.0842e-14
1e-14
2.01426e-13
1.02973e-14
1.2461e-14
1.00207e-14
4.13335e-13
4.66672e-13
1e-14
1e-14
1.03625e-14
1.6434e-14
3.93033e-14
1.03605e-14
1.36453e-13
1e-14
2.10726e-13
1.08233e-14
1e-14
1.01776e-14
1.00001e-14
1.33143e-14
1.00538e-14
1.05008e-14
1.00049e-14
1.00494e-14
1.39339e-13
1.06681e-14
1.5504e-14
1.57722e-13
1.08961e-14
5.25489e-13
1e-14
5.53041e-13
3.16421e-14
1.00192e-14
1.14433e-14
1e-14
1.87509e-14
1.00206e-14
1.2784e-14
1.00548e-14
1e-14
1.00167e-14
2.69337e-14
1.00499e-14
1e-14
1.0734e-14
1.03109e-14
1.75813e-14
1e-14
2.25703e-13
1.11306e-14
1.27151e-14
2.58509e-13
1.16207e-14
1.07576e-14
2.00107e-13
1.06444e-14
2.42897e-13
1.12901e-14
2.27806e-13
1.11065e-14
5.24759e-13
1e-14
5.53458e-13
3.22763e-14
1e-14
1.00166e-14
2.75493e-14
1.00817e-14
1e-14
1.08784e-14
1.03626e-14
1.76256e-14
2.25128e-13
1e-14
1.11465e-14
2.58845e-13
1.30609e-14
1.17314e-14
1.99792e-13
1.07552e-14
1.06382e-14
2.43326e-13
2.28192e-13
1.13529e-14
1.11482e-14
4.13338e-13
4.67355e-13
1.35804e-13
1e-14
2.10701e-13
1.08488e-14
1.39333e-13
1.00317e-14
1.06623e-14
1.58436e-13
1.55873e-14
1.09137e-14
1.14842e-14
1.00187e-14
1e-14
1.90044e-14
1.29193e-14
1.00231e-14
1.0054e-14
1.45029e-14
1e-14
1e-14
1e-14
1.03523e-14
4.06898e-14
1.70641e-14
1.03738e-14
1.01789e-14
1e-14
1e-14
1.34033e-14
1.05089e-14
1.00538e-14
1.00046e-14
4.28431e-13
3.64881e-13
1e-14
4.77216e-13
5.25647e-13
1.26254e-14
1.08342e-14
1.03382e-14
1e-14
2.02105e-13
1.25319e-14
1.03075e-14
1.00197e-14
3.73783e-13
3.72559e-13
1e-14
5.22939e-13
5.21024e-13
1.15818e-14
3.64488e-13
4.28433e-13
1e-14
5.24723e-13
4.77204e-13
1.26197e-14
1.45031e-14
1e-14
1.0338e-14
1.0834e-14
1e-14
2.02094e-13
1.03072e-14
1.25312e-14
1.00197e-14
4.13326e-13
4.67351e-13
1e-14
1e-14
1.03522e-14
1.70622e-14
4.06912e-14
1.03737e-14
1.35804e-13
1e-14
2.10698e-13
1.08489e-14
1e-14
1.01789e-14
1e-14
1.34029e-14
1.00538e-14
1.05088e-14
1.00046e-14
1.00316e-14
1.39335e-13
1.06623e-14
1.55866e-14
1.58437e-13
1.09136e-14
5.24762e-13
1e-14
5.53457e-13
3.22799e-14
1.00187e-14
1.1484e-14
1e-14
1.9004e-14
1.00231e-14
1.2919e-14
1.0054e-14
1e-14
1.00165e-14
2.75507e-14
1.00817e-14
1e-14
1.08796e-14
1.03627e-14
1.76253e-14
1e-14
2.25116e-13
1.11471e-14
1.30614e-14
2.58865e-13
1.17334e-14
1.07561e-14
1.99659e-13
1.06383e-14
2.43353e-13
1.1356e-14
2.28059e-13
1.11479e-14
5.24921e-13
1e-14
5.35434e-13
5.71106e-14
1e-14
1.00072e-14
2.4195e-14
1.05537e-14
1e-14
1.09851e-14
1.18371e-14
2.10008e-14
2.22205e-13
1e-14
1.11098e-14
3.07828e-13
1.37252e-14
1.20061e-14
1.96896e-13
1.05248e-14
1.04164e-14
2.91779e-13
2.78663e-13
1.19407e-14
1.16318e-14
4.11428e-13
4.59014e-13
1.32098e-13
1e-14
2.03813e-13
1.08831e-14
1.38888e-13
1.00138e-14
1.05884e-14
1.83897e-13
1.57351e-14
1.07069e-14
1.14447e-14
1.0015e-14
1e-14
4.25571e-14
1.53304e-14
1.00215e-14
1.01173e-14
1.3156e-14
1e-14
1e-14
1e-14
1.03596e-14
4.76142e-14
1.32615e-14
1.01823e-14
1.01948e-14
1e-14
1e-14
1.38967e-14
1.05254e-14
1.00629e-14
1.00043e-14
4.27487e-13
3.64196e-13
1e-14
4.73479e-13
4.81094e-13
1.16749e-14
1.10264e-14
1.03492e-14
1e-14
2.28956e-13
1.30213e-14
1.00905e-14
1e-14
3.73496e-13
3.72332e-13
1e-14
4.85392e-13
4.84993e-13
1.03882e-14
3.63803e-13
4.27491e-13
1e-14
4.80726e-13
4.73481e-13
1.16746e-14
1.31548e-14
1e-14
1.03493e-14
1.1026e-14
1e-14
2.28956e-13
1.00905e-14
1.3021e-14
1e-14
4.1143e-13
4.59015e-13
1e-14
1e-14
1.03596e-14
1.32609e-14
4.7618e-14
1.01823e-14
1.32099e-13
1e-14
2.0381e-13
1.08831e-14
1e-14
1.01948e-14
1e-14
1.38963e-14
1.00629e-14
1.05253e-14
1.00043e-14
1.00137e-14
1.38889e-13
1.05884e-14
1.5734e-14
1.83905e-13
1.0707e-14
5.2492e-13
1e-14
5.35443e-13
5.71144e-14
1.0015e-14
1.14445e-14
1e-14
4.25512e-14
1.00216e-14
1.53299e-14
1.01173e-14
1e-14
1.00072e-14
2.41959e-14
1.05539e-14
1e-14
1.09872e-14
1.18375e-14
2.10009e-14
1e-14
2.22194e-13
1.11115e-14
1.3729e-14
3.0785e-13
1.20105e-14
1.05269e-14
1.96767e-13
1.04169e-14
2.918e-13
1.19431e-14
2.78517e-13
1.16311e-14
1e-14
1e-14
1e-14
1.87809e-14
1e-14
1.04876e-14
1.00413e-14
1.03935e-14
1.08142e-14
1e-14
1.00328e-14
1.01074e-14
1.60019e-14
1.03208e-14
1e-14
1.0318e-14