/*--------------------------------*- C++ -*----------------------------------*\
| =========                 |                                                 |
| \\      /  F ield         | OpenFOAM: The Open Source CFD Toolbox           |
|  \\    /   O peration     | Version:  2.1.1                                 |
|   \\  /    A nd           | Web:      www.OpenFOAM.org                      |
|    \\/     M anipulation  |                                                 |
\*---------------------------------------------------------------------------*/
FoamFile
{
    version     2.0;
    format      ascii;
    class       surfaceScalarField;
    location    "0.0025";
    object      phi;
}
// * * * * * * * * * * * * * * * * * * * * * * * * * * * * * * * * * * * * * //

dimensions      [0 3 -1 0 0 0 0];

internalField   nonuniform List<scalar> 
29182
(
-1.96568e-12
2.03661e-12
-1.3052e-11
3.31968e-11
-2.02157e-11
-1.40991e-12
5.95774e-13
-1.4361e-11
5.47441e-11
-3.9569e-11
8.46156e-13
-7.99595e-12
2.14178e-11
-1.4268e-11
2.54929e-12
-1.24033e-11
-1.00443e-11
6.51402e-11
-4.52419e-11
-9.03856e-13
-2.4822e-13
7.62888e-10
4.83453e-11
4.27202e-11
-4.82374e-11
-4.2381e-11
5.78592e-11
4.45235e-11
-5.66999e-11
-4.49265e-11
-7.6294e-10
-7.35843e-15
-2.6326e-13
9.75743e-10
4.01188e-11
5.74718e-11
-4.0772e-11
-5.74076e-11
-9.75789e-10
-1.95103e-13
-2.3141e-14
8.79343e-10
6.60415e-11
6.4681e-11
-6.59412e-11
-6.45207e-11
-8.79395e-10
-1.34018e-13
8.73582e-10
6.28038e-11
6.20177e-11
-6.28058e-11
-6.20187e-11
-8.73636e-10
3.10691e-12
-1.08375e-11
2.16851e-11
-1.39545e-11
2.91742e-12
1.8732e-12
-1.4035e-11
-1.26953e-11
9.27817e-11
-7.0842e-11
-7.77342e-13
-1.83113e-13
7.23274e-10
6.16513e-11
5.79726e-11
-6.09025e-11
-5.75235e-11
6.50596e-11
4.47564e-11
-6.46775e-11
-4.53129e-11
-7.23337e-10
2.08803e-12
-1.3342e-12
9.0282e-10
5.50685e-11
4.6611e-11
-5.52201e-11
-4.79515e-11
-9.02861e-10
8.83808e-13
9.75338e-13
1.16296e-09
-1.16298e-09
6.41198e-13
1.57794e-14
1.18571e-09
-1.18575e-09
2.99294e-13
3.27976e-13
1.13884e-09
-1.13885e-09
1.80267e-13
1.12535e-09
-1.12536e-09
-2.64324e-12
-6.04786e-12
-1.01685e-11
4.95334e-11
-3.06738e-11
-1.77344e-12
-1.80776e-13
7.48132e-10
6.28609e-11
5.84831e-11
-6.19377e-11
-5.79526e-11
5.84383e-11
4.38569e-11
-5.72633e-11
-4.44709e-11
-7.48193e-10
7.25159e-13
-1.35755e-12
8.83336e-10
5.8951e-11
4.70168e-11
-5.8938e-11
-4.81703e-11
-8.83337e-10
-4.63206e-13
1.04134e-12
1.13243e-09
-1.13247e-09
-1.89755e-12
1.2072e-13
1.15634e-09
-1.15636e-09
-7.38341e-13
-1.46721e-13
1.16859e-09
-1.16863e-09
-6.08265e-13
-1.13234e-13
1.15356e-09
-1.15356e-09
-2.41465e-13
-6.66426e-15
1.13643e-09
-1.13646e-09
-4.45931e-14
1.12849e-09
-1.1285e-09
-1.23008e-12
9.67943e-13
7.212e-10
5.06218e-11
5.68288e-11
-5.08491e-11
-5.63451e-11
4.3309e-11
3.37372e-11
-4.23356e-11
-3.46859e-11
-7.21219e-10
1.79058e-12
-1.77451e-12
8.82642e-10
5.28508e-11
4.52658e-11
-5.30331e-11
-4.63012e-11
-8.82672e-10
4.13293e-13
1.22126e-12
1.1371e-09
-1.13713e-09
-9.33921e-13
2.86859e-14
1.14611e-09
-1.14615e-09
1.54871e-13
-3.63206e-14
1.15437e-09
-1.15439e-09
6.54037e-13
-3.64264e-13
1.14638e-09
-1.14639e-09
4.24946e-13
9.11638e-14
1.14384e-09
-1.14385e-09
2.94414e-13
1.29497e-14
1.14018e-09
-1.14017e-09
1.5264e-13
1.26054e-13
1.13465e-09
-1.13465e-09
9.95399e-14
1.13037e-09
-1.13036e-09
9.70177e-13
-1.22904e-12
7.20346e-10
4.33177e-11
3.38731e-11
-4.23637e-11
-3.48235e-11
5.05855e-11
5.68217e-11
-5.08102e-11
-5.63344e-11
-7.20353e-10
9.9869e-13
9.96246e-13
1.12355e-09
-1.12361e-09
-1.314e-12
5.59346e-13
1.13177e-09
-1.13179e-09
4.99798e-14
-1.0983e-13
1.14353e-09
-1.14357e-09
2.04882e-13
-1.33999e-13
1.13593e-09
-1.13593e-09
8.48041e-14
1.04056e-13
1.13426e-09
-1.13428e-09
-3.47499e-13
6.06226e-14
1.13665e-09
-1.13664e-09
-2.64603e-13
3.44164e-15
1.13935e-09
-1.13935e-09
-2.53284e-13
-1.40776e-14
1.13952e-09
-1.1395e-09
-1.23151e-13
-1.4998e-14
1.13732e-09
-1.13731e-09
-3.19064e-14
1.13536e-09
-1.13535e-09
-2.6538e-12
-1.01748e-11
-6.03427e-12
4.95174e-11
-3.06545e-11
-1.77461e-12
1.79076e-12
8.81906e-10
5.28529e-11
4.52871e-11
-5.30351e-11
-4.63227e-11
-8.81934e-10
5.57869e-13
-1.3169e-12
1.13162e-09
-1.13164e-09
5.66022e-13
5.66895e-13
1.12644e-09
-1.12646e-09
4.54082e-13
2.08453e-16
1.1234e-09
-1.1234e-09
1.38568e-13
1.94906e-13
1.12767e-09
-1.12768e-09
2.04135e-13
1.66141e-14
1.13228e-09
-1.13226e-09
2.37479e-13
9.95506e-15
1.13648e-09
-1.13647e-09
1.8777e-13
2.6572e-14
1.13906e-09
-1.13904e-09
1.38729e-13
8.06491e-15
1.13973e-09
-1.1397e-09
7.12507e-14
2.32281e-14
1.13902e-09
-1.13899e-09
1.49125e-14
1.13841e-09
-1.13837e-09
-1.084e-11
3.10848e-12
2.16858e-11
-1.39542e-11
-1.79811e-13
-1.7754e-12
7.47929e-10
5.84215e-11
4.38374e-11
-5.72466e-11
-4.44521e-11
6.28643e-11
5.84908e-11
-6.19405e-11
-5.79596e-11
-7.47989e-10
1.22256e-12
4.13479e-13
1.13666e-09
-1.13669e-09
-1.1026e-13
4.91623e-14
1.14323e-09
-1.14327e-09
3.54394e-16
4.54672e-13
1.12358e-09
-1.12358e-09
-2.25941e-15
-2.32301e-15
1.12497e-09
-1.12497e-09
3.71997e-14
1.37852e-13
1.12988e-09
-1.12986e-09
9.01185e-16
3.63902e-14
1.13385e-09
-1.13383e-09
-7.21753e-14
6.08037e-14
1.13696e-09
-1.13694e-09
-6.19603e-14
-5.9147e-15
1.13907e-09
-1.13905e-09
-7.08489e-14
-8.06614e-15
1.14004e-09
-1.14002e-09
-3.87604e-14
-3.31683e-14
1.14013e-09
-1.14011e-09
-4.08419e-14
1.14017e-09
-1.14014e-09
1.87155e-12
2.91823e-12
-1.26974e-11
-1.40338e-11
9.27831e-11
-7.08417e-11
-1.35804e-12
7.24902e-13
8.83175e-10
5.89569e-11
4.7024e-11
-5.89435e-11
-4.81777e-11
-8.83178e-10
2.83276e-14
-9.33894e-13
1.14585e-09
-1.14589e-09
-1.35042e-13
2.04516e-13
1.13573e-09
-1.13573e-09
1.94384e-13
1.38581e-13
1.12763e-09
-1.12764e-09
1.37113e-13
3.70967e-14
1.12997e-09
-1.12995e-09
1.24622e-13
1.24981e-13
1.13305e-09
-1.13302e-09
1.28068e-13
4.49775e-15
1.13563e-09
-1.1356e-09
1.18651e-13
3.51945e-14
1.13794e-09
-1.1379e-09
9.47319e-14
-1.68649e-14
1.13974e-09
-1.13971e-09
6.45659e-14
-1.2757e-14
1.14083e-09
-1.1408e-09
2.99579e-14
-3.07233e-14
1.14127e-09
-1.14124e-09
-3.43832e-14
1.14154e-09
-1.14151e-09
-7.99619e-12
8.46236e-13
2.14178e-11
-1.42679e-11
-1.83166e-13
-7.76935e-13
7.23254e-10
6.5057e-11
4.47507e-11
-6.46752e-11
-4.53073e-11
6.16521e-11
5.79742e-11
-6.09032e-11
-5.75251e-11
-7.23317e-10
1.04106e-12
-4.63389e-13
1.13233e-09
-1.13237e-09
-3.6289e-14
1.5484e-13
1.15422e-09
-1.15423e-09
1.03827e-13
8.46166e-14
1.13411e-09
-1.13413e-09
1.65341e-14
2.04136e-13
1.13222e-09
-1.1322e-09
3.62182e-14
9.17868e-16
1.13383e-09
-1.13381e-09
4.38553e-15
1.28511e-13
1.13564e-09
-1.13561e-09
-8.53444e-15
-8.22513e-15
1.1375e-09
-1.13747e-09
-3.96788e-14
3.68934e-14
1.13921e-09
-1.13919e-09
-3.89475e-14
-3.79472e-14
1.14065e-09
-1.14063e-09
-4.27152e-14
-2.80793e-14
1.14174e-09
-1.14172e-09
-2.5978e-14
-6.10469e-14
1.14231e-09
-1.14229e-09
-6.22204e-14
1.14265e-09
-1.14264e-09
2.54913e-12
-1.00447e-11
-1.24029e-11
6.51402e-11
-4.52417e-11
-1.33421e-12
2.08838e-12
9.02792e-10
5.50698e-11
4.66128e-11
-5.52213e-11
-4.79532e-11
-9.02832e-10
1.20703e-13
-1.89758e-12
1.15627e-09
-1.15629e-09
-3.64569e-13
6.54353e-13
1.1463e-09
-1.14631e-09
6.01985e-14
-3.47497e-13
1.13658e-09
-1.13657e-09
9.37934e-15
2.37728e-13
1.13643e-09
-1.13641e-09
6.02261e-14
-7.19854e-14
1.13693e-09
-1.1369e-09
3.48509e-14
1.19163e-13
1.13791e-09
-1.13788e-09
3.64527e-14
-3.92039e-14
1.1392e-09
-1.13918e-09
2.15033e-14
2.19981e-14
1.14061e-09
-1.14059e-09
1.37261e-14
-4.95082e-14
1.1418e-09
-1.14178e-09
2.58357e-15
-3.43291e-14
1.14281e-09
-1.1428e-09
-4.35284e-15
-6.31231e-14
1.14343e-09
-1.14342e-09
-6.13204e-14
1.14377e-09
-1.14377e-09
-2.48277e-13
-9.03743e-13
7.62885e-10
5.78586e-11
4.4522e-11
-5.66993e-11
-4.4925e-11
4.83455e-11
4.27204e-11
-4.82375e-11
-4.23811e-11
-7.62937e-10
9.75288e-13
8.84129e-13
1.16294e-09
-1.16297e-09
-1.4696e-13
-7.38177e-13
1.16857e-09
-1.16861e-09
9.08654e-14
4.25337e-13
1.14379e-09
-1.1438e-09
3.06093e-15
-2.6434e-13
1.1393e-09
-1.1393e-09
2.62723e-14
1.88277e-13
1.13902e-09
-1.13899e-09
-6.18115e-15
-6.15441e-14
1.13904e-09
-1.13902e-09
-1.70204e-14
9.53672e-14
1.13973e-09
-1.13969e-09
-3.82143e-14
-3.83299e-14
1.14065e-09
-1.14063e-09
-4.98768e-14
1.43736e-14
1.14187e-09
-1.14185e-09
-5.20135e-14
-5.16619e-14
1.14298e-09
-1.14298e-09
-4.6964e-14
-3.80579e-14
1.14385e-09
-1.14386e-09
-3.12784e-14
-6.67601e-14
1.14451e-09
-1.14453e-09
-6.45382e-14
1.14486e-09
-1.14488e-09
-2.63252e-13
-7.20148e-15
9.75735e-10
4.0119e-11
5.74723e-11
-4.07722e-11
-5.74081e-11
-9.75781e-10
1.56863e-14
6.41542e-13
1.18569e-09
-1.18573e-09
-1.13534e-13
-6.07936e-13
1.15353e-09
-1.15353e-09
1.26169e-14
2.94923e-13
1.14012e-09
-1.14012e-09
-1.44705e-14
-2.52814e-13
1.13947e-09
-1.13946e-09
7.72697e-15
1.39493e-13
1.13969e-09
-1.13966e-09
-8.44386e-15
-7.02874e-14
1.14002e-09
-1.13999e-09
-1.31053e-14
6.53449e-14
1.14081e-09
-1.14078e-09
-2.85038e-14
-4.20162e-14
1.14173e-09
-1.14171e-09
-3.4783e-14
3.39045e-15
1.14283e-09
-1.14281e-09
-3.84456e-14
-4.62185e-14
1.14395e-09
-1.14395e-09
-3.47331e-14
-3.41203e-14
1.14491e-09
-1.14493e-09
-2.53387e-14
-5.48709e-14
1.1456e-09
-1.14563e-09
-5.23367e-14
1.14602e-09
-1.14605e-09
-1.96573e-12
-1.30521e-11
2.0367e-12
3.31968e-11
-2.02157e-11
-2.30446e-14
-1.94945e-13
8.79338e-10
6.60418e-11
6.46811e-11
-6.59416e-11
-6.4521e-11
-8.79389e-10
3.28001e-13
2.99605e-13
1.13883e-09
-1.13884e-09
-6.8367e-15
-2.41081e-13
1.1364e-09
-1.13644e-09
1.25926e-13
1.53134e-13
1.13462e-09
-1.13462e-09
-1.51682e-14
-1.22683e-13
1.13729e-09
-1.13728e-09
2.30826e-14
7.18701e-14
1.139e-09
-1.13896e-09
-3.33803e-14
-3.81622e-14
1.14012e-09
-1.14009e-09
-3.09659e-14
3.0706e-14
1.14126e-09
-1.14122e-09
-6.12887e-14
-2.52036e-14
1.1423e-09
-1.14228e-09
-6.33791e-14
-3.29439e-15
1.14343e-09
-1.14343e-09
-6.70599e-14
-3.03021e-14
1.14456e-09
-1.14457e-09
-5.55118e-14
-2.42794e-14
1.1457e-09
-1.14573e-09
-3.6462e-14
-3.50359e-14
1.1466e-09
-1.14664e-09
-3.3651e-14
1.14714e-09
-1.14719e-09
-1.40993e-12
-1.4361e-11
5.95839e-13
5.4744e-11
-3.95689e-11
-1.34137e-13
8.73579e-10
6.28039e-11
6.20175e-11
-6.28057e-11
-6.20185e-11
-8.73632e-10
1.80046e-13
1.12535e-09
-1.12535e-09
-4.45988e-14
1.12848e-09
-1.12849e-09
9.94815e-14
1.13036e-09
-1.13034e-09
-3.20884e-14
1.13535e-09
-1.13533e-09
1.46903e-14
1.13839e-09
-1.13836e-09
-4.11078e-14
1.14016e-09
-1.14013e-09
-3.4572e-14
1.14153e-09
-1.1415e-09
-6.23449e-14
1.14264e-09
-1.14263e-09
-6.14097e-14
1.14378e-09
-1.14377e-09
-6.47539e-14
1.14488e-09
-1.14489e-09
-5.30091e-14
1.14604e-09
-1.14606e-09
-3.4302e-14
1.14716e-09
-1.1472e-09
1.14805e-09
-1.14809e-09
-2.02176e-11
-1.9658e-12
2.03697e-12
-1.30553e-11
3.32017e-11
-3.95721e-11
-1.40994e-12
5.95857e-13
-1.43646e-11
5.47508e-11
-1.42697e-11
8.46448e-13
-7.99825e-12
2.14215e-11
-4.52453e-11
2.54962e-12
-1.24046e-11
-1.00484e-11
6.51487e-11
-9.05728e-13
-2.43295e-13
7.62838e-10
4.83552e-11
4.2728e-11
-4.82462e-11
-4.23901e-11
5.7867e-11
4.45336e-11
-5.67157e-11
-4.49347e-11
-6.99238e-15
-2.67001e-13
9.75696e-10
4.01285e-11
5.74825e-11
-4.07784e-11
-5.74203e-11
-1.96795e-13
-2.59355e-14
8.79298e-10
6.60543e-11
6.46944e-11
-6.59549e-11
-6.4533e-11
-1.32405e-13
8.73521e-10
6.28169e-11
6.20309e-11
-6.28173e-11
-6.20303e-11
-1.39562e-11
3.10725e-12
-1.08397e-11
2.16888e-11
-7.08478e-11
2.91825e-12
1.87354e-12
-1.40385e-11
-1.26991e-11
9.27937e-11
-7.69697e-13
-2.27096e-13
7.23239e-10
6.16614e-11
5.79836e-11
-6.09151e-11
-5.75347e-11
6.50727e-11
4.47698e-11
-6.46905e-11
-4.53164e-11
2.09539e-12
-1.34998e-12
9.0278e-10
5.50815e-11
4.66215e-11
-5.52266e-11
-4.79566e-11
8.9012e-13
9.54575e-13
1.16297e-09
6.45352e-13
6.51656e-15
1.18568e-09
2.95814e-13
3.37018e-13
1.13883e-09
1.57127e-13
1.12536e-09
-3.06762e-11
-2.64299e-12
-6.04951e-12
-1.01714e-11
4.95401e-11
-1.84563e-12
-1.51165e-13
7.48096e-10
6.28734e-11
5.84987e-11
-6.19493e-11
-5.796e-11
5.84496e-11
4.38695e-11
-5.7274e-11
-4.44752e-11
7.26449e-13
-1.40725e-12
8.83307e-10
5.89612e-11
4.70265e-11
-5.89503e-11
-4.81765e-11
-4.841e-13
1.03792e-12
1.13237e-09
-1.93349e-12
1.1852e-13
1.15632e-09
-7.67779e-13
-1.69194e-13
1.16855e-09
-6.25707e-13
-1.48022e-13
1.15358e-09
-2.55163e-13
-3.57401e-14
1.13643e-09
-8.82439e-14
1.12849e-09
-1.21903e-12
9.75163e-13
7.21184e-10
5.06317e-11
5.68396e-11
-5.08582e-11
-5.63553e-11
4.33102e-11
3.37381e-11
-4.23509e-11
-3.46959e-11
1.80189e-12
-1.79281e-12
8.8262e-10
5.28612e-11
4.52782e-11
-5.30419e-11
-4.63056e-11
4.23014e-13
1.23875e-12
1.13709e-09
-9.64267e-13
3.55343e-15
1.14608e-09
1.408e-13
-6.93058e-14
1.15438e-09
6.46518e-13
-3.93919e-13
1.14638e-09
4.12522e-13
4.40376e-14
1.14386e-09
2.83725e-13
-4.5013e-14
1.1402e-09
1.49796e-13
6.83535e-14
1.13468e-09
3.36769e-14
1.13041e-09
9.6857e-13
-1.2215e-12
7.20319e-10
4.33358e-11
3.38804e-11
-4.23622e-11
-3.48287e-11
5.05916e-11
5.68309e-11
-5.0823e-11
-5.63463e-11
9.90679e-13
9.87351e-13
1.12351e-09
-1.37655e-12
5.75568e-13
1.13176e-09
3.77217e-14
-1.49231e-13
1.1435e-09
1.82355e-13
-1.56397e-13
1.13595e-09
5.94303e-14
5.27609e-14
1.13426e-09
-3.75372e-13
1.58351e-14
1.13667e-09
-2.83872e-13
-6.39245e-14
1.13937e-09
-2.71324e-13
-8.30832e-14
1.13954e-09
-1.3026e-13
-9.39978e-14
1.13734e-09
-1.13724e-13
1.13539e-09
-3.0657e-11
-2.6536e-12
-1.01778e-11
-6.03583e-12
4.95242e-11
-1.7938e-12
1.80211e-12
8.81882e-10
5.28632e-11
4.52994e-11
-5.30441e-11
-4.63272e-11
5.73622e-13
-1.37857e-12
1.13162e-09
5.71107e-13
5.72126e-13
1.12645e-09
4.42836e-13
-4.11755e-14
1.12342e-09
1.24238e-13
1.53481e-13
1.12768e-09
1.70983e-13
-3.88874e-14
1.13233e-09
1.99843e-13
-5.36596e-14
1.13652e-09
1.53834e-13
-5.74235e-14
1.13911e-09
1.15577e-13
-8.53889e-14
1.13977e-09
6.0467e-14
-7.86121e-14
1.13906e-09
-9.07654e-14
1.13845e-09
-1.39559e-11
-1.08423e-11
3.10882e-12
2.16894e-11
-1.50439e-13
-1.8458e-12
7.47892e-10
5.84328e-11
4.385e-11
-5.72574e-11
-4.44564e-11
6.28768e-11
5.85064e-11
-6.19523e-11
-5.79671e-11
1.23985e-12
4.23236e-13
1.13664e-09
-1.49646e-13
3.68356e-14
1.1432e-09
-4.11194e-14
4.43495e-13
1.1236e-09
-4.75801e-14
-4.75865e-14
1.12498e-09
-1.53397e-14
8.64277e-14
1.12991e-09
-4.79088e-14
-3.47738e-14
1.13387e-09
-1.18457e-13
-1.74947e-14
1.137e-09
-1.00008e-13
-1.03003e-13
1.1391e-09
-9.8636e-14
-1.12328e-13
1.14007e-09
-5.16939e-14
-1.47598e-13
1.14016e-09
-1.59276e-13
1.14019e-09
-7.08475e-11
1.87186e-12
2.91906e-12
-1.27012e-11
-1.40373e-11
9.27951e-11
-1.40764e-12
7.26388e-13
8.83146e-10
5.89671e-11
4.70337e-11
-5.89558e-11
-4.8184e-11
3.22212e-15
-9.64094e-13
1.14582e-09
-1.57375e-13
1.81938e-13
1.13574e-09
1.52823e-13
1.24342e-13
1.12764e-09
8.56224e-14
-1.53543e-14
1.13001e-09
6.78529e-14
6.83399e-14
1.13309e-09
6.77435e-14
-7.42349e-14
1.13566e-09
6.17403e-14
-5.30906e-14
1.13797e-09
4.65039e-14
-1.22416e-13
1.13977e-09
3.09267e-14
-1.26732e-13
1.14086e-09
1.24775e-14
-1.55246e-13
1.14129e-09
-1.62604e-13
1.14156e-09
-1.42696e-11
-7.99849e-12
8.46532e-13
2.14216e-11
-2.27176e-13
-7.69185e-13
7.23218e-10
6.507e-11
4.47641e-11
-6.46883e-11
-4.53108e-11
6.16622e-11
5.79852e-11
-6.09158e-11
-5.75363e-11
1.03773e-12
-4.84075e-13
1.13227e-09
-6.91684e-14
1.40836e-13
1.15422e-09
5.25801e-14
5.9254e-14
1.13411e-09
-3.89812e-14
1.70839e-13
1.13226e-09
-3.50249e-14
-4.79003e-14
1.13386e-09
-7.45085e-14
6.82808e-14
1.13568e-09
-8.7775e-14
-8.73805e-14
1.13752e-09
-1.13647e-13
-5.25653e-14
1.13923e-09
-1.00376e-13
-1.44084e-13
1.14066e-09
-8.73931e-14
-1.42664e-13
1.14174e-09
-4.88398e-14
-1.85422e-13
1.14229e-09
-1.89118e-13
1.14264e-09
-4.52451e-11
2.54946e-12
-1.00488e-11
-1.24042e-11
6.51487e-11
-1.35002e-12
2.09587e-12
9.02752e-10
5.50828e-11
4.66234e-11
-5.52278e-11
-4.79584e-11
1.18398e-13
-1.93333e-12
1.15625e-09
-3.94339e-13
6.46928e-13
1.14631e-09
1.53643e-14
-3.75241e-13
1.13661e-09
-5.42518e-14
2.00193e-13
1.13647e-09
-1.8067e-14
-1.18186e-13
1.13696e-09
-5.35669e-14
6.23913e-14
1.13795e-09
-5.30758e-14
-1.12996e-13
1.13923e-09
-6.29842e-14
-6.24076e-14
1.14063e-09
-5.764e-14
-1.49411e-13
1.14179e-09
-4.81852e-14
-1.41669e-13
1.1428e-09
-2.97969e-14
-1.80139e-13
1.1434e-09
-1.80262e-13
1.14375e-09
-2.43356e-13
-9.05569e-13
7.62836e-10
5.78664e-11
4.45321e-11
-5.67151e-11
-4.49332e-11
4.83553e-11
4.27281e-11
-4.82463e-11
-4.23903e-11
9.54519e-13
8.90538e-13
1.16295e-09
-1.69516e-13
-7.67402e-13
1.16853e-09
4.35788e-14
4.13105e-13
1.14381e-09
-6.43193e-14
-2.83286e-13
1.13931e-09
-5.76912e-14
1.55593e-13
1.13906e-09
-1.03176e-13
-9.92644e-14
1.13907e-09
-1.22658e-13
4.73397e-14
1.13976e-09
-1.44439e-13
-9.95439e-14
1.14065e-09
-1.49881e-13
-5.67819e-14
1.14186e-09
-1.3448e-13
-1.3399e-13
1.14294e-09
-1.06361e-13
-1.28474e-13
1.14381e-09
-6.04846e-14
-1.64228e-13
1.14445e-09
-1.64658e-13
1.14479e-09
-2.67038e-13
-6.78976e-15
9.75688e-10
4.01287e-11
5.7483e-11
-4.07786e-11
-5.74208e-11
6.35971e-15
6.45779e-13
1.18566e-09
-1.48397e-13
-6.2521e-13
1.15354e-09
-4.54533e-14
2.84449e-13
1.14015e-09
-8.35176e-14
-2.70527e-13
1.1395e-09
-8.57534e-14
1.18097e-13
1.13973e-09
-1.12692e-13
-9.76276e-14
1.14004e-09
-1.27171e-13
3.19879e-14
1.14084e-09
-1.43154e-13
-8.63998e-14
1.14173e-09
-1.42163e-13
-4.69958e-14
1.14281e-09
-1.28919e-13
-1.05252e-13
1.14391e-09
-9.98497e-14
-9.90846e-14
1.14485e-09
-5.86667e-14
-1.24919e-13
1.14552e-09
-1.23096e-13
1.14593e-09
-2.02176e-11
-1.96586e-12
-1.30554e-11
2.03706e-12
3.32018e-11
-2.57801e-14
-1.96593e-13
8.79292e-10
6.60545e-11
6.46946e-11
-6.59553e-11
-6.45333e-11
3.37121e-13
2.96214e-13
1.13881e-09
-3.58779e-14
-2.54008e-13
1.1364e-09
6.83261e-14
1.50429e-13
1.13465e-09
-9.41331e-14
-1.29578e-13
1.13731e-09
-7.87784e-14
6.22268e-14
1.13904e-09
-1.4788e-13
-5.07697e-14
1.14014e-09
-1.55502e-13
1.35451e-14
1.14128e-09
-1.85595e-13
-4.76792e-14
1.14228e-09
-1.80359e-13
-2.82583e-14
1.14341e-09
-1.6463e-13
-5.90548e-14
1.14449e-09
-1.2565e-13
-5.72533e-14
1.14562e-09
-7.17217e-14
-7.02528e-14
1.14649e-09
-7.02003e-14
1.14703e-09
-3.9572e-11
-1.40996e-12
-1.43647e-11
5.95918e-13
5.47507e-11
-1.32539e-13
8.73517e-10
6.28169e-11
6.20307e-11
-6.28173e-11
-6.20301e-11
1.56892e-13
1.12536e-09
-8.8132e-14
1.12848e-09
3.37732e-14
1.13039e-09
-1.13906e-13
1.13538e-09
-9.0985e-14
1.13844e-09
-1.59591e-13
1.14018e-09
-1.6268e-13
1.14156e-09
-1.89031e-13
1.14263e-09
-1.80303e-13
1.14375e-09
-1.65148e-13
1.14481e-09
-1.2399e-13
1.14594e-09
-7.1005e-14
1.14705e-09
1.1479e-09
-2.022e-11
-1.96593e-12
2.03701e-12
-1.30586e-11
3.32076e-11
-3.95756e-11
-1.40999e-12
5.9577e-13
-1.43688e-11
5.47587e-11
-1.42719e-11
8.46712e-13
-8.00089e-12
2.14261e-11
-4.52495e-11
2.54979e-12
-1.24054e-11
-1.00541e-11
6.51592e-11
-9.04341e-13
-2.38003e-13
7.62795e-10
4.83661e-11
4.27363e-11
-4.82576e-11
-4.24015e-11
5.78753e-11
4.45455e-11
-5.67357e-11
-4.49446e-11
-1.50455e-14
-2.63701e-13
9.75656e-10
4.014e-11
5.74942e-11
-4.07857e-11
-5.74352e-11
-2.0727e-13
-3.4565e-14
8.79262e-10
6.60688e-11
6.47104e-11
-6.59714e-11
-6.45468e-11
-1.82678e-13
8.73495e-10
6.28322e-11
6.20459e-11
-6.28316e-11
-6.20435e-11
-1.39585e-11
3.10754e-12
-1.08425e-11
2.16935e-11
-7.08558e-11
2.91847e-12
1.87293e-12
-1.40416e-11
-1.27034e-11
9.28094e-11
-7.67957e-13
-2.30591e-13
7.232e-10
6.16738e-11
5.79964e-11
-6.09303e-11
-5.75477e-11
6.5087e-11
4.47854e-11
-6.47071e-11
-4.53219e-11
2.05032e-12
-1.36716e-12
9.02793e-10
5.50976e-11
4.66342e-11
-5.52346e-11
-4.79626e-11
8.90001e-13
9.19536e-13
1.16297e-09
6.44052e-13
-7.95676e-15
1.18567e-09
3.03847e-13
2.9305e-13
1.13884e-09
1.22305e-13
1.12537e-09
-3.06794e-11
-2.64302e-12
-6.05167e-12
-1.01746e-11
4.95488e-11
-1.8751e-12
-1.56866e-13
7.48086e-10
6.2886e-11
5.85133e-11
-6.19651e-11
-5.79723e-11
5.8462e-11
4.38839e-11
-5.72885e-11
-4.44809e-11
7.22138e-13
-1.45488e-12
8.83296e-10
5.8973e-11
4.70387e-11
-5.89638e-11
-4.81826e-11
-5.11649e-13
1.03583e-12
1.13234e-09
-1.97234e-12
9.41589e-14
1.15632e-09
-8.50577e-13
-2.06874e-13
1.16856e-09
-6.44754e-13
-2.09031e-13
1.15357e-09
-2.75217e-13
-9.30824e-14
1.13644e-09
-1.58373e-13
1.1285e-09
-1.21212e-12
9.6624e-13
7.21159e-10
5.06395e-11
5.685e-11
-5.08735e-11
-5.63697e-11
4.33278e-11
3.37477e-11
-4.23517e-11
-3.47017e-11
1.80649e-12
-1.80946e-12
8.82612e-10
5.2872e-11
4.52909e-11
-5.30537e-11
-4.63121e-11
4.23524e-13
1.24604e-12
1.13707e-09
-1.00074e-12
-3.20009e-14
1.14608e-09
1.28089e-13
-1.12539e-13
1.15439e-09
6.34367e-13
-4.44479e-13
1.14642e-09
3.99601e-13
-2.52658e-14
1.14391e-09
2.7377e-13
-1.38047e-13
1.14026e-09
1.4626e-13
-2.56329e-14
1.13474e-09
-6.903e-14
1.13047e-09
9.66892e-13
-1.21067e-12
7.20305e-10
4.33381e-11
3.38844e-11
-4.238e-11
-3.48397e-11
5.06029e-11
5.6843e-11
-5.08346e-11
-5.63591e-11
9.77898e-13
9.75938e-13
1.12349e-09
-1.42871e-12
5.84633e-13
1.13178e-09
1.34785e-14
-1.96789e-13
1.1435e-09
1.50501e-13
-1.98011e-13
1.13598e-09
1.90008e-14
-1.01843e-14
1.13428e-09
-4.17394e-13
-5.46968e-14
1.13672e-09
-3.14012e-13
-1.66542e-13
1.13941e-09
-2.99556e-13
-1.97645e-13
1.13959e-09
-1.43119e-13
-2.20384e-13
1.13738e-09
-2.45622e-13
1.13542e-09
-3.06602e-11
-2.6537e-12
-1.01811e-11
-6.03791e-12
4.95328e-11
-1.81019e-12
1.8072e-12
8.81876e-10
5.28742e-11
4.53123e-11
-5.30557e-11
-4.63337e-11
5.82876e-13
-1.43034e-12
1.13163e-09
5.63502e-13
5.65113e-13
1.12648e-09
4.20567e-13
-9.82088e-14
1.12346e-09
8.76399e-14
8.98259e-14
1.12772e-09
1.66943e-13
-1.34176e-13
1.13237e-09
2.09911e-13
-1.59976e-13
1.13658e-09
1.61368e-13
-1.84018e-13
1.13917e-09
1.2256e-13
-2.25067e-13
1.13983e-09
6.54577e-14
-2.28247e-13
1.13912e-09
-2.47587e-13
1.13851e-09
-1.39581e-11
-1.0845e-11
3.10912e-12
2.1694e-11
-1.56034e-13
-1.87514e-12
7.47882e-10
5.84451e-11
4.38643e-11
-5.72718e-11
-4.44622e-11
6.28894e-11
5.85209e-11
-6.19681e-11
-5.79794e-11
1.24714e-12
4.23835e-13
1.13662e-09
-1.97083e-13
1.25784e-14
1.1432e-09
-9.83987e-14
4.21471e-13
1.12364e-09
-1.1567e-13
-1.15511e-13
1.12502e-09
-9.17165e-14
1.00384e-14
1.12997e-09
-1.24795e-13
-1.44834e-13
1.13392e-09
-1.92289e-13
-1.38701e-13
1.13704e-09
-1.59007e-13
-2.49426e-13
1.13913e-09
-1.47873e-13
-2.69353e-13
1.1401e-09
-7.66302e-14
-3.20147e-13
1.14018e-09
-3.36245e-13
1.1402e-09
-7.08556e-11
1.87122e-12
2.91928e-12
-1.27055e-11
-1.40403e-11
9.28109e-11
-1.45506e-12
7.2216e-13
8.83135e-10
5.89788e-11
4.7046e-11
-5.89693e-11
-4.819e-11
-3.21384e-14
-1.00042e-12
1.14582e-09
-1.98962e-13
1.50038e-13
1.13577e-09
8.89444e-14
8.78613e-14
1.12768e-09
8.98665e-15
-9.16894e-14
1.13006e-09
-2.09759e-14
-2.03416e-14
1.13315e-09
-2.415e-14
-1.93368e-13
1.13571e-09
-2.41856e-14
-1.87301e-13
1.13802e-09
-2.54607e-14
-2.81542e-13
1.13981e-09
-2.09512e-14
-2.99147e-13
1.14088e-09
-1.3902e-14
-3.42372e-13
1.1413e-09
-3.53353e-13
1.14157e-09
-1.42718e-11
-8.00113e-12
8.46797e-13
2.14261e-11
-2.30601e-13
-7.6734e-13
7.23179e-10
6.50844e-11
4.47797e-11
-6.47049e-11
-4.53164e-11
6.16746e-11
5.7998e-11
-6.0931e-11
-5.75493e-11
1.03566e-12
-5.11425e-13
1.13223e-09
-1.12224e-13
1.27997e-13
1.15424e-09
-1.03243e-14
1.8682e-14
1.13414e-09
-1.34358e-13
1.66631e-13
1.13231e-09
-1.45239e-13
-1.2492e-13
1.1339e-09
-1.93821e-13
-2.34778e-14
1.13573e-09
-2.06557e-13
-2.05979e-13
1.13754e-09
-2.24975e-13
-1.88085e-13
1.13925e-09
-1.93378e-13
-3.03433e-13
1.14064e-09
-1.53479e-13
-3.13999e-13
1.14171e-09
-8.14341e-14
-3.70714e-13
1.14225e-09
-3.79951e-13
1.14259e-09
-4.52492e-11
2.54962e-12
-1.00545e-11
-1.2405e-11
6.51591e-11
-1.36721e-12
2.05081e-12
9.02764e-10
5.50989e-11
4.66361e-11
-5.52358e-11
-4.79644e-11
9.41188e-14
-1.97205e-12
1.15625e-09
-4.44836e-13
6.34832e-13
1.14634e-09
-5.58549e-14
-4.17472e-13
1.13665e-09
-1.60035e-13
2.07854e-13
1.13653e-09
-1.39317e-13
-1.92302e-13
1.137e-09
-1.87937e-13
-2.33964e-14
1.138e-09
-1.88752e-13
-2.24098e-13
1.13924e-09
-1.90196e-13
-1.8951e-13
1.14063e-09
-1.62945e-13
-2.972e-13
1.14176e-09
-1.23035e-13
-3.01889e-13
1.14275e-09
-6.76809e-14
-3.53552e-13
1.14333e-09
-3.59825e-13
1.14366e-09
-2.38012e-13
-9.04143e-13
7.62792e-10
5.78747e-11
4.4544e-11
-5.67352e-11
-4.49432e-11
4.83662e-11
4.27364e-11
-4.82577e-11
-4.24017e-11
9.19536e-13
8.90523e-13
1.16295e-09
-2.0707e-13
-8.50108e-13
1.16853e-09
-2.59041e-14
4.00401e-13
1.14386e-09
-1.69468e-13
-3.12817e-13
1.13935e-09
-1.8183e-13
1.50838e-13
1.13913e-09
-2.49517e-13
-1.57652e-13
1.1391e-09
-2.81941e-13
-2.44073e-14
1.13979e-09
-3.03952e-13
-1.92302e-13
1.14064e-09
-2.97816e-13
-1.61836e-13
1.14183e-09
-2.57158e-13
-2.56549e-13
1.14286e-09
-1.9612e-13
-2.62816e-13
1.1437e-09
-1.07037e-13
-3.0851e-13
1.14432e-09
-3.13517e-13
1.14465e-09
-2.63803e-13
-1.47967e-14
9.75648e-10
4.01402e-11
5.74946e-11
-4.07859e-11
-5.74356e-11
-8.18432e-15
6.44586e-13
1.18565e-09
-2.09499e-13
-6.44096e-13
1.15353e-09
-1.38777e-13
2.74745e-13
1.1402e-09
-1.98746e-13
-2.98123e-13
1.13954e-09
-2.25035e-13
1.09099e-13
1.13979e-09
-2.69537e-13
-1.46245e-13
1.14007e-09
-2.99694e-13
-1.95042e-14
1.14086e-09
-3.14559e-13
-1.52192e-13
1.1417e-09
-3.02417e-13
-1.21527e-13
1.14276e-09
-2.63266e-13
-1.94804e-13
1.1438e-09
-1.96662e-13
-1.95899e-13
1.14472e-09
-1.08567e-13
-2.30014e-13
1.14535e-09
-2.33741e-13
1.14575e-09
-2.022e-11
-1.96599e-12
-1.30587e-11
2.03711e-12
3.32076e-11
-3.44665e-14
-2.07006e-13
8.79256e-10
6.60691e-11
6.47106e-11
-6.59718e-11
-6.45471e-11
2.93152e-13
3.04338e-13
1.13882e-09
-9.31922e-14
-2.74397e-13
1.13642e-09
-2.54821e-14
1.47049e-13
1.13471e-09
-2.19273e-13
-1.42039e-13
1.13735e-09
-2.29648e-13
5.63477e-14
1.1391e-09
-3.20636e-13
-7.52348e-14
1.14016e-09
-3.42652e-13
-1.25026e-14
1.14129e-09
-3.70872e-13
-7.99911e-14
1.14224e-09
-3.53813e-13
-6.60026e-14
1.14333e-09
-3.08934e-13
-1.05493e-13
1.14436e-09
-2.30628e-13
-1.07123e-13
1.14545e-09
-1.26493e-13
-1.25121e-13
1.14628e-09
-1.30572e-13
1.1468e-09
-3.95755e-11
-1.41002e-12
-1.43689e-11
5.95826e-13
5.47586e-11
-1.82851e-13
8.73492e-10
6.28322e-11
6.20458e-11
-6.28316e-11
-6.20434e-11
1.22071e-13
1.12536e-09
-1.58302e-13
1.12849e-09
-6.87705e-14
1.13045e-09
-2.43711e-13
1.13541e-09
-2.5002e-13
1.1385e-09
-3.36876e-13
1.14019e-09
-3.53523e-13
1.14156e-09
-3.79962e-13
1.14258e-09
-3.59957e-13
1.14366e-09
-3.13967e-13
1.14466e-09
-2.34438e-13
1.14576e-09
-1.31286e-13
1.14681e-09
1.14766e-09
-2.02232e-11
-1.96576e-12
2.03684e-12
-1.30628e-11
3.3215e-11
-3.95806e-11
-1.41012e-12
5.95596e-13
-1.43738e-11
5.4769e-11
-1.42747e-11
8.46884e-13
-8.00383e-12
2.14316e-11
-4.52556e-11
2.54993e-12
-1.24065e-11
-1.00603e-11
6.51725e-11
-9.04009e-13
-2.31565e-13
7.62758e-10
4.8379e-11
4.27462e-11
-4.82707e-11
-4.2415e-11
5.78863e-11
4.45608e-11
-5.67583e-11
-4.49561e-11
-2.57786e-14
-2.68126e-13
9.75631e-10
4.01537e-11
5.75082e-11
-4.07944e-11
-5.74527e-11
-2.17756e-13
-5.52212e-14
8.79247e-10
6.60861e-11
6.47291e-11
-6.59903e-11
-6.4563e-11
-2.20932e-13
8.73496e-10
6.28505e-11
6.20639e-11
-6.28479e-11
-6.20594e-11
-1.39613e-11
3.10811e-12
-1.08458e-11
2.1699e-11
-7.08659e-11
2.91928e-12
1.87322e-12
-1.40454e-11
-1.27094e-11
9.28282e-11
-8.34602e-13
-2.20312e-13
7.23208e-10
6.16903e-11
5.80142e-11
-6.09464e-11
-5.75613e-11
6.51031e-11
4.4804e-11
-6.47287e-11
-4.53291e-11
2.00703e-12
-1.40316e-12
9.02804e-10
5.51165e-11
4.6649e-11
-5.52444e-11
-4.797e-11
8.77037e-13
8.74798e-13
1.16299e-09
6.35474e-13
-4.41724e-14
1.18568e-09
3.08732e-13
2.27645e-13
1.13888e-09
6.35672e-14
1.1254e-09
-3.06838e-11
-2.64336e-12
-6.05362e-12
-1.01785e-11
4.95593e-11
-1.91223e-12
-1.23088e-13
7.48078e-10
6.29008e-11
5.85317e-11
-6.19847e-11
-5.79866e-11
5.84756e-11
4.3901e-11
-5.7307e-11
-4.44881e-11
7.06342e-13
-1.51165e-12
8.83311e-10
5.89878e-11
4.70548e-11
-5.8979e-11
-4.81878e-11
-5.45389e-13
1.0294e-12
1.13234e-09
-2.02459e-12
4.22049e-14
1.15635e-09
-8.92855e-13
-2.79683e-13
1.16858e-09
-6.67604e-13
-2.99694e-13
1.1536e-09
-2.95523e-13
-1.86558e-13
1.13649e-09
-2.62494e-13
1.12853e-09
-1.20652e-12
9.66636e-13
7.21153e-10
5.06529e-11
5.68643e-11
-5.08871e-11
-5.63852e-11
4.33327e-11
3.37527e-11
-4.23713e-11
-3.47148e-11
1.79775e-12
-1.83382e-12
8.82635e-10
5.28855e-11
4.53069e-11
-5.30669e-11
-4.63189e-11
4.17915e-13
1.23882e-12
1.13708e-09
-1.04701e-12
-8.39077e-14
1.14611e-09
1.20797e-13
-1.84706e-13
1.15444e-09
6.20958e-13
-5.33507e-13
1.14649e-09
3.82751e-13
-1.37484e-13
1.14401e-09
2.59939e-13
-2.74269e-13
1.14035e-09
1.41389e-13
-1.71382e-13
1.13484e-09
-2.25115e-13
1.13058e-09
9.59288e-13
-1.20954e-12
7.20286e-10
4.33598e-11
3.38956e-11
-4.238e-11
-3.48465e-11
5.06124e-11
5.68554e-11
-5.08524e-11
-5.63765e-11
9.60945e-13
9.57485e-13
1.12349e-09
-1.49615e-12
5.85563e-13
1.13181e-09
-2.49729e-14
-2.63543e-13
1.14353e-09
1.09975e-13
-2.7613e-13
1.13603e-09
-3.68989e-14
-1.11504e-13
1.13436e-09
-4.84557e-13
-1.74671e-13
1.13681e-09
-3.67103e-13
-3.22578e-13
1.13947e-09
-3.46292e-13
-3.68039e-13
1.13966e-09
-1.67211e-13
-4.05644e-13
1.13743e-09
-4.39717e-13
1.13548e-09
-3.06646e-11
-2.65399e-12
-1.01849e-11
-6.03988e-12
4.95434e-11
-1.83493e-12
1.7983e-12
8.81897e-10
5.28874e-11
4.53281e-11
-5.30692e-11
-4.63406e-11
5.83288e-13
-1.49777e-12
1.13166e-09
5.4048e-13
5.46689e-13
1.12656e-09
3.8416e-13
-1.82923e-13
1.12354e-09
1.97033e-14
-6.91338e-15
1.12782e-09
9.33188e-14
-2.70851e-13
1.13246e-09
1.4207e-13
-3.19284e-13
1.13668e-09
1.00177e-13
-3.76214e-13
1.13926e-09
8.01451e-14
-4.36651e-13
1.13992e-09
4.22189e-14
-4.57338e-13
1.13921e-09
-4.84229e-13
1.1386e-09
-1.39609e-11
-1.08483e-11
3.10969e-12
2.16995e-11
-1.21908e-13
-1.91225e-12
7.47873e-10
5.84586e-11
4.38815e-11
-5.72904e-11
-4.44693e-11
6.29043e-11
5.85394e-11
-6.19877e-11
-5.79938e-11
1.24034e-12
4.18308e-13
1.13663e-09
-2.63222e-13
-2.59665e-14
1.14323e-09
-1.84494e-13
3.87579e-13
1.12372e-09
-2.17818e-13
-2.17229e-13
1.12509e-09
-2.0706e-13
-1.0761e-13
1.13005e-09
-2.41531e-13
-3.06425e-13
1.13398e-09
-3.02816e-13
-3.20769e-13
1.1371e-09
-2.57305e-13
-4.66115e-13
1.13917e-09
-2.29309e-13
-5.05333e-13
1.14014e-09
-1.20339e-13
-5.76022e-13
1.14018e-09
-5.98316e-13
1.1402e-09
-7.08657e-11
1.87149e-12
2.9201e-12
-1.27115e-11
-1.40442e-11
9.28297e-11
-1.51155e-12
7.06439e-13
8.8315e-10
5.89936e-11
4.70621e-11
-5.89845e-11
-4.81953e-11
-8.36154e-14
-1.04645e-12
1.14585e-09
-2.76828e-13
1.09474e-13
1.13583e-09
-8.5143e-15
1.9548e-14
1.12778e-09
-1.0929e-13
-2.07071e-13
1.13015e-09
-1.56203e-13
-1.55347e-13
1.13324e-09
-1.60244e-13
-3.69436e-13
1.13578e-09
-1.51292e-13
-3.87238e-13
1.13808e-09
-1.32687e-13
-5.15416e-13
1.13983e-09
-9.79745e-14