/*--------------------------------*- C++ -*----------------------------------*\
| =========                 |                                                 |
| \\      /  F ield         | OpenFOAM: The Open Source CFD Toolbox           |
|  \\    /   O peration     | Version:  2.1.1                                 |
|   \\  /    A nd           | Web:      www.OpenFOAM.org                      |
|    \\/     M anipulation  |                                                 |
\*---------------------------------------------------------------------------*/
FoamFile
{
    version     2.0;
    format      ascii;
    class       volVectorField;
    location    "0.0025";
    object      U;
}
// * * * * * * * * * * * * * * * * * * * * * * * * * * * * * * * * * * * * * //

dimensions      [0 1 -1 0 0 0 0];

internalField   nonuniform List<vector> 
10191
(
(0.000528115 -0.00387222 0.014619)
(0.000178583 -0.00491188 0.0213378)
(0.000618127 -0.00166192 0.0143432)
(-0.00364065 -0.00434035 0.0215802)
(-0.000351657 -0.000481698 0.075307)
(0.000116785 -0.000154132 0.0939021)
(-8.99892e-05 -0.000254928 0.0890206)
(3.44385e-05 -0.000244673 0.0883771)
(0.000946408 -0.00285492 0.0145873)
(-0.00433064 -0.0049409 0.026461)
(-0.000386756 -0.000333296 0.072151)
(0.000207785 -0.000270312 0.0886982)
(0.000177585 0.000399656 0.113444)
(4.58009e-05 0.000120613 0.116054)
(5.87897e-05 0.000240614 0.113227)
(1.43541e-05 0.000206372 0.112796)
(-0.00236079 -0.00507019 0.0177424)
(-0.000406104 -0.000390213 0.0738403)
(4.78549e-05 -0.000345803 0.0877099)
(0.000114863 0.000294212 0.1122)
(-0.000176205 8.31471e-05 0.114)
(-0.000126093 -9.93987e-05 0.114661)
(-3.41485e-05 -7.56262e-05 0.11339)
(-5.61134e-05 -0.000106252 0.1125)
(5.12609e-06 -0.000111321 0.112266)
(-0.000582082 -0.000460223 0.070621)
(0.000249619 -0.000345351 0.0888316)
(0.000176633 0.000345166 0.112433)
(-7.02397e-05 0.000111929 0.113528)
(-5.26686e-05 -6.18415e-06 0.114185)
(0.000100149 -2.94363e-05 0.113066)
(6.76282e-05 8.8653e-05 0.112564)
(4.72087e-05 7.80203e-05 0.112291)
(2.97427e-05 0.00012119 0.112094)
(1.18131e-05 0.000120722 0.111943)
(-0.000461521 -0.000582292 0.0705779)
(0.000564371 0.000563288 0.112567)
(-0.000266553 8.266e-05 0.113533)
(1.80848e-05 -1.76124e-05 0.113719)
(1.51415e-05 -6.49847e-05 0.11262)
(5.20994e-05 2.87185e-05 0.112191)
(-1.40518e-05 1.37327e-05 0.112177)
(-1.72571e-05 -1.48699e-05 0.112284)
(-8.50921e-06 -1.65142e-05 0.112312)
(-1.70428e-05 -2.92952e-05 0.112234)
(3.55999e-06 -3.23173e-05 0.112154)
(-0.00507377 -0.00235916 0.017738)
(-0.000345307 0.000250081 0.0888051)
(8.24436e-05 -0.000266634 0.113524)
(6.83024e-05 6.84965e-05 0.112586)
(9.65649e-05 1.91555e-05 0.111755)
(3.85113e-05 6.45401e-05 0.111815)
(2.40146e-05 2.98929e-05 0.112001)
(5.0929e-05 3.96833e-05 0.112198)
(3.29834e-05 5.99357e-05 0.112318)
(3.32152e-05 6.31953e-05 0.11235)
(1.61154e-05 7.6981e-05 0.112323)
(9.5176e-06 7.86097e-05 0.112294)
(-0.00285579 0.000946859 0.0145874)
(-0.00039033 -0.000406171 0.0738322)
(0.000345506 0.000176648 0.112418)
(-1.75741e-05 1.79659e-05 0.11371)
(1.91053e-05 9.66513e-05 0.111755)
(1.14804e-05 1.14714e-05 0.11168)
(2.19608e-05 1.87475e-05 0.111929)
(2.16602e-05 2.19363e-05 0.112109)
(1.36194e-05 2.10925e-05 0.11224)
(5.74379e-06 1.25342e-05 0.112326)
(8.30458e-06 1.18617e-05 0.112365)
(-1.96036e-06 6.59674e-06 0.112371)
(4.93044e-06 5.60666e-06 0.11237)
(-0.00494171 -0.00433034 0.0264611)
(-0.000345828 4.80241e-05 0.0877023)
(0.000111945 -7.01139e-05 0.113519)
(-6.50478e-05 1.51238e-05 0.112613)
(6.45123e-05 3.85882e-05 0.111815)
(1.86825e-05 2.20139e-05 0.11193)
(4.68392e-05 4.69455e-05 0.112082)
(2.57948e-05 3.46155e-05 0.112189)
(4.13474e-05 4.65856e-05 0.112285)
(2.37701e-05 4.86723e-05 0.112358)
(2.74202e-05 5.42893e-05 0.112403)
(1.00992e-05 5.80533e-05 0.112424)
(8.58652e-06 5.95203e-05 0.112434)
(-0.00166199 0.00061818 0.0143431)
(-0.000333272 -0.000386735 0.0721503)
(0.000294179 0.000114818 0.112196)
(-6.17566e-06 -5.27429e-05 0.114179)
(2.87402e-05 5.20505e-05 0.112185)
(2.98977e-05 2.39835e-05 0.111999)
(2.19671e-05 2.16223e-05 0.112109)
(3.45728e-05 2.58116e-05 0.11219)
(2.14218e-05 2.14314e-05 0.112264)
(2.75984e-05 2.49879e-05 0.112339)
(1.33233e-05 2.01522e-05 0.112399)
(1.75342e-05 2.18544e-05 0.112445)
(3.1828e-06 1.92137e-05 0.11247)
(6.68892e-06 1.93543e-05 0.112483)
(-0.00434052 -0.00364058 0.0215802)
(-0.000270335 0.00020785 0.0886967)
(8.3167e-05 -0.000176168 0.113998)
(-2.94453e-05 0.000100242 0.113063)
(1.37303e-05 -1.40217e-05 0.112173)
(3.96505e-05 5.0973e-05 0.112195)
(2.106e-05 1.36215e-05 0.112239)
(4.65299e-05 4.13721e-05 0.112285)
(2.49757e-05 2.76154e-05 0.112339)
(3.99704e-05 4.0008e-05 0.1124)
(2.05401e-05 3.6945e-05 0.112452)
(2.64262e-05 4.26568e-05 0.112495)
(7.61062e-06 4.27236e-05 0.112521)
(8.76789e-06 4.4368e-05 0.112536)
(-0.000481721 -0.000351655 0.0753069)
(0.000399652 0.000177624 0.113443)
(-9.93962e-05 -0.000126111 0.11466)
(8.86517e-05 6.76464e-05 0.112562)
(-1.48896e-05 -1.72823e-05 0.112282)
(5.99063e-05 3.29701e-05 0.112316)
(1.25367e-05 5.72186e-06 0.112325)
(4.86341e-05 2.3774e-05 0.112357)
(2.01557e-05 1.33175e-05 0.1124)
(3.69308e-05 2.05381e-05 0.112453)
(1.59606e-05 1.59524e-05 0.1125)
(2.32743e-05 1.87991e-05 0.112541)
(4.8829e-06 1.69711e-05 0.112568)
(8.1867e-06 1.7713e-05 0.112584)
(-0.00015413 0.0001168 0.0939017)
(0.000120621 4.58332e-05 0.116053)
(-7.56322e-05 -3.41195e-05 0.113389)
(7.80078e-05 4.72455e-05 0.112289)
(-1.65431e-05 -8.48434e-06 0.11231)
(6.31683e-05 3.3267e-05 0.112348)
(1.18454e-05 8.3398e-06 0.112364)
(5.42411e-05 2.74626e-05 0.112403)
(2.18292e-05 1.75745e-05 0.112444)
(4.26228e-05 2.64575e-05 0.112496)
(1.88126e-05 2.33021e-05 0.112543)
(2.74289e-05 2.74781e-05 0.112587)
(6.50852e-06 2.68182e-05 0.112617)
(9.44181e-06 2.81392e-05 0.112636)
(-0.00387226 0.000528146 0.014619)
(-0.000254923 -8.99818e-05 0.0890203)
(0.000240632 5.88065e-05 0.113227)
(-0.000106256 -5.61354e-05 0.112499)
(0.000121179 2.97595e-05 0.112093)
(-2.9296e-05 -1.70512e-05 0.112233)
(7.69671e-05 1.61498e-05 0.112322)
(6.59336e-06 -1.9663e-06 0.11237)
(5.80192e-05 1.01192e-05 0.112423)
(1.91994e-05 3.19009e-06 0.112469)
(4.26894e-05 7.63154e-06 0.112522)
(1.6994e-05 4.89071e-06 0.11257)
(2.67966e-05 6.53037e-06 0.112619)
(5.54534e-06 5.60806e-06 0.112657)
(9.52291e-06 6.11226e-06 0.112682)
(-0.00491189 0.00017861 0.0213378)
(-0.000244677 3.44598e-05 0.0883769)
(0.000206344 1.43851e-05 0.112796)
(-0.000111324 5.15248e-06 0.112265)
(0.000120728 1.18454e-05 0.111943)
(-3.23261e-05 3.58203e-06 0.112154)
(7.85886e-05 9.53686e-06 0.112294)
(5.57914e-06 4.94487e-06 0.112369)
(5.9489e-05 8.60731e-06 0.112433)
(1.93299e-05 6.72102e-06 0.112483)
(4.43386e-05 8.83225e-06 0.112536)
(1.77194e-05 8.22524e-06 0.112585)
(2.81482e-05 9.46222e-06 0.112637)
(6.09147e-06 9.62609e-06 0.112682)
(1.00422e-05 1.00918e-05 0.112715)
(0.000528217 -0.00387269 0.0146209)
(0.000178558 -0.00491232 0.0213401)
(0.000618461 -0.0016623 0.0143454)
(-0.00364121 -0.00434104 0.0215827)
(-0.000350991 -0.000478786 0.0753017)
(0.000116588 -0.000152217 0.0938971)
(-8.9835e-05 -0.000252226 0.0890148)
(3.42365e-05 -0.000242192 0.0883704)
(0.000946572 -0.00285517 0.0145895)
(-0.0043314 -0.00494134 0.0264639)
(-0.000386792 -0.000331053 0.0721455)
(0.000214099 -0.000268534 0.0886934)
(0.000181476 0.000399315 0.113441)
(4.5995e-05 0.000124763 0.116049)
(5.99876e-05 0.000241467 0.113224)
(1.38886e-05 0.00020964 0.112795)
(-0.00236105 -0.00507111 0.0177445)
(-0.000404825 -0.000388292 0.0738349)
(5.42646e-05 -0.000342201 0.0877079)
(0.000117142 0.000300376 0.112194)
(-0.000177646 8.74393e-05 0.113996)
(-0.000123742 -9.69015e-05 0.114655)
(-3.31476e-05 -7.27108e-05 0.113389)
(-5.63485e-05 -0.000103882 0.112496)
(7.32697e-06 -0.000108499 0.112263)
(-0.000580804 -0.000458028 0.0706187)
(0.000253207 -0.000345473 0.0888283)
(0.00018224 0.000356226 0.112429)
(-6.72925e-05 0.000114596 0.113523)
(-5.37241e-05 -3.49528e-06 0.114182)
(0.000103067 -2.68374e-05 0.113063)
(7.00476e-05 9.37155e-05 0.112563)
(4.75631e-05 8.06917e-05 0.11229)
(3.10256e-05 0.00012643 0.112094)
(1.18063e-05 0.000124357 0.111943)
(-0.00045915 -0.000582051 0.0705756)
(0.000561626 0.000560811 0.112562)
(-0.000262297 8.69185e-05 0.11353)
(2.42889e-05 -1.59438e-05 0.113714)
(1.39866e-05 -6.30549e-05 0.112619)
(5.41542e-05 3.12507e-05 0.112188)
(-1.30479e-05 1.84606e-05 0.112176)
(-1.49014e-05 -1.23223e-05 0.112282)
(-7.30115e-06 -1.21445e-05 0.112311)
(-1.62303e-05 -2.56801e-05 0.112233)
(4.16539e-06 -2.82369e-05 0.112154)
(-0.00507468 -0.00235941 0.0177401)
(-0.000345417 0.000253418 0.0888019)
(8.66842e-05 -0.000262385 0.113521)
(7.57469e-05 7.59751e-05 0.112584)
(9.99662e-05 1.96591e-05 0.111753)
(4.23156e-05 6.8856e-05 0.111813)
(2.56409e-05 3.3395e-05 0.112002)
(5.3765e-05 4.46439e-05 0.112198)
(3.49818e-05 6.45845e-05 0.112319)
(3.4693e-05 6.78533e-05 0.112351)
(1.72192e-05 8.18876e-05 0.112324)
(9.89189e-06 8.34202e-05 0.112296)
(-0.00285604 0.00094702 0.0145896)
(-0.000388393 -0.000404922 0.0738268)
(0.000356543 0.000182217 0.112414)
(-1.58899e-05 2.41317e-05 0.113706)
(1.96127e-05 0.000100057 0.111753)
(1.44177e-05 1.44189e-05 0.111678)
(2.37099e-05 2.1568e-05 0.111929)
(2.42745e-05 2.53039e-05 0.112109)
(1.56964e-05 2.51887e-05 0.112241)
(7.74924e-06 1.62007e-05 0.112327)
(9.77278e-06 1.6106e-05 0.112366)
(-9.70053e-07 1.07063e-05 0.112372)
(5.43662e-06 9.86682e-06 0.112371)
(-0.00494215 -0.00433109 0.026464)
(-0.000342222 5.43896e-05 0.0877001)
(0.000114619 -6.71767e-05 0.113513)
(-6.30989e-05 1.39599e-05 0.112611)
(6.88387e-05 4.23857e-05 0.111812)
(2.15008e-05 2.37687e-05 0.11193)
(5.10192e-05 5.11334e-05 0.112082)
(2.86497e-05 3.8036e-05 0.112191)
(4.44177e-05 5.10696e-05 0.112288)
(2.58711e-05 5.28405e-05 0.11236)
(2.9329e-05 5.89615e-05 0.112406)
(1.12299e-05 6.26253e-05 0.112426)
(8.992e-06 6.41274e-05 0.112436)
(-0.00166237 0.000618516 0.0143454)
(-0.000331031 -0.000386763 0.0721448)
(0.00030035 0.000117105 0.11219)
(-3.47233e-06 -5.37925e-05 0.114176)
(3.12917e-05 5.41026e-05 0.112182)
(3.34141e-05 2.56016e-05 0.112)
(2.53405e-05 2.42295e-05 0.112109)
(3.79891e-05 2.86701e-05 0.112191)
(2.43191e-05 2.4334e-05 0.112265)
(3.0385e-05 2.83978e-05 0.112341)
(1.54775e-05 2.35128e-05 0.112401)
(1.9383e-05 2.561e-05 0.112446)
(4.10133e-06 2.287e-05 0.112471)
(7.18525e-06 2.32066e-05 0.112485)
(-0.00434121 -0.00364115 0.0215827)
(-0.000268561 0.000214175 0.0886919)
(8.74622e-05 -0.000177589 0.113994)
(-2.6849e-05 0.000103163 0.11306)
(1.84662e-05 -1.30172e-05 0.112172)
(4.46148e-05 5.37945e-05 0.112196)
(2.51642e-05 1.56897e-05 0.112239)
(5.10187e-05 4.44413e-05 0.112287)
(2.83837e-05 3.04033e-05 0.112341)
(4.34826e-05 4.3522e-05 0.112403)
(2.29627e-05 4.02339e-05 0.112454)
(2.86147e-05 4.64535e-05 0.112497)
(8.83377e-06 4.64995e-05 0.112524)
(9.41921e-06 4.84448e-05 0.112539)
(-0.000478806 -0.000350983 0.0753016)
(0.000399315 0.00018153 0.113441)
(-9.69018e-05 -0.000123755 0.114654)
(9.37106e-05 7.00768e-05 0.112561)
(-1.23383e-05 -1.49182e-05 0.11228)
(6.45592e-05 3.49648e-05 0.112317)
(1.62203e-05 7.73293e-06 0.112325)
(5.28049e-05 2.58737e-05 0.112359)
(2.35141e-05 1.54688e-05 0.112401)
(4.02192e-05 2.29548e-05 0.112455)
(1.83904e-05 1.83823e-05 0.112501)
(2.56014e-05 2.1611e-05 0.112543)
(6.07807e-06 1.97187e-05 0.11257)
(9.04286e-06 2.07415e-05 0.112586)
(-0.000152219 0.000116607 0.0938967)
(0.000124765 4.60299e-05 0.116048)
(-7.27172e-05 -3.3105e-05 0.113388)
(8.06807e-05 4.76133e-05 0.112288)
(-1.21795e-05 -7.25743e-06 0.112309)
(6.78276e-05 3.47671e-05 0.112349)
(1.60998e-05 9.82247e-06 0.112365)
(5.89072e-05 2.93727e-05 0.112405)
(2.55767e-05 1.94273e-05 0.112446)
(4.64217e-05 2.86499e-05 0.112498)
(2.16327e-05 2.56404e-05 0.112545)
(2.99315e-05 2.99921e-05 0.112589)
(7.94261e-06 2.95601e-05 0.112619)
(1.01116e-05 3.09746e-05 0.112638)
(-0.00387272 0.000528248 0.0146209)
(-0.000252219 -8.98237e-05 0.0890145)
(0.000241498 6.00084e-05 0.113224)
(-0.000103878 -5.63726e-05 0.112495)
(0.000126421 3.1056e-05 0.112092)
(-2.56673e-05 -1.62295e-05 0.112232)
(8.18746e-05 1.72805e-05 0.112323)
(1.06999e-05 -9.72411e-07 0.112371)
(6.25828e-05 1.12538e-05 0.112426)
(2.28542e-05 4.11139e-06 0.112471)
(4.647e-05 8.86772e-06 0.112524)
(1.97487e-05 6.09004e-06 0.112572)
(2.95288e-05 7.96396e-06 0.112621)
(7.061e-06 7.12044e-06 0.112658)
(1.04226e-05 8.1062e-06 0.112683)
(-0.00491233 0.000178585 0.0213401)
(-0.000242188 3.42629e-05 0.0883702)
(0.000209603 1.39266e-05 0.112794)
(-0.000108493 7.37427e-06 0.112263)
(0.000124377 1.18388e-05 0.111942)
(-2.82383e-05 4.18919e-06 0.112153)
(8.33954e-05 9.89913e-06 0.112296)
(9.82751e-06 5.45187e-06 0.112371)
(6.40902e-05 9.01521e-06 0.112436)
(2.31833e-05 7.22119e-06 0.112485)
(4.84209e-05 9.48454e-06 0.112539)
(2.07412e-05 9.08499e-06 0.112586)
(3.09646e-05 1.01377e-05 0.112639)
(8.08668e-06 1.04986e-05 0.112683)
(1.05844e-05 1.06162e-05 0.112717)
(0.000528213 -0.00387308 0.0146233)
(0.000178499 -0.00491271 0.0213427)
(0.000618767 -0.00166282 0.0143482)
(-0.00364168 -0.00434208 0.0215856)
(-0.000349531 -0.000473678 0.0752965)
(0.000116399 -0.000149912 0.0938918)
(-9.11715e-05 -0.00024916 0.0890094)
(3.33126e-05 -0.000238699 0.0883646)
(0.000946452 -0.00285567 0.0145925)
(-0.00433176 -0.0049416 0.0264679)
(-0.000386443 -0.000328882 0.0721409)
(0.000222666 -0.000266007 0.0886905)
(0.000186098 0.000398721 0.11344)
(4.47897e-05 0.000129839 0.116044)
(6.24336e-05 0.000243326 0.113222)
(1.43395e-05 0.000214366 0.112793)
(-0.00236142 -0.00507223 0.0177472)
(-0.000402895 -0.000385039 0.0738316)
(5.9868e-05 -0.000337844 0.0877044)
(0.000119108 0.00030792 0.112186)
(-0.000178883 9.28735e-05 0.113992)
(-0.000120303 -9.56725e-05 0.11465)
(-3.08859e-05 -6.90658e-05 0.113386)
(-5.76832e-05 -0.000101057 0.112493)
(9.27638e-06 -0.000106016 0.11226)
(-0.000579888 -0.000454701 0.0706159)
(0.000257247 -0.000343707 0.0888254)
(0.000187032 0.000367181 0.112425)
(-6.46921e-05 0.000117903 0.113519)
(-5.38628e-05 2.66326e-07 0.114179)
(0.000106038 -2.35386e-05 0.113062)
(7.28086e-05 9.97596e-05 0.112562)
(4.83548e-05 8.27671e-05 0.11229)
(3.25878e-05 0.000131429 0.112094)
(1.18593e-05 0.000128176 0.111944)
(-0.000455988 -0.000580152 0.0705729)
(0.00056051 0.000559432 0.112557)
(-0.000258813 9.17595e-05 0.113528)
(2.99713e-05 -1.41821e-05 0.11371)
(1.33359e-05 -6.07504e-05 0.112617)
(5.59811e-05 3.46836e-05 0.112185)
(-1.18805e-05 2.35718e-05 0.112175)
(-1.275e-05 -9.539e-06 0.112281)
(-6.00853e-06 -7.98838e-06 0.112311)
(-1.57063e-05 -2.24519e-05 0.112233)
(4.85792e-06 -2.46734e-05 0.112153)
(-0.00507582 -0.00235977 0.0177428)
(-0.000343645 0.000257694 0.088799)
(9.15693e-05 -0.000258903 0.113519)
(8.28085e-05 8.30558e-05 0.112583)
(0.00010233 2.11141e-05 0.111753)
(4.65547e-05 7.30986e-05 0.111812)
(2.81844e-05 3.74038e-05 0.112003)
(5.59724e-05 4.94179e-05 0.112199)
(3.67123e-05 6.92208e-05 0.112321)
(3.59847e-05 7.2013e-05 0.112353)
(1.83124e-05 8.66851e-05 0.112326)
(1.04261e-05 8.79318e-05 0.112298)
(-0.00285654 0.000946897 0.0145926)
(-0.000385129 -0.000403003 0.0738235)
(0.000367475 0.000187039 0.112411)
(-1.40931e-05 2.98002e-05 0.113701)
(2.10692e-05 0.000102432 0.111753)
(1.7154e-05 1.71722e-05 0.111677)
(2.55035e-05 2.51537e-05 0.11193)
(2.65175e-05 2.78215e-05 0.112109)
(1.73772e-05 2.89911e-05 0.112242)
(9.2147e-06 1.94592e-05 0.112327)
(1.12193e-05 2.02358e-05 0.112367)
(-6.68686e-08 1.45188e-05 0.112372)
(5.85769e-06 1.38024e-05 0.112371)
(-0.00494241 -0.00433144 0.0264679)
(-0.000337848 5.99594e-05 0.0876967)
(0.000117951 -6.45699e-05 0.113509)
(-6.07702e-05 1.33022e-05 0.11261)
(7.30898e-05 4.66224e-05 0.111811)
(2.50776e-05 2.5571e-05 0.111931)
(5.49676e-05 5.51019e-05 0.112084)
(3.13284e-05 4.10795e-05 0.112192)
(4.72798e-05 5.52174e-05 0.112289)
(2.78725e-05 5.67302e-05 0.112361)
(3.11612e-05 6.3319e-05 0.112408)
(1.21434e-05 6.66806e-05 0.112428)
(9.58401e-06 6.85063e-05 0.112438)
(-0.00166289 0.000618821 0.0143482)
(-0.000328853 -0.000386404 0.0721401)
(0.000307897 0.000119085 0.112183)
(3.00545e-07 -5.39268e-05 0.114174)
(3.47535e-05 5.5912e-05 0.11218)
(3.74351e-05 2.81166e-05 0.112001)
(2.78656e-05 2.64538e-05 0.112109)
(4.1026e-05 3.13526e-05 0.112192)
(2.67245e-05 2.67489e-05 0.112266)
(3.28681e-05 3.14079e-05 0.112342)
(1.71065e-05 2.61552e-05 0.112401)
(2.09668e-05 2.87151e-05 0.112446)
(5.01668e-06 2.5924e-05 0.11247)
(7.85101e-06 2.65367e-05 0.112485)
(-0.00434225 -0.00364162 0.0215856)
(-0.000266037 0.000222753 0.088689)
(9.29044e-05 -0.000178817 0.11399)
(-2.35548e-05 0.000106143 0.113059)
(2.35723e-05 -1.18696e-05 0.112172)
(4.93933e-05 5.5913e-05 0.112197)
(2.89876e-05 1.73439e-05 0.11224)
(5.51748e-05 4.73005e-05 0.112289)
(3.13922e-05 3.28903e-05 0.112341)
(4.65536e-05 4.65977e-05 0.112404)
(2.50293e-05 4.30999e-05 0.112454)
(3.08374e-05 4.99935e-05 0.112497)
(9.96578e-06 4.99129e-05 0.112523)
(1.0196e-05 5.18886e-05 0.112539)
(-0.000473694 -0.000349516 0.0752964)
(0.000398724 0.00018617 0.113439)
(-9.56707e-05 -0.00012031 0.114649)
(9.97388e-05 7.28485e-05 0.11256)
(-9.62371e-06 -1.27615e-05 0.112279)
(6.91994e-05 3.66663e-05 0.112319)
(1.95694e-05 9.19665e-06 0.112325)
(5.67139e-05 2.78688e-05 0.112361)
(2.61552e-05 1.70943e-05 0.112401)
(4.30826e-05 2.50156e-05 0.112455)
(2.04744e-05 2.0472e-05 0.112499)
(2.77204e-05 2.39595e-05 0.112542)
(6.89172e-06 2.21324e-05 0.112567)
(9.77252e-06 2.3293e-05 0.112583)
(-0.000149915 0.000116421 0.0938914)
(0.000129837 4.48265e-05 0.116044)
(-6.90705e-05 -3.08422e-05 0.113385)
(8.27509e-05 4.84163e-05 0.112288)
(-8.06745e-06 -5.92007e-06 0.112309)
(7.19848e-05 3.61899e-05 0.112351)
(2.02729e-05 1.13115e-05 0.112366)
(6.32684e-05 3.12095e-05 0.112407)
(2.86789e-05 2.10191e-05 0.112446)
(4.99675e-05 3.08836e-05 0.112498)
(2.39897e-05 2.77738e-05 0.112543)
(3.24723e-05 3.25537e-05 0.112587)
(9.26863e-06 3.24171e-05 0.112617)
(1.09806e-05 3.41015e-05 0.112636)
(-0.00387312 0.000528245 0.0146233)
(-0.000249153 -9.11557e-05 0.089009)
(0.000243357 6.24616e-05 0.113221)
(-0.000101042 -5.76968e-05 0.112492)
(0.000131448 3.26331e-05 0.112093)
(-2.23873e-05 -1.5673e-05 0.112231)
(8.66755e-05 1.85099e-05 0.112325)
(1.44782e-05 -3.73503e-08 0.112371)
(6.66221e-05 1.21767e-05 0.112427)
(2.59108e-05 5.02785e-06 0.11247)
(4.9885e-05 1.00033e-05 0.112524)
(2.21653e-05 6.89428e-06 0.112569)
(3.23733e-05 9.28915e-06 0.112619)
(8.4377e-06 8.50043e-06 0.112656)
(1.14366e-05 9.26227e-06 0.112681)
(-0.00491272 0.000178525 0.0213427)
(-0.000238681 3.33461e-05 0.0883644)
(0.000214334 1.43814e-05 0.112793)
(-0.000106001 9.3245e-06 0.11226)
(0.000128213 1.18944e-05 0.111943)
(-2.45969e-05 4.88476e-06 0.112153)
(8.7905e-05 1.04177e-05 0.112298)
(1.36807e-05 5.88155e-06 0.112371)
(6.8443e-05 9.61436e-06 0.112438)
(2.65043e-05 7.89448e-06 0.112484)
(5.18615e-05 1.02468e-05 0.112539)
(2.32944e-05 9.82138e-06 0.112584)
(3.40847e-05 1.10005e-05 0.112637)
(9.24509e-06 1.15009e-05 0.112681)
(1.15529e-05 1.15857e-05 0.112713)
(0.000528062 -0.00387362 0.0146263)
(0.000178483 -0.00491323 0.0213463)
(0.000619072 -0.00166336 0.0143517)
(-0.00364216 -0.00434325 0.0215896)
(-0.000347961 -0.000467235 0.0752915)
(0.000116133 -0.00014721 0.093887)
(-9.28122e-05 -0.000245243 0.0890049)
(3.27216e-05 -0.000234885 0.0883612)
(0.000946569 -0.00285627 0.014596)
(-0.00433246 -0.00494228 0.0264726)
(-0.00038499 -0.000326993 0.0721382)
(0.000232903 -0.000262929 0.0886896)
(0.000189443 0.000398273 0.113438)
(4.26926e-05 0.000133979 0.116041)
(6.50864e-05 0.000245494 0.113221)
(1.43391e-05 0.000218585 0.112791)
(-0.00236179 -0.00507345 0.0177507)
(-0.000400592 -0.000381652 0.0738294)
(6.35977e-05 -0.000333017 0.0877024)
(0.000120862 0.000316265 0.112181)
(-0.000179548 9.73306e-05 0.11399)
(-0.000117914 -9.50647e-05 0.114647)
(-2.84966e-05 -6.48116e-05 0.113383)
(-5.89554e-05 -9.82263e-05 0.112491)
(1.06733e-05 -0.000103116 0.112257)
(-0.000577381 -0.000450848 0.0706134)
(0.000261221 -0.000341365 0.0888241)
(0.00019105 0.00037646 0.112422)
(-6.18772e-05 0.000121203 0.113516)
(-5.35281e-05 4.55194e-06 0.114178)
(0.000109722 -2.03233e-05 0.113062)
(7.59332e-05 0.000105624 0.112564)
(4.89709e-05 8.52363e-05 0.112292)
(3.42428e-05 0.000135783 0.112097)
(1.19846e-05 0.000131692 0.111947)
(-0.000451924 -0.000578785 0.0705703)
(0.000560196 0.000559414 0.112553)
(-0.000256307 9.70263e-05 0.113527)
(3.48633e-05 -1.18125e-05 0.113707)
(1.27932e-05 -5.8248e-05 0.112617)
(5.76065e-05 3.76332e-05 0.112185)
(-1.08278e-05 2.85294e-05 0.112176)
(-1.12098e-05 -7.50042e-06 0.11228)
(-5.03421e-06 -4.31904e-06 0.112311)
(-1.58005e-05 -1.96797e-05 0.112232)
(5.39309e-06 -2.18659e-05 0.112152)
(-0.00507701 -0.00236016 0.0177463)
(-0.00034127 0.000261374 0.0887976)
(9.68218e-05 -0.000256369 0.113518)
(8.94227e-05 8.97526e-05 0.112585)
(0.000103615 2.27443e-05 0.111754)
(4.98441e-05 7.71753e-05 0.111813)
(3.08095e-05 4.11394e-05 0.112004)
(5.85838e-05 5.32915e-05 0.112201)
(3.8442e-05 7.30974e-05 0.112323)
(3.74055e-05 7.55548e-05 0.112355)
(1.92509e-05 9.07417e-05 0.112329)
(1.04689e-05 9.17779e-05 0.112301)
(-0.00285715 0.00094701 0.0145961)
(-0.000381722 -0.000400708 0.0738213)
(0.000376776 0.000191028 0.112407)
(-1.16532e-05 3.46709e-05 0.113698)
(2.2672e-05 0.000103755 0.111754)
(1.92893e-05 1.93768e-05 0.111677)
(2.6918e-05 2.86911e-05 0.111931)
(2.77909e-05 3.00335e-05 0.112109)
(1.84248e-05 3.21107e-05 0.112242)
(1.03374e-05 2.16239e-05 0.112326)
(1.2365e-05 2.3087e-05 0.112367)
(1.7443e-07 1.67121e-05 0.11237)
(6.12633e-06 1.63142e-05 0.112369)
(-0.00494309 -0.00433214 0.0264726)
(-0.000332996 6.36693e-05 0.0876946)
(0.000121291 -6.17482e-05 0.113507)
(-5.82188e-05 1.27375e-05 0.112609)
(7.71704e-05 4.98924e-05 0.111813)
(2.85795e-05 2.7012e-05 0.111932)
(5.81969e-05 5.83749e-05 0.112086)
(3.34356e-05 4.33967e-05 0.112193)
(4.97412e-05 5.86929e-05 0.112291)
(2.92689e-05 5.96964e-05 0.112362)
(3.25948e-05 6.64483e-05 0.112408)
(1.27587e-05 6.97056e-05 0.112427)
(1.00495e-05 7.17626e-05 0.112437)
(-0.00166342 0.000619128 0.0143516)
(-0.000326953 -0.000384936 0.0721374)
(0.000316253 0.000120845 0.112177)
(4.61156e-06 -5.35956e-05 0.114172)
(3.77507e-05 5.75278e-05 0.112179)
(4.11855e-05 3.07222e-05 0.112001)
(3.00734e-05 2.77227e-05 0.112109)
(4.3319e-05 3.3468e-05 0.112193)
(2.81802e-05 2.8219e-05 0.112264)
(3.45137e-05 3.32714e-05 0.112341)
(1.78269e-05 2.75366e-05 0.112398)
(2.21342e-05 3.06756e-05 0.112443)
(5.37047e-06 2.75361e-05 0.112467)
(8.24851e-06 2.83503e-05 0.11248)
(-0.00434342 -0.00364209 0.0215896)
(-0.000262962 0.000232999 0.0886881)
(9.73653e-05 -0.000179477 0.113987)
(-2.03142e-05 0.000109842 0.113059)
(2.85673e-05 -1.0802e-05 0.112173)
(5.32727e-05 5.859e-05 0.112199)
(3.20967e-05 1.83955e-05 0.112241)
(5.86256e-05 4.97589e-05 0.11229)
(3.32503e-05 3.4546e-05 0.11234)
(4.89034e-05 4.89539e-05 0.112402)
(2.64849e-05 4.4981e-05 0.112451)
(3.24733e-05 5.25804e-05 0.112494)
(1.0423e-05 5.2342e-05 0.112519)
(1.07926e-05 5.45402e-05 0.112534)
(-0.000467252 -0.000347941 0.0752914)
(0.000398279 0.000189533 0.113437)
(-9.50466e-05 -0.000117911 0.114645)
(0.00010564 7.59941e-05 0.112562)
(-7.48391e-06 -1.12314e-05 0.112278)
(7.30781e-05 3.8415e-05 0.112321)
(2.16581e-05 1.02992e-05 0.112324)
(5.96569e-05 2.92596e-05 0.112361)
(2.75325e-05 1.78198e-05 0.112398)
(4.49546e-05 2.64713e-05 0.112452)
(2.14121e-05 2.14229e-05 0.112495)
(2.94172e-05 2.5501e-05 0.112536)
(7.29771e-06 2.38005e-05 0.112561)
(1.04688e-05 2.53303e-05 0.112577)
(-0.000147213 0.000116158 0.0938866)
(0.000133978 4.27391e-05 0.11604)
(-6.48096e-05 -2.84507e-05 0.113381)
(8.52259e-05 4.90339e-05 0.11229)
(-4.36217e-06 -4.97955e-06 0.112309)
(7.55227e-05 3.74817e-05 0.112354)
(2.30887e-05 1.24267e-05 0.112365)
(6.63942e-05 3.26408e-05 0.112407)
(3.06374e-05 2.21957e-05 0.112443)
(5.25577e-05 3.25366e-05 0.112495)
(2.55344e-05 2.94903e-05 0.112538)
(3.48142e-05 3.49322e-05 0.112581)
(1.02034e-05 3.51769e-05 0.11261)
(1.2192e-05 3.72667e-05 0.112627)
(-0.00387366 0.000528095 0.0146262)
(-0.00024524 -9.27879e-05 0.0890046)
(0.000245528 6.51236e-05 0.11322)
(-9.82028e-05 -5.8959e-05 0.11249)
(0.000135804 3.42903e-05 0.112095)
(-1.96431e-05 -1.57955e-05 0.11223)
(9.07395e-05 1.9332e-05 0.112328)
(1.6724e-05 1.75555e-07 0.112369)
(6.96629e-05 1.27841e-05 0.112427)
(2.75352e-05 5.36357e-06 0.112466)
(5.23128e-05 1.04524e-05 0.112519)
(2.38384e-05 7.27634e-06 0.112563)
(3.51154e-05 1.02089e-05 0.112612)
(9.62305e-06 9.68378e-06 0.112647)
(1.24279e-05 1.11035e-05 0.112671)
(-0.00491325 0.000178509 0.0213463)
(-0.000234864 3.27667e-05 0.088361)
(0.000218553 1.43864e-05 0.11279)
(-0.000103101 1.0725e-05 0.112257)
(0.000131697 1.2024e-05 0.111946)
(-2.1872e-05 5.43874e-06 0.112151)
(9.17483e-05 1.0501e-05 0.1123)
(1.6267e-05 6.18029e-06 0.112368)
(7.17075e-05 1.00882e-05 0.112437)
(2.83156e-05 8.31177e-06 0.11248)
(5.45129e-05 1.08384e-05 0.112534)
(2.53253e-05 1.05424e-05 0.112577)
(3.72369e-05 1.22046e-05 0.112628)
(1.11028e-05 1.25063e-05 0.112672)
(1.35048e-05 1.35583e-05 0.112704)
(0.000527977 -0.0038743 0.01463)
(0.000178553 -0.00491401 0.0213509)
(0.000619554 -0.00166401 0.0143558)
(-0.00364285 -0.00434467 0.0215941)
(-0.000346011 -0.00045997 0.0752868)
(0.000116163 -0.000144177 0.0938836)
(-9.41196e-05 -0.000240584 0.0890024)
(3.2909e-05 -0.000230968 0.0883598)
(0.000946599 -0.00285712 0.0146002)
(-0.00433303 -0.00494307 0.0264782)
(-0.000383006 -0.00032464 0.0721377)
(0.000242778 -0.000259212 0.0886894)
(0.000192035 0.000397701 0.113438)
(4.05334e-05 0.00013674 0.116039)
(6.75559e-05 0.000247029 0.113222)
(1.33498e-05 0.000220756 0.11279)
(-0.00236215 -0.00507492 0.0177548)
(-0.000397644 -0.000377509 0.073827)
(6.59618e-05 -0.00032817 0.0877029)
(0.000121894 0.000323081 0.112179)
(-0.000180788 0.000101322 0.113989)
(-0.000116905 -9.44217e-05 0.114644)
(-2.61723e-05 -6.02012e-05 0.113381)
(-6.03944e-05 -9.58049e-05 0.11249)
(1.14701e-05 -9.95601e-05 0.112256)
(-0.000575303 -0.000445573 0.0706113)
(0.000265048 -0.000338418 0.0888258)
(0.00019379 0.000384021 0.112422)
(-5.97275e-05 0.000123321 0.113517)
(-5.28557e-05 8.82901e-06 0.114178)
(0.000114687 -1.73575e-05 0.113065)
(7.91028e-05 0.000110816 0.112569)
(4.91677e-05 8.74702e-05 0.112296)
(3.61119e-05 0.000138817 0.112101)
(1.21521e-05 0.000134105 0.111951)
(-0.000446891 -0.000575271 0.0705684)
(0.000560949 0.000559781 0.112553)
(-0.00025542 0.000102433 0.113528)
(3.85518e-05 -9.63449e-06 0.113706)
(1.26872e-05 -5.55271e-05 0.112618)
(5.94808e-05 4.00432e-05 0.112187)
(-1.10845e-05 3.23921e-05 0.11218)
(-1.10793e-05 -7.2099e-06 0.11228)
(-4.75008e-06 -1.97235e-06 0.112311)
(-1.69032e-05 -1.85258e-05 0.11223)
(5.66436e-06 -2.06214e-05 0.11215)
(-0.0050785 -0.0023605 0.0177503)
(-0.000338317 0.00026554 0.0887994)
(0.000102303 -0.000255428 0.113518)
(9.5468e-05 9.6087e-05 0.112589)
(0.000103705 2.40808e-05 0.111757)
(5.21172e-05 8.09227e-05 0.111819)
(3.24058e-05 4.32588e-05 0.112006)
(6.1202e-05 5.50615e-05 0.112204)
(3.99673e-05 7.56252e-05 0.112326)
(3.85667e-05 7.74425e-05 0.112358)
(2.0199e-05 9.25362e-05 0.112331)
(1.08187e-05 9.35573e-05 0.112303)
(-0.002858 0.000947042 0.0146003)
(-0.000377577 -0.000397766 0.0738188)
(0.000384403 0.000193816 0.112407)
(-9.14682e-06 3.8402e-05 0.113697)
(2.39585e-05 0.0001041 0.111757)
(2.02447e-05 2.06827e-05 0.111678)
(2.7409e-05 3.11163e-05 0.111934)
(2.75002e-05 3.10142e-05 0.112109)
(1.84067e-05 3.36419e-05 0.112243)
(1.049e-05 2.13289e-05 0.112325)
(1.19042e-05 2.33025e-05 0.112366)
(-1.0051e-06 1.62118e-05 0.112367)
(6.45118e-06 1.57928e-05 0.112367)
(-0.00494389 -0.0043327 0.0264783)
(-0.00032814 6.60291e-05 0.0876952)
(0.000123482 -5.95858e-05 0.113507)
(-5.52189e-05 1.2588e-05 0.11261)
(8.09353e-05 5.19329e-05 0.111818)
(3.07524e-05 2.75366e-05 0.111935)
(6.00611e-05 6.03238e-05 0.11209)
(3.40242e-05 4.36926e-05 0.112194)
(5.09643e-05 6.02831e-05 0.112291)
(2.94003e-05 6.04309e-05 0.11236)
(3.35293e-05 6.75521e-05 0.112405)
(1.29896e-05 7.14572e-05 0.112424)
(1.02899e-05 7.35123e-05 0.112433)
(-0.00166408 0.000619613 0.0143557)
(-0.000324598 -0.000382947 0.0721369)
(0.000323078 0.000121886 0.112175)
(8.92392e-06 -5.29236e-05 0.114172)
(4.02485e-05 5.93572e-05 0.112181)
(4.33262e-05 3.20576e-05 0.112003)
(3.10227e-05 2.73764e-05 0.112109)
(4.35837e-05 3.4058e-05 0.112194)
(2.75046e-05 2.75486e-05 0.112264)
(3.48738e-05 3.30858e-05 0.112338)
(1.74236e-05 2.67861e-05 0.112394)
(2.26397e-05 3.03711e-05 0.112438)
(4.81273e-06 2.67519e-05 0.11246)
(8.47095e-06 2.78642e-05 0.112473)
(-0.00434484 -0.00364277 0.0215941)
(-0.000259252 0.000242887 0.0886879)
(0.000101358 -0.000180706 0.113987)
(-1.73275e-05 0.000114826 0.113061)
(3.24543e-05 -1.10618e-05 0.112176)
(5.50457e-05 6.11633e-05 0.112202)
(3.36341e-05 1.83506e-05 0.112242)
(6.01919e-05 5.09761e-05 0.11229)
(3.3067e-05 3.49141e-05 0.112338)
(5.00181e-05 5.00735e-05 0.112398)
(2.64501e-05 4.65179e-05 0.112444)
(3.33336e-05 5.41178e-05 0.112485)
(1.04501e-05 5.43365e-05 0.112508)
(1.11034e-05 5.68923e-05 0.112521)
(-0.000459988 -0.000345985 0.0752867)
(0.000397713 0.000192148 0.113438)
(-9.43867e-05 -0.000116892 0.114643)
(0.000110854 7.91878e-05 0.112567)
(-7.16673e-06 -1.11141e-05 0.112278)
(7.56015e-05 3.99543e-05 0.112324)
(2.13663e-05 1.0427e-05 0.112324)
(6.0388e-05 2.93869e-05 0.112359)
(2.6789e-05 1.74294e-05 0.112394)
(4.64849e-05 2.64454e-05 0.112445)
(2.14067e-05 2.14465e-05 0.112486)
(3.03475e-05 2.5662e-05 0.112524)
(7.52544e-06 2.41582e-05 0.112547)
(1.09152e-05 2.57518e-05 0.112561)
(-0.000144178 0.0001162 0.0938832)
(0.000136737 4.05851e-05 0.116038)
(-6.01965e-05 -2.61215e-05 0.11338)
(8.74574e-05 4.92334e-05 0.112294)
(-2.00014e-06 -4.70887e-06 0.112309)
(7.74018e-05 3.86281e-05 0.112357)
(2.32919e-05 1.19635e-05 0.112365)
(6.75069e-05 3.35766e-05 0.112404)
(3.03457e-05 2.27266e-05 0.112438)
(5.4108e-05 3.341e-05 0.112486)
(2.56901e-05 3.04549e-05 0.112525)
(3.59862e-05 3.61666e-05 0.112564)
(1.045e-05 3.68068e-05 0.11259)
(1.29698e-05 3.92884e-05 0.112606)
(-0.00387434 0.000528012 0.01463)
(-0.000240587 -9.40832e-05 0.0890021)
(0.000247061 6.76057e-05 0.113221)
(-9.5767e-05 -6.03927e-05 0.112489)
(0.000138843 3.61649e-05 0.1121)