/*--------------------------------*- C++ -*----------------------------------*\
| =========                 |                                                 |
| \\      /  F ield         | OpenFOAM: The Open Source CFD Toolbox           |
|  \\    /   O peration     | Version:  2.1.1                                 |
|   \\  /    A nd           | Web:      www.OpenFOAM.org                      |
|    \\/     M anipulation  |                                                 |
\*---------------------------------------------------------------------------*/
FoamFile
{
    version     2.0;
    format      ascii;
    class       volVectorField;
    location    "0.003";
    object      U;
}
// * * * * * * * * * * * * * * * * * * * * * * * * * * * * * * * * * * * * * //

dimensions      [0 1 -1 0 0 0 0];

internalField   nonuniform List<vector> 
10266
(
(-0.00497707 1.17657e-06 0.02172)
(-0.000258753 -5.39969e-05 0.0882666)
(0.000184048 -3.76431e-06 0.112804)
(-0.00016039 -1.36987e-05 0.112284)
(6.50151e-05 -2.31182e-06 0.111949)
(-8.923e-05 -3.92734e-06 0.112155)
(-9.27129e-07 -2.44109e-06 0.112301)
(-5.88217e-05 -8.48338e-07 0.112381)
(-2.44753e-05 -1.30298e-06 0.112447)
(-4.45035e-05 -2.03905e-07 0.112502)
(-2.55869e-05 -9.79379e-08 0.112557)
(-3.03976e-05 5.73595e-07 0.11261)
(-1.62025e-05 7.03457e-07 0.112663)
(-1.45945e-05 9.43125e-07 0.112712)
(-1.72527e-06 8.37417e-07 0.112745)
(-0.00467853 -0.000707767 0.0197359)
(-0.000256499 8.25668e-05 0.0889057)
(0.000231499 -6.22543e-05 0.113256)
(-0.000154349 5.07049e-05 0.112526)
(7.62664e-05 -2.12184e-05 0.112102)
(-8.73945e-05 1.84047e-05 0.112235)
(3.18647e-06 -2.7719e-06 0.112332)
(-5.69377e-05 8.3485e-06 0.112383)
(-2.36056e-05 4.01043e-06 0.112437)
(-4.29554e-05 8.9809e-06 0.112488)
(-2.45464e-05 9.05639e-06 0.112542)
(-2.9453e-05 1.14961e-05 0.112594)
(-1.58795e-05 1.22046e-05 0.112645)
(-1.43804e-05 1.31928e-05 0.112687)
(-1.87747e-06 1.36022e-05 0.112712)
(-0.00127491 -0.00150171 0.0104405)
(-0.000170162 -0.000109301 0.0937856)
(0.000102743 -3.75581e-05 0.116094)
(-0.000113689 4.12929e-05 0.113442)
(2.89319e-05 -3.29651e-05 0.112302)
(-6.92532e-05 1.95426e-05 0.112314)
(-1.12776e-05 -7.58835e-06 0.112358)
(-5.19304e-05 1.1191e-05 0.112377)
(-2.38745e-05 4.31896e-06 0.112415)
(-3.94372e-05 1.23509e-05 0.112461)
(-2.30651e-05 1.10082e-05 0.112514)
(-2.72459e-05 1.41104e-05 0.112565)
(-1.45039e-05 1.41478e-05 0.112611)
(-1.31954e-05 1.51641e-05 0.112645)
(-1.55932e-06 1.5227e-05 0.112664)
(-0.000489711 0.000341166 0.0752252)
(0.000389023 -0.000148335 0.113423)
(-0.000142616 0.000126777 0.114722)
(4.7706e-05 -3.62926e-05 0.11259)
(-6.21082e-05 2.97257e-05 0.112285)
(-5.25951e-06 -3.89881e-06 0.112326)
(-4.48932e-05 1.83837e-05 0.112337)
(-2.24693e-05 1.14634e-05 0.11237)
(-3.62532e-05 2.07482e-05 0.112416)
(-2.27822e-05 2.07318e-05 0.11247)
(-2.63138e-05 2.52488e-05 0.112522)
(-1.48244e-05 2.6635e-05 0.112565)
(-1.32994e-05 2.85844e-05 0.112595)
(-1.8161e-06 2.92425e-05 0.11261)
(-0.00588878 0.00143303 0.0290424)
(-0.000277626 -0.000191163 0.0886151)
(4.81991e-05 0.000179127 0.114015)
(-6.62412e-05 -6.85169e-05 0.113107)
(-4.11291e-05 2.37494e-05 0.112187)
(-2.28456e-05 -9.27197e-06 0.1122)
(-3.63402e-05 1.66542e-05 0.112249)
(-2.14529e-05 8.61071e-06 0.112295)
(-3.01587e-05 1.93525e-05 0.112352)
(-1.8551e-05 1.88147e-05 0.112414)
(-2.13416e-05 2.25348e-05 0.112469)
(-1.11652e-05 2.31529e-05 0.112513)
(-1.05879e-05 2.40909e-05 0.112542)
(-8.97177e-07 2.43779e-05 0.112557)
(-0.00324408 0.000470651 0.0180598)
(-0.000335818 0.000392556 0.0720673)
(0.000268379 -9.25726e-05 0.112154)
(-3.94557e-05 5.67535e-05 0.114234)
(-8.10089e-06 -1.95236e-05 0.11221)
(-1.44328e-05 1.62495e-06 0.112005)
(-2.6831e-05 1.48354e-05 0.112115)
(-1.96505e-05 1.75317e-05 0.112199)
(-2.60539e-05 2.59802e-05 0.112276)
(-1.95979e-05 3.03139e-05 0.112351)
(-2.19885e-05 3.57818e-05 0.112415)
(-1.3271e-05 3.93779e-05 0.112461)
(-1.20772e-05 4.22348e-05 0.112488)
(-1.59743e-06 4.36553e-05 0.112501)
(-0.00882029 0.00185162 0.030895)
(-0.00036962 -2.92912e-05 0.0876288)
(8.78431e-05 0.000100261 0.113537)
(-9.77002e-05 1.27969e-06 0.112656)
(6.16741e-06 1.19339e-06 0.111815)
(-2.07842e-05 1.42647e-05 0.111931)
(-1.01303e-05 1.05464e-05 0.112087)
(-1.73778e-05 1.99609e-05 0.112198)
(-8.74497e-06 2.27464e-05 0.112294)
(-1.22906e-05 2.26604e-05 0.112368)
(-4.7226e-06 2.45492e-05 0.112414)
(-6.32789e-06 2.28986e-05 0.112436)
(4.87915e-07 2.33594e-05 0.112446)
(-0.00451512 -0.0004547 0.0192887)
(-0.000395512 0.00040133 0.0737563)
(0.000307892 -0.000131283 0.11239)
(-4.35821e-05 4.82783e-06 0.113758)
(-5.07357e-06 -4.93687e-05 0.111776)
(-1.93584e-05 2.04459e-05 0.111678)
(-1.39546e-05 2.11663e-05 0.111933)
(-1.4037e-05 2.75571e-05 0.112115)
(-1.70198e-05 3.74572e-05 0.112248)
(-2.02484e-05 4.47267e-05 0.112336)
(-1.30059e-05 5.13441e-05 0.112375)
(-1.32296e-05 5.59091e-05 0.112381)
(-1.23741e-06 5.83359e-05 0.11238)
(-0.00602608 0.000611283 0.0313677)
(-0.000347092 -0.000229355 0.0887588)
(5.33688e-05 0.000291901 0.113557)
(1.9547e-05 -1.89167e-05 0.112624)
(4.97677e-05 5.87456e-06 0.111778)
(-1.15093e-06 -5.65407e-06 0.111816)
(-7.46955e-07 1.50046e-05 0.112003)
(8.24138e-06 2.40881e-05 0.112198)
(1.36032e-06 6.76972e-06 0.112322)
(6.32712e-06 1.06303e-05 0.112355)
(5.59112e-07 -1.47052e-06 0.112329)
(3.00954e-06 -1.34724e-06 0.1123)
(-0.00422784 -0.0018479 0.0149358)
(-0.000467194 0.000587293 0.0705674)
(0.00056648 -0.000566929 0.112518)
(-0.000291303 -5.26648e-05 0.113553)
(-3.77817e-06 4.47655e-05 0.113756)
(-1.17554e-06 9.90644e-05 0.112652)
(2.10475e-05 8.79418e-06 0.112206)
(-2.3188e-05 4.40615e-05 0.112183)
(-3.34975e-05 6.11903e-05 0.112283)
(-2.1154e-05 7.19342e-05 0.11231)
(-2.48992e-05 8.50463e-05 0.112234)
(-8.56371e-07 8.9742e-05 0.112152)
(0.00238148 -0.0116341 0.0165095)
(-0.000587863 0.000468069 0.0705136)
(0.000230193 0.000347377 0.0887123)
(0.000132267 -0.000307509 0.112376)
(-0.000100653 -8.7982e-05 0.113528)
(-5.42637e-05 4.06706e-05 0.114228)
(6.59073e-05 6.56956e-05 0.113102)
(3.34954e-05 -4.68288e-05 0.112584)
(3.03128e-05 -2.71007e-05 0.1123)
(1.68696e-05 -7.19349e-05 0.112097)
(7.18649e-06 -6.7962e-05 0.111948)
(0.00417651 -0.00861799 0.0188608)
(-0.00140796 -0.000617382 0.0271169)
(-0.000401079 0.000396531 0.0737459)
(2.99776e-05 0.000370196 0.0876172)
(9.36762e-05 -0.00026687 0.112148)
(-0.000178785 -4.85621e-05 0.114011)
(-0.000128081 0.000145054 0.114719)
(-3.94101e-05 0.00011812 0.113438)
(-6.18544e-05 0.00015748 0.112525)
(4.19097e-06 0.000161693 0.11228)
(-0.00215723 0.00141608 0.0296267)
(-0.00447175 0.000428092 0.0268333)
(-0.000391485 0.000335738 0.0720655)
(0.000189032 0.000277563 0.0886128)
(0.000150456 -0.000384994 0.113418)
(3.56088e-05 -0.000101195 0.116095)
(5.51998e-05 -0.000221201 0.11325)
(9.0688e-06 -0.00018526 0.112804)
(-0.00252153 0.00042603 0.0166188)
(-0.00269694 0.00157926 0.0314659)
(-0.00433739 -0.000176236 0.0269506)
(-0.000342011 0.000494278 0.075226)
(0.00011611 0.000172461 0.0937857)
(-9.38043e-05 0.00026786 0.0889149)
(3.58954e-05 0.000260086 0.0882609)
(-0.00230347 -0.00657632 0.0221048)
(0.0029817 -0.006686 0.0250828)
(-0.001084 0.00152426 0.0320732)
(0.000151088 0.00147871 0.0293395)
(-0.00497691 2.34564e-06 0.0217236)
(-0.000258063 -5.67378e-05 0.0882703)
(0.000183117 -2.04117e-06 0.112811)
(-0.000155446 -1.44853e-05 0.112289)
(6.95152e-05 -1.64821e-06 0.111952)
(-8.51141e-05 -4.59867e-06 0.112157)
(9.03209e-06 -2.33429e-06 0.112301)
(-5.10255e-05 -1.47889e-06 0.112378)
(-1.62963e-05 -1.6618e-06 0.112442)
(-3.70192e-05 -7.61403e-07 0.112496)
(-1.87428e-05 -9.24115e-07 0.112549)
(-2.50697e-05 -3.03534e-07 0.112601)
(-1.21007e-05 -1.40628e-07 0.112654)
(-1.22263e-05 6.80403e-08 0.112702)
(-1.10415e-06 1.64253e-07 0.112734)
(-0.00467481 -0.00070987 0.019738)
(-0.000249703 7.99631e-05 0.0889153)
(0.000236771 -6.40761e-05 0.113263)
(-0.00015019 4.92179e-05 0.112534)
(8.11911e-05 -2.30567e-05 0.112103)
(-8.37645e-05 1.83158e-05 0.112238)
(1.33518e-05 -4.10464e-06 0.112331)
(-4.95561e-05 7.23097e-06 0.11238)
(-1.53265e-05 2.26437e-06 0.112433)
(-3.59702e-05 6.7306e-06 0.112483)
(-1.81105e-05 6.59958e-06 0.112535)
(-2.4157e-05 8.98961e-06 0.112586)
(-1.18077e-05 9.60486e-06 0.112636)
(-1.19843e-05 1.05793e-05 0.112677)
(-1.05695e-06 1.09983e-05 0.112702)
(-0.0012745 -0.0014999 0.0104411)
(-0.000167292 -0.000106233 0.0937935)
(0.000104054 -3.98933e-05 0.116103)
(-0.000108561 4.1461e-05 0.11345)
(3.47957e-05 -3.51732e-05 0.112306)
(-6.45965e-05 1.84618e-05 0.112317)
(-2.36215e-06 -9.85892e-06 0.112358)
(-4.45416e-05 8.86899e-06 0.112376)
(-1.68285e-05 1.33479e-06 0.112412)
(-3.26642e-05 8.94525e-06 0.112456)
(-1.64774e-05 7.43891e-06 0.112507)
(-2.20606e-05 1.02847e-05 0.112557)
(-1.05088e-05 1.0115e-05 0.112602)
(-1.08313e-05 1.10266e-05 0.112636)
(-6.99889e-07 1.10468e-05 0.112654)
(-0.000487481 0.00034143 0.0752315)
(0.000390933 -0.000148757 0.113429)
(-0.0001382 0.000127223 0.114729)
(5.13781e-05 -3.9871e-05 0.112593)
(-5.85018e-05 2.89433e-05 0.112289)
(3.64777e-06 -7.071e-06 0.112326)
(-3.82255e-05 1.44656e-05 0.112336)
(-1.52768e-05 7.47725e-06 0.112367)
(-2.9854e-05 1.65802e-05 0.112412)
(-1.67667e-05 1.60215e-05 0.112465)
(-2.14813e-05 2.021e-05 0.112515)
(-1.10644e-05 2.13215e-05 0.112557)
(-1.1051e-05 2.31311e-05 0.112586)
(-1.04731e-06 2.37425e-05 0.112602)
(-0.00588837 0.00143281 0.029043)
(-0.000276581 -0.000192091 0.0886199)
(5.03799e-05 0.000179505 0.114021)
(-6.15617e-05 -7.15437e-05 0.113111)
(-3.60825e-05 2.31429e-05 0.112191)
(-1.70768e-05 -1.2218e-05 0.112202)
(-2.9777e-05 1.29331e-05 0.11225)
(-1.46625e-05 4.05292e-06 0.112293)
(-2.41127e-05 1.43124e-05 0.112348)
(-1.28351e-05 1.31091e-05 0.112409)
(-1.67596e-05 1.64738e-05 0.112463)
(-7.58451e-06 1.66468e-05 0.112506)
(-8.41054e-06 1.73797e-05 0.112534)
(-9.24772e-08 1.74477e-05 0.112549)
(-0.00324421 0.000470899 0.0180603)
(-0.000335618 0.000392546 0.0720709)
(0.000270779 -9.22114e-05 0.112159)
(-3.66173e-05 5.65421e-05 0.114238)
(-4.42169e-06 -2.22208e-05 0.112214)
(-8.65762e-06 -8.5625e-07 0.112006)
(-2.17853e-05 1.09743e-05 0.112116)
(-1.37844e-05 1.28395e-05 0.112198)
(-2.08053e-05 2.06787e-05 0.112274)
(-1.4603e-05 2.41554e-05 0.112348)
(-1.79555e-05 2.9288e-05 0.11241)
(-1.01601e-05 3.23555e-05 0.112456)
(-1.02524e-05 3.50509e-05 0.112482)
(-9.99549e-07 3.62219e-05 0.112496)
(-0.00882018 0.00185138 0.0308958)
(-0.000368632 -2.91782e-05 0.087633)
(8.94789e-05 9.85036e-05 0.113541)
(-9.4895e-05 -1.00328e-07 0.11266)
(1.07673e-05 -2.3811e-06 0.111818)
(-1.64484e-05 1.06955e-05 0.111932)
(-4.78215e-06 4.99736e-06 0.112087)
(-1.27984e-05 1.41835e-05 0.112197)
(-4.21877e-06 1.61318e-05 0.112291)
(-8.56974e-06 1.56528e-05 0.112365)
(-1.83039e-06 1.6893e-05 0.11241)
(-4.5613e-06 1.47953e-05 0.112432)
(1.09523e-06 1.49756e-05 0.112441)
(-0.00451513 -0.000454584 0.0192891)
(-0.000395292 0.000402072 0.0737602)
(0.000309329 -0.000132649 0.112395)
(-4.16864e-05 4.0031e-06 0.113762)
(-1.48122e-06 -5.24751e-05 0.111779)
(-1.62965e-05 1.74357e-05 0.111681)
(-1.02966e-05 1.66183e-05 0.111934)
(-9.85287e-06 2.28454e-05 0.112116)
(-1.32471e-05 3.0876e-05 0.112248)
(-1.72513e-05 3.79989e-05 0.112335)
(-1.09887e-05 4.37495e-05 0.112374)
(-1.21319e-05 4.83615e-05 0.112379)
(-8.84127e-07 5.0603e-05 0.112377)
(-0.00602638 0.000611669 0.0313688)
(-0.000346967 -0.000230417 0.0887625)
(5.44616e-05 0.000290184 0.113562)
(2.19734e-05 -2.14908e-05 0.112628)
(5.26641e-05 2.28918e-06 0.111781)
(2.50275e-06 -1.04097e-05 0.111819)
(1.81175e-06 9.46948e-06 0.112004)
(1.07623e-05 1.75369e-05 0.112198)
(4.0793e-06 -1.65192e-06 0.112322)
(8.3995e-06 1.36378e-06 0.112355)
(2.18208e-06 -1.1366e-05 0.112329)
(3.39978e-06 -1.15524e-05 0.1123)
(-0.00422793 -0.00184818 0.014936)
(-0.000467658 0.000587523 0.0705708)
(0.000566968 -0.000567486 0.112524)
(-0.000289573 -5.37481e-05 0.113558)
(-2.88184e-06 4.29057e-05 0.11376)
(5.33133e-07 9.64028e-05 0.112656)
(2.34392e-05 4.90052e-06 0.112209)
(-2.22925e-05 3.92862e-05 0.112185)
(-3.32046e-05 5.70994e-05 0.112285)
(-2.05966e-05 6.80854e-05 0.112312)
(-2.47248e-05 8.12041e-05 0.112236)
(-7.73849e-07 8.60533e-05 0.112154)
(0.00238116 -0.0116344 0.0165107)
(-0.000587894 0.00046837 0.0705169)
(0.000231137 0.000347071 0.088716)
(0.000133614 -0.000308919 0.112381)
(-9.90187e-05 -8.95758e-05 0.113532)
(-5.38364e-05 3.7581e-05 0.114231)
(6.82303e-05 6.14678e-05 0.113105)
(3.71507e-05 -5.08186e-05 0.112586)
(3.26024e-05 -3.22391e-05 0.112302)
(1.86142e-05 -7.64303e-05 0.112098)
(7.67974e-06 -7.28923e-05 0.11195)
(0.00417679 -0.00861828 0.0188617)
(-0.00140808 -0.000617575 0.0271185)
(-0.000401523 0.000396473 0.0737497)
(3.00133e-05 0.000369474 0.0876211)
(9.34464e-05 -0.000269034 0.112153)
(-0.000178873 -5.03977e-05 0.114016)
(-0.000128722 0.000140987 0.114724)
(-3.93288e-05 0.000114283 0.113443)
(-6.14584e-05 0.000152053 0.112529)
(3.84462e-06 0.000156888 0.112285)
(-0.00215686 0.00141649 0.0296276)
(-0.00447177 0.000428248 0.0268339)
(-0.000391365 0.000335804 0.0720688)
(0.000189566 0.000277002 0.0886163)
(0.000152078 -0.000386421 0.113423)
(3.64864e-05 -0.000102324 0.1161)
(5.59086e-05 -0.000222894 0.113254)
(1.0217e-05 -0.000186713 0.112808)
(-0.00252174 0.000425988 0.0166194)
(-0.00269704 0.0015792 0.031467)
(-0.00433783 -0.000176786 0.0269513)
(-0.000342975 0.000493609 0.07523)
(0.000115977 0.000170921 0.0937909)
(-9.37466e-05 0.000267417 0.0889196)
(3.56422e-05 0.000259091 0.0882659)
(-0.00230294 -0.00657645 0.0221052)
(0.00298177 -0.00668586 0.0250835)
(-0.00108381 0.00152469 0.0320742)
(0.000150921 0.00147921 0.0293404)
(-0.00497947 6.0954e-06 0.0217186)
(-0.000257858 -5.61889e-05 0.0882717)
(0.000183044 -1.31369e-06 0.112817)
(-0.000151742 -1.42366e-05 0.112293)
(7.29824e-05 -1.7378e-06 0.111954)
(-8.19501e-05 -4.59173e-06 0.112158)
(1.66572e-05 -2.23442e-06 0.112301)
(-4.55871e-05 -1.86996e-06 0.112376)
(-9.41494e-06 -1.93331e-06 0.112438)
(-3.11823e-05 -1.11783e-06 0.112491)
(-1.32526e-05 -1.32045e-06 0.112543)
(-2.07765e-05 -9.56257e-07 0.112595)
(-8.9711e-06 -7.7989e-07 0.112646)
(-1.03817e-05 -5.83859e-07 0.112694)
(-7.49141e-07 -1.8722e-07 0.112726)
(-0.00467327 -0.000710726 0.0197411)
(-0.000248174 7.96461e-05 0.088928)
(0.000237854 -6.47011e-05 0.113269)
(-0.000147152 4.88134e-05 0.112542)
(8.46767e-05 -2.45916e-05 0.112105)
(-8.03503e-05 1.84507e-05 0.112241)
(2.06863e-05 -5.63921e-06 0.112332)
(-4.45199e-05 6.91568e-06 0.112378)
(-8.30095e-06 1.13118e-06 0.112429)
(-3.01871e-05 5.21873e-06 0.112479)
(-1.30712e-05 4.61016e-06 0.112529)
(-2.01172e-05 6.83465e-06 0.11258)
(-8.62208e-06 7.48257e-06 0.112628)
(-1.0054e-05 8.44797e-06 0.112669)
(-4.30516e-07 8.90756e-06 0.112694)
(-0.00127428 -0.00149937 0.0104419)
(-0.00016608 -0.000106142 0.0938019)
(0.000104065 -4.10712e-05 0.116114)
(-0.000105802 4.1442e-05 0.113457)
(3.87558e-05 -3.65854e-05 0.11231)
(-6.13994e-05 1.76161e-05 0.112319)
(4.80136e-06 -1.18629e-05 0.112359)
(-3.8696e-05 7.324e-06 0.112375)
(-1.11445e-05 -9.10102e-07 0.112409)
(-2.7684e-05 6.32378e-06 0.112453)
(-1.16308e-05 4.50711e-06 0.112502)
(-1.79002e-05 7.37355e-06 0.112551)
(-7.3553e-06 7.0426e-06 0.112595)
(-8.95525e-06 7.88477e-06 0.112629)
(-6.6555e-08 7.84022e-06 0.112646)
(-0.000486299 0.000341775 0.0752378)
(0.000392071 -0.000150063 0.113435)
(-0.000135302 0.000127453 0.114735)
(5.39883e-05 -4.27987e-05 0.112595)
(-5.56586e-05 2.85772e-05 0.112292)
(1.02712e-05 -9.45351e-06 0.112327)
(-3.34273e-05 1.17049e-05 0.112336)
(-9.3306e-06 4.16235e-06 0.112364)
(-2.47592e-05 1.30468e-05 0.112409)
(-1.20171e-05 1.23795e-05 0.11246)
(-1.75817e-05 1.62692e-05 0.11251)
(-8.10949e-06 1.71529e-05 0.112551)
(-9.25496e-06 1.8841e-05 0.11258)
(-4.69262e-07 1.93973e-05 0.112595)
(-0.0058883 0.00143304 0.0290437)
(-0.000275818 -0.000193022 0.0886242)
(5.17736e-05 0.000179641 0.114027)
(-5.81954e-05 -7.40048e-05 0.113115)
(-3.23657e-05 2.27493e-05 0.112194)
(-1.2317e-05 -1.49428e-05 0.112203)
(-2.48705e-05 1.02974e-05 0.112251)
(-9.75336e-06 5.60606e-07 0.112291)
(-1.94624e-05 1.03481e-05 0.112346)
(-8.3969e-06 8.75328e-06 0.112405)
(-1.3126e-05 1.17378e-05 0.112459)
(-4.78034e-06 1.15816e-05 0.112501)
(-6.71111e-06 1.213e-05 0.112529)
(4.84305e-07 1.20316e-05 0.112543)
(-0.00324433 0.000471035 0.0180609)
(-0.000335481 0.000392509 0.0720739)
(0.000272373 -9.21247e-05 0.112164)
(-3.44348e-05 5.6296e-05 0.114242)
(-1.86131e-06 -2.45011e-05 0.112217)
(-4.29054e-06 -2.69599e-06 0.112007)
(-1.7762e-05 7.35078e-06 0.112117)
(-9.17182e-06 9.1951e-06 0.112197)
(-1.65756e-05 1.64432e-05 0.112273)
(-1.06248e-05 1.93222e-05 0.112346)
(-1.47646e-05 2.41954e-05 0.112408)
(-7.71799e-06 2.68004e-05 0.112452)
(-8.80675e-06 2.93681e-05 0.112478)
(-5.89953e-07 3.03917e-05 0.112492)
(-0.00882007 0.00185136 0.0308966)
(-0.000368104 -2.91511e-05 0.0876364)
(9.05023e-05 9.70216e-05 0.113545)
(-9.27576e-05 -1.36118e-06 0.112664)
(1.41765e-05 -5.10262e-06 0.111821)
(-1.33555e-05 7.65686e-06 0.111933)
(-4.84634e-07 3.98934e-07 0.112087)
(-9.33709e-06 9.65454e-06 0.112197)
(-6.35908e-07 1.09527e-05 0.112289)
(-5.65487e-06 9.77306e-06 0.112363)
(3.85319e-07 1.04372e-05 0.112407)
(-3.13624e-06 7.79553e-06 0.112428)
(1.54718e-06 7.80149e-06 0.112438)
(-0.00451513 -0.000454573 0.0192898)
(-0.000395263 0.00040255 0.0737633)
(0.000310346 -0.000134002 0.112398)
(-4.03355e-05 3.30052e-06 0.113766)
(1.10481e-06 -5.52023e-05 0.111781)
(-1.416e-05 1.53197e-05 0.111682)
(-7.17326e-06 1.32638e-05 0.111935)
(-6.20308e-06 1.90985e-05 0.112117)
(-1.06139e-05 2.56167e-05 0.112248)
(-1.53336e-05 3.30986e-05 0.112334)
(-9.6648e-06 3.82442e-05 0.112372)
(-1.14033e-05 4.31862e-05 0.112377)
(-6.15907e-07 4.53611e-05 0.112375)
(-0.00602651 0.000611704 0.0313698)
(-0.000346857 -0.00023136 0.0887653)
(5.52873e-05 0.000288828 0.113566)
(2.3976e-05 -2.35201e-05 0.112631)
(5.51267e-05 -3.66325e-07 0.111784)
(5.17432e-06 -1.40857e-05 0.111821)
(3.37716e-06 4.97355e-06 0.112005)
(1.32002e-05 1.20816e-05 0.112199)
(6.75725e-06 -8.20455e-06 0.112323)
(1.0338e-05 -5.76503e-06 0.112355)
(3.86434e-06 -1.86945e-05 0.112329)
(3.79288e-06 -1.92596e-05 0.1123)
(-0.00422801 -0.00184819 0.0149365)
(-0.0004678 0.00058728 0.0705732)
(0.000567405 -0.000567903 0.112528)
(-0.000288265 -5.45464e-05 0.113561)
(-2.38982e-06 4.13634e-05 0.113763)
(1.80765e-06 9.42103e-05 0.112659)
(2.53126e-05 2.03641e-06 0.112212)
(-2.17079e-05 3.59011e-05 0.112187)
(-3.29503e-05 5.38408e-05 0.112287)
(-2.00377e-05 6.49938e-05 0.112313)
(-2.45634e-05 7.75312e-05 0.112238)
(-8.37458e-07 8.30165e-05 0.112156)
(0.00238126 -0.011635 0.0165107)
(-0.000587746 0.000469359 0.0705194)
(0.000231989 0.000347383 0.0887188)
(0.000134749 -0.000309982 0.112384)
(-9.76809e-05 -9.0666e-05 0.113535)
(-5.34899e-05 3.51519e-05 0.114234)
(7.0275e-05 5.83766e-05 0.113108)
(4.01332e-05 -5.3836e-05 0.112588)
(3.41026e-05 -3.61798e-05 0.112303)
(2.03147e-05 -8.01915e-05 0.112099)
(8.64698e-06 -7.66845e-05 0.111951)
(0.00417699 -0.00861848 0.0188625)
(-0.001408 -0.000617688 0.0271193)
(-0.000402071 0.000396536 0.0737524)
(2.99892e-05 0.000368786 0.087624)
(9.33065e-05 -0.000270722 0.112157)
(-0.000178956 -5.18417e-05 0.11402)
(-0.000129333 0.000137706 0.114727)
(-3.94764e-05 0.000111374 0.113447)
(-6.1116e-05 0.000148325 0.112533)
(3.70375e-06 0.000152783 0.112289)
(-0.00215698 0.00141682 0.0296285)
(-0.00447194 0.000428402 0.0268344)
(-0.000391114 0.000335913 0.0720712)
(0.000190107 0.000276455 0.088619)
(0.000153584 -0.000387557 0.113427)
(3.75011e-05 -0.000103099 0.116103)
(5.63845e-05 -0.000223985 0.113258)
(1.08216e-05 -0.000187902 0.112811)
(-0.00252177 0.000425986 0.0166199)
(-0.00269732 0.00157924 0.031468)
(-0.00433808 -0.00017723 0.0269518)
(-0.000343588 0.00049277 0.0752332)
(0.000115949 0.000169478 0.093795)
(-9.38202e-05 0.000266407 0.0889232)
(3.53246e-05 0.000258113 0.0882695)
(-0.00230304 -0.00657658 0.022106)
(0.00298232 -0.00668566 0.0250842)
(-0.00108383 0.00152481 0.0320749)
(0.000151064 0.00147957 0.0293409)
(-0.00497892 3.39706e-06 0.0217182)
(-0.000256441 -5.36913e-05 0.0882734)
(0.000184736 -2.17896e-06 0.112822)
(-0.00014886 -1.32291e-05 0.112297)
(7.58597e-05 -2.07121e-06 0.111956)
(-7.94954e-05 -4.14719e-06 0.11216)
(2.24043e-05 -2.19936e-06 0.112301)
(-4.20751e-05 -2.07499e-06 0.112374)
(-3.43609e-06 -2.18179e-06 0.112435)
(-2.6638e-05 -1.43174e-06 0.112488)
(-8.98193e-06 -1.59251e-06 0.112538)
(-1.71617e-05 -1.21458e-06 0.11259)
(-6.39601e-06 -1.19347e-06 0.11264)
(-8.79598e-06 -1.05534e-06 0.112688)
(-3.01858e-07 -5.98613e-07 0.11272)
(-0.00467513 -0.000708986 0.0197441)
(-0.000251954 8.15302e-05 0.0889397)
(0.000235438 -6.46216e-05 0.113274)
(-0.000144115 4.93688e-05 0.112548)
(8.71243e-05 -2.58846e-05 0.112106)
(-7.73318e-05 1.88203e-05 0.112244)
(2.57822e-05 -6.96198e-06 0.112332)
(-4.13003e-05 6.79865e-06 0.112376)
(-2.36488e-06 2.59923e-07 0.112426)
(-2.55816e-05 4.33788e-06 0.112475)
(-8.77411e-06 3.30549e-06 0.112524)
(-1.66951e-05 5.16834e-06 0.112575)
(-6.2389e-06 5.71599e-06 0.112623)
(-8.4489e-06 6.66975e-06 0.112664)
(7.24418e-08 7.1322e-06 0.112688)
(-0.00127441 -0.00150038 0.0104426)
(-0.000167168 -0.000107869 0.0938095)
(0.00010337 -4.18813e-05 0.116123)
(-0.000104487 4.12501e-05 0.113463)
(4.1422e-05 -3.79693e-05 0.112313)
(-5.89399e-05 1.71554e-05 0.112322)
(1.00513e-05 -1.36591e-05 0.11236)
(-3.47265e-05 6.24928e-06 0.112374)
(-5.93067e-06 -2.68903e-06 0.112407)
(-2.35737e-05 4.45989e-06 0.112451)
(-8.14603e-06 2.39e-06 0.112498)
(-1.47475e-05 5.04016e-06 0.112547)
(-4.89209e-06 4.6879e-06 0.11259)
(-7.37827e-06 5.48004e-06 0.112623)
(3.81255e-07 5.39851e-06 0.11264)
(-0.000487332 0.000342458 0.0752431)
(0.000391661 -0.000151817 0.11344)
(-0.000132862 0.000127692 0.11474)
(5.6093e-05 -4.51792e-05 0.112597)
(-5.30373e-05 2.8432e-05 0.112295)
(1.47449e-05 -1.17008e-05 0.112328)
(-3.01863e-05 1.03391e-05 0.112335)
(-4.18563e-06 1.8196e-06 0.112362)
(-2.04938e-05 9.98962e-06 0.112407)
(-8.19001e-06 9.34318e-06 0.112456)
(-1.43968e-05 1.31185e-05 0.112506)
(-5.79763e-06 1.38284e-05 0.112547)
(-7.73735e-06 1.53261e-05 0.112576)
(-1.51035e-08 1.58924e-05 0.11259)
(-0.00588847 0.00143305 0.0290445)
(-0.0002759 -0.000193006 0.0886276)
(5.25623e-05 0.000179644 0.114032)
(-5.59635e-05 -7.57248e-05 0.113119)
(-2.97939e-05 2.22186e-05 0.112196)
(-8.29386e-06 -1.77728e-05 0.112205)
(-2.10012e-05 8.65619e-06 0.112251)
(-6.23092e-06 -2.21538e-06 0.11229)
(-1.60484e-05 7.27e-06 0.112345)
(-5.00631e-06 5.3821e-06 0.112402)
(-1.0262e-05 8.01374e-06 0.112455)
(-2.6815e-06 7.55759e-06 0.112497)
(-5.31472e-06 7.97426e-06 0.112524)
(9.51674e-07 7.80513e-06 0.112538)
(-0.00324446 0.000470998 0.0180614)
(-0.000335814 0.00039257 0.0720764)
(0.000273214 -9.24434e-05 0.112168)
(-3.2841e-05 5.58338e-05 0.114244)
(-3.68567e-07 -2.64619e-05 0.11222)
(-9.3324e-07 -4.25255e-06 0.112007)
(-1.44739e-05 4.22127e-06 0.112117)
(-5.46922e-06 6.42877e-06 0.112196)
(-1.29068e-05 1.30504e-05 0.112272)
(-7.44317e-06 1.54275e-05 0.112343)
(-1.22318e-05 2.00673e-05 0.112405)
(-5.83731e-06 2.22881e-05 0.112449)
(-7.49134e-06 2.48027e-05 0.112475)
(-2.04087e-07 2.57293e-05 0.112488)
(-0.00881999 0.00185148 0.0308972)
(-0.000368124 -2.93535e-05 0.0876391)
(9.11113e-05 9.57272e-05 0.113548)
(-9.12788e-05 -2.5243e-06 0.112667)
(1.70272e-05 -6.86054e-06 0.111822)
(-1.06987e-05 4.95743e-06 0.111935)
(2.77477e-06 -2.92321e-06 0.112088)
(-7.05123e-06 5.97368e-06 0.112197)
(2.02093e-06 6.46423e-06 0.112288)
(-3.40491e-06 4.58915e-06 0.112361)
(2.04893e-06 4.74677e-06 0.112405)
(-1.88859e-06 1.71869e-06 0.112426)
(1.98458e-06 1.52225e-06 0.112435)
(-0.00451511 -0.000454574 0.0192902)
(-0.000395348 0.000402684 0.0737656)
(0.000311157 -0.000135334 0.112401)
(-3.9294e-05 2.62807e-06 0.113768)
(2.91868e-06 -5.74617e-05 0.111783)
(-1.24434e-05 1.35286e-05 0.111683)
(-4.45057e-06 1.0345e-05 0.111936)
(-3.69905e-06 1.59112e-05 0.112117)
(-8.93081e-06 2.17543e-05 0.112247)
(-1.40003e-05 2.97897e-05 0.112333)
(-8.67583e-06 3.46226e-05 0.11237)
(-1.06754e-05 3.99181e-05 0.112375)
(-4.33837e-07 4.2036e-05 0.112373)
(-0.00602673 0.000611678 0.0313703)
(-0.000346541 -0.000232196 0.0887673)
(5.59033e-05 0.000287562 0.113568)
(2.57017e-05 -2.52466e-05 0.112633)
(5.71205e-05 -2.38708e-06 0.111786)
(7.0431e-06 -1.70815e-05 0.111822)
(4.72695e-06 1.41246e-06 0.112006)
(1.57429e-05 7.9857e-06 0.1122)
(9.25456e-06 -1.29273e-05 0.112324)
(1.20384e-05 -1.09604e-05 0.112356)
(5.40195e-06 -2.39668e-05 0.112329)
(4.12237e-06 -2.50885e-05 0.1123)
(-0.00422812 -0.00184823 0.0149368)
(-0.00046766 0.000586893 0.070575)
(0.000567738 -0.000568313 0.112531)
(-0.000287207 -5.52502e-05 0.113564)
(-1.95967e-06 3.99871e-05 0.113766)
(2.97933e-06 9.25971e-05 0.112661)
(2.67224e-05 2.16464e-08 0.112214)
(-2.11779e-05 3.32883e-05 0.112188)
(-3.2707e-05 5.09344e-05 0.112289)
(-1.9589e-05 6.24136e-05 0.112315)
(-2.44586e-05 7.44606e-05 0.112239)
(-1.16722e-06 8.0203e-05 0.112157)
(0.0023816 -0.0116353 0.0165105)
(-0.000587646 0.000469577 0.0705214)
(0.000232693 0.000347144 0.0887209)
(0.0001358 -0.000311054 0.112387)
(-9.65038e-05 -9.15483e-05 0.113537)
(-5.31612e-05 3.32105e-05 0.114236)
(7.19312e-05 5.62067e-05 0.11311)
(4.26723e-05 -5.63025e-05 0.11259)
(3.5616e-05 -3.91688e-05 0.112305)
(2.1585e-05 -8.31634e-05 0.1121)
(9.20124e-06 -7.97165e-05 0.111952)
(0.00417704 -0.0086188 0.0188625)
(-0.00140773 -0.000617631 0.0271191)
(-0.000402299 0.000396151 0.0737544)
(3.01574e-05 0.000368109 0.0876262)
(9.33708e-05 -0.000272023 0.11216)
(-0.000179017 -5.29204e-05 0.114023)
(-0.000129923 0.000135199 0.114731)
(-3.95063e-05 0.000108956 0.11345)
(-6.1036e-05 0.000144641 0.112536)
(3.28221e-06 0.000149259 0.112292)
(-0.00215702 0.00141704 0.0296289)
(-0.00447185 0.000428309 0.0268347)
(-0.000390854 0.000335989 0.0720731)
(0.000190586 0.000276076 0.0886212)
(0.000154768 -0.000388422 0.11343)
(3.78179e-05 -0.00010365 0.116106)
(5.65427e-05 -0.000225087 0.11326)
(1.15182e-05 -0.00018893 0.112813)
(-0.00252187 0.000426058 0.0166202)
(-0.00269732 0.00157909 0.0314686)
(-0.00433837 -0.000177566 0.0269524)
(-0.000344199 0.000492095 0.0752358)
(0.000115811 0.000168325 0.0937983)
(-9.40535e-05 0.000265838 0.0889262)
(3.49659e-05 0.000257029 0.0882722)
(-0.00230294 -0.00657665 0.0221064)
(0.00298262 -0.00668545 0.0250847)
(-0.00108383 0.001525 0.0320756)
(0.000151158 0.00147975 0.0293414)
(-0.00497828 1.25305e-06 0.0217218)
(-0.000255892 -5.00917e-05 0.0882761)
(0.000186616 -4.43644e-06 0.112826)
(-0.000147228 -1.16833e-05 0.1123)
(7.84033e-05 -3.11045e-06 0.111957)
(-7.74734e-05 -3.66099e-06 0.112161)
(2.67059e-05 -2.34967e-06 0.112301)
(-4.00405e-05 -2.16837e-06 0.112373)
(1.80101e-06 -2.37332e-06 0.112433)
(-2.289e-05 -1.66057e-06 0.112485)
(-5.71998e-06 -1.81207e-06 0.112534)
(-1.41365e-05 -1.3766e-06 0.112586)
(-4.21351e-06 -1.40707e-06 0.112635)
(-7.25916e-06 -1.30334e-06 0.112683)
(4.65735e-07 -1.17146e-06 0.112715)
(-0.00467755 -0.000707507 0.0197453)
(-0.00025706 8.38575e-05 0.0889475)
(0.00023214 -6.39483e-05 0.113278)
(-0.000141166 5.05731e-05 0.112553)
(8.86718e-05 -2.68139e-05 0.112107)
(-7.41533e-05 1.91365e-05 0.112246)
(2.94676e-05 -8.03629e-06 0.112332)
(-3.92828e-05 6.71828e-06 0.112375)
(2.77072e-06 -3.72539e-07 0.112424)
(-2.18564e-05 3.86034e-06 0.112472)
(-5.3689e-06 2.68117e-06 0.11252)
(-1.3658e-05 4.22788e-06 0.112571)
(-4.15272e-06 4.49172e-06 0.112618)
(-7.06407e-06 5.1485e-06 0.112659)
(4.52124e-07 5.49854e-06 0.112683)
(-0.00127461 -0.00150158 0.0104431)
(-0.000167526 -0.000110656 0.093815)
(0.000103222 -4.10799e-05 0.116129)
(-0.000104564 4.11534e-05 0.113468)
(4.30752e-05 -3.86119e-05 0.112315)
(-5.7035e-05 1.70268e-05 0.112323)
(1.39489e-05 -1.51964e-05 0.11236)
(-3.2244e-05 5.47457e-06 0.112373)
(-1.09194e-06 -4.06376e-06 0.112405)
(-1.98187e-05 2.93887e-06 0.112449)
(-5.34699e-06 7.47061e-07 0.112495)
(-1.23223e-05 3.2744e-06 0.112545)
(-3.29017e-06 2.7883e-06 0.112587)
(-6.25096e-06 3.43931e-06 0.11262)
(7.7018e-07 3.49295e-06 0.112637)
(-0.000488333 0.000343418 0.075247)
(0.000391472 -0.000154294 0.113443)
(-0.000131439 0.000127883 0.114744)
(5.75295e-05 -4.71628e-05 0.112599)
(-5.07436e-05 2.85238e-05 0.112298)
(1.77777e-05 -1.34351e-05 0.112328)
(-2.80019e-05 9.67397e-06 0.112334)
(2.02413e-07 1.70895e-07 0.112361)
(-1.70393e-05 7.68113e-06 0.112404)
(-5.03034e-06 6.66075e-06 0.112453)
(-1.16165e-05 1.01477e-05 0.112503)
(-3.98638e-06 1.07815e-05 0.112543)
(-6.35907e-06 1.2244e-05 0.112572)
(4.56739e-07 1.28981e-05 0.112586)
(-0.00588867 0.00143374 0.0290447)
(-0.000276185 -0.000193322 0.0886301)
(5.28602e-05 0.00017925 0.114035)
(-5.44713e-05 -7.69981e-05 0.113121)
(-2.76496e-05 2.16586e-05 0.112198)
(-5.15748e-06 -2.03399e-05 0.112206)
(-1.84352e-05 7.29479e-06 0.112251)
(-3.0349e-06 -4.52689e-06 0.11229)
(-1.33295e-05 4.72821e-06 0.112345)
(-2.86918e-06 2.56991e-06 0.112401)
(-8.20083e-06 4.80873e-06 0.112454)
(-1.19081e-06 4.1516e-06 0.112494)
(-4.1348e-06 4.45874e-06 0.112522)
(1.40737e-06 4.20131e-06 0.112535)
(-0.00324443 0.000471014 0.0180617)
(-0.000336226 0.000391976 0.0720781)
(0.000273715 -9.31562e-05 0.112171)
(-3.15881e-05 5.51068e-05 0.114246)
(6.19514e-07 -2.80133e-05 0.112222)
(1.29504e-06 -5.71768e-06 0.112008)
(-1.20402e-05 2.05694e-06 0.112117)
(-2.2657e-06 4.47524e-06 0.112195)
(-9.95491e-06 9.86352e-06 0.11227)
(-4.94689e-06 1.22438e-05 0.112341)
(-1.00447e-05 1.68193e-05 0.112403)
(-4.33627e-06 1.87431e-05 0.112446)
(-6.31082e-06 2.13853e-05 0.112472)
(2.20413e-07 2.2133e-05 0.112485)
(-0.00881996 0.00185162 0.0308975)
(-0.00036775 -2.98375e-05 0.0876412)
(9.18026e-05 9.46538e-05 0.113549)
(-8.98839e-05 -3.58948e-06 0.112669)
(1.95457e-05 -7.95145e-06 0.111824)
(-8.62116e-06 2.93791e-06 0.111937)
(4.94961e-06 -5.17956e-06 0.112088)
(-5.56228e-06 2.79795e-06 0.112197)
(4.09912e-06 2.68108e-06 0.112288)
(-1.70167e-06 3.6414e-07 0.11236)
(3.37203e-06 -6.54383e-08 0.112404)
(-7.59092e-07 -3.29472e-06 0.112425)
(2.2242e-06 -3.83581e-06 0.112434)
(-0.00451519 -0.000454627 0.0192903)
(-0.00039484 0.000402105 0.0737671)
(0.000312073 -0.000136481 0.112403)
(-3.83303e-05 1.86798e-06 0.11377)
(4.18105e-06 -5.95426e-05 0.111785)
(-1.11814e-05 1.18117e-05 0.111684)