/*--------------------------------*- C++ -*----------------------------------*\
| =========                 |                                                 |
| \\      /  F ield         | OpenFOAM: The Open Source CFD Toolbox           |
|  \\    /   O peration     | Version:  2.1.1                                 |
|   \\  /    A nd           | Web:      www.OpenFOAM.org                      |
|    \\/     M anipulation  |                                                 |
\*---------------------------------------------------------------------------*/
FoamFile
{
    version     2.0;
    format      ascii;
    class       volScalarField;
    location    "0.13";
    object      p;
}
// * * * * * * * * * * * * * * * * * * * * * * * * * * * * * * * * * * * * * //

dimensions      [0 2 -2 0 0 0 0];

internalField   nonuniform List<scalar> 
163952
(
0.0416784
0.0411021
0.036366
0.0311713
0.0299745
0.0273632
0.0267731
0.0264494
0.0366861
0.032344
0.0273025
0.0248128
0.0235692
0.0227903
0.022476
0.0223348
0.0337172
0.0279804
0.0244767
0.022837
0.0219245
0.0213866
0.021048
0.0208677
0.0207822
0.033587
0.0260882
0.0232538
0.0219073
0.021152
0.0206732
0.0203537
0.0201421
0.0200159
0.0199524
0.0335883
0.0255462
0.0227296
0.0214514
0.0207366
0.0202728
0.0199489
0.0197181
0.0195586
0.0194581
0.0194057
0.0337175
0.0260883
0.0227296
0.0213079
0.0205453
0.0200566
0.0197112
0.0194572
0.0192706
0.0191386
0.0190531
0.0190077
0.0366858
0.0279804
0.0232538
0.0214514
0.0205454
0.019987
0.0195987
0.0193121
0.0190964
0.0189359
0.018821
0.0187455
0.018705
0.0323441
0.0244767
0.0219073
0.0207366
0.0200566
0.0195987
0.0192652
0.0190135
0.0188222
0.0186789
0.0185758
0.0185076
0.0184708
0.0363661
0.0273026
0.0228371
0.021152
0.0202729
0.0197112
0.0193121
0.0190135
0.0187854
0.0186111
0.0184801
0.0183854
0.0183226
0.0182885
0.0311714
0.0248129
0.0219246
0.0206733
0.0199489
0.0194573
0.0190965
0.0188222
0.0186112
0.0184492
0.018327
0.0182384
0.0181794
0.0181475
0.0299747
0.0235693
0.0213867
0.0203538
0.0197181
0.0192707
0.0189359
0.0186789
0.0184801
0.018327
0.0182111
0.018127
0.0180708
0.0180404
0.0273633
0.0227904
0.0210481
0.0201421
0.0195587
0.0191387
0.018821
0.0185758
0.0183855
0.0182384
0.018127
0.0180459
0.0179918
0.0179623
0.0416785
0.0267732
0.0224761
0.0208678
0.020016
0.0194581
0.0190531
0.0187456
0.0185076
0.0183226
0.0181795
0.0180709
0.0179918
0.0179389
0.0179101
0.0411022
0.0264495
0.0223349
0.0207823
0.0199525
0.0194058
0.0190077
0.0187051
0.0184709
0.0182886
0.0181475
0.0180404
0.0179624
0.0179102
0.0178818
0.0235044
0.0235612
0.0224991
0.0237083
0.0224394
0.0221253
0.0220805
0.0220597
0.0226038
0.0244178
0.022105
0.0217928
0.0215322
0.0213414
0.0212667
0.021215
0.023382
0.0221568
0.0217389
0.021327
0.0209863
0.0207076
0.0205229
0.0204268
0.0203774
0.0221264
0.0218361
0.0213988
0.0209576
0.0205649
0.0202537
0.0200175
0.0198579
0.0197657
0.0197214
0.0221271
0.0217068
0.0212147
0.0207109
0.0202839
0.0199414
0.0196819
0.0194907
0.0193589
0.0192787
0.0192402
0.0233822
0.0218363
0.0212147
0.0206308
0.020142
0.019764
0.0194749
0.019257
0.0190963
0.018984
0.0189137
0.0188797
0.022604
0.0221569
0.0213989
0.0207109
0.020142
0.0197054
0.019376
0.0191257
0.0189363
0.018796
0.018697
0.0186342
0.0186036
0.0244178
0.021739
0.0209577
0.0202839
0.0197641
0.019376
0.0190832
0.01886
0.0186905
0.0185643
0.0184747
0.0184173
0.0183893
0.0224992
0.0221051
0.0213271
0.020565
0.0199415
0.0194749
0.0191257
0.01886
0.0186564
0.0185009
0.0183846
0.0183017
0.0182484
0.0182224
0.0237084
0.0217929
0.0209863
0.0202538
0.019682
0.0192571
0.0189364
0.0186905
0.0185009
0.0183554
0.0182463
0.0181682
0.0181179
0.0180933
0.0224395
0.0215323
0.0207077
0.0200176
0.0194908
0.0190963
0.018796
0.0185643
0.0183846
0.0182463
0.0181422
0.0180676
0.0180195
0.0179959
0.0221254
0.0213415
0.020523
0.0198579
0.019359
0.018984
0.0186971
0.0184747
0.0183017
0.0181682
0.0180676
0.0179954
0.0179488
0.0179259
0.0235045
0.0220806
0.0212668
0.0204269
0.0197658
0.0192788
0.0189137
0.0186342
0.0184174
0.0182485
0.018118
0.0180195
0.0179488
0.0179031
0.0178806
0.0235613
0.0220598
0.0212151
0.0203775
0.0197215
0.0192402
0.0188798
0.0186037
0.0183894
0.0182224
0.0180933
0.0179959
0.0179259
0.0178807
0.0178584
0.0198607
0.0198751
0.0199398
0.0203217
0.0205453
0.0204296
0.0203221
0.0202816
0.0199466
0.0207905
0.0203404
0.0202624
0.0201676
0.0201288
0.0200994
0.0200741
0.020157
0.0203542
0.0202538
0.0201333
0.0199966
0.0198522
0.0197609
0.0197058
0.0196755
0.0205041
0.0202872
0.0201621
0.0199823
0.0197903
0.0196245
0.0194847
0.0193847
0.0193224
0.0192912
0.0205049
0.020242
0.0200891
0.0198675
0.0196426
0.0194401
0.019274
0.0191427
0.0190481
0.0189881
0.0189586
0.020157
0.0202874
0.0200891
0.0198296
0.0195638
0.0193303
0.0191339
0.0189756
0.018853
0.0187645
0.0187079
0.0186802
0.0199467
0.0203543
0.0201623
0.0198676
0.0195638
0.0192928
0.0190646
0.0188773
0.0187283
0.0186139
0.0185314
0.0184782
0.0184521
0.0207906
0.0202539
0.0199824
0.0196427
0.0193303
0.0190646
0.0188449
0.0186672
0.0185268
0.0184196
0.0183422
0.0182921
0.0182675
0.0199399
0.0203405
0.0201334
0.0197904
0.0194401
0.0191339
0.0188773
0.0186672
0.0184983
0.0183654
0.0182639
0.0181907
0.0181432
0.0181198
0.0203218
0.0202625
0.0199967
0.0196246
0.019274
0.0189757
0.0187283
0.0185269
0.0183654
0.0182384
0.0181415
0.0180714
0.0180259
0.0180036
0.0205454
0.0201677
0.0198523
0.0194848
0.0191428
0.018853
0.0186139
0.0184196
0.0182639
0.0181415
0.018048
0.0179803
0.0179364
0.0179148
0.0204297
0.0201289
0.019761
0.0193848
0.0190482
0.0187646
0.0185314
0.0183422
0.0181907
0.0180714
0.0179804
0.0179145
0.0178716
0.0178505
0.0198608
0.0203222
0.0200996
0.0197059
0.0193225
0.0189882
0.018708
0.0184782
0.0182922
0.0181432
0.018026
0.0179364
0.0178716
0.0178295
0.0178088
0.0198752
0.0202817
0.0200742
0.0196756
0.0192913
0.0189587
0.0186802
0.0184522
0.0182676
0.0181199
0.0180036
0.0179148
0.0178505
0.0178088
0.0177882
0.0185135
0.0185239
0.0186306
0.0188577
0.0191886
0.0191882
0.0191358
0.0191138
0.0186455
0.0190715
0.0191115
0.019099
0.0190698
0.0190712
0.01907
0.0190665
0.0187864
0.0191154
0.0191029
0.0190959
0.0190672
0.0190155
0.0189797
0.0189544
0.0189401
0.0192188
0.0191187
0.0191127
0.0190625
0.0189964
0.0189322
0.0188694
0.0188196
0.018785
0.0187667
0.0192194
0.0190991
0.0190941
0.0190311
0.0189417
0.0188483
0.0187626
0.0186881
0.018631
0.0185929
0.0185735
0.0187865
0.0191189
0.019094
0.0190198
0.0189111
0.018795
0.0186847
0.0185877
0.0185074
0.0184469
0.0184069
0.018387
0.0186457
0.0191155
0.0191128
0.0190311
0.0189111
0.0187763
0.0186444
0.0185249
0.0184232
0.0183412
0.0182801
0.0182398
0.0182198
0.0190716
0.019103
0.0190626
0.0189417
0.018795
0.0186444
0.0185038
0.0183805
0.0182776
0.018196
0.0181355
0.0180957
0.018076
0.0186307
0.0191116
0.019096
0.0189965
0.0188484
0.0186848
0.0185249
0.0183805
0.0182564
0.0181542
0.0180737
0.0180144
0.0179753
0.017956
0.0188578
0.0190991
0.0190673
0.0189323
0.0187627
0.0185878
0.0184232
0.0182776
0.0181542
0.0180533
0.0179742
0.017916
0.0178778
0.0178589
0.0191887
0.0190699
0.0190156
0.0188695
0.0186882
0.0185074
0.0183412
0.018196
0.0180738
0.0179742
0.0178965
0.0178393
0.0178018
0.0177832
0.0191884
0.0190714
0.0189799
0.0188197
0.0186311
0.018447
0.0182801
0.0181356
0.0180144
0.0179161
0.0178393
0.017783
0.017746
0.0177277
0.0185136
0.0191359
0.0190702
0.0189545
0.0187851
0.018593
0.018407
0.0182399
0.0180958
0.0179754
0.0178778
0.0178018
0.017746
0.0177094
0.0176913
0.018524
0.0191139
0.0190666
0.0189403
0.0187668
0.0185736
0.018387
0.0182198
0.018076
0.0179561
0.0178589
0.0177833
0.0177277
0.0176913
0.0176733
0.0177955
0.0178037
0.0178565
0.0180051
0.0182216
0.0182651
0.0182554
0.0182539
0.0178815
0.0181139
0.0182218
0.0182408
0.0182463
0.0182587
0.0182669
0.0182715
0.0179713
0.0182232
0.0182494
0.0182825
0.018301
0.0183005
0.0182975
0.0182914
0.0182872
0.0182557
0.0182452
0.0182891
0.0183025
0.0183027
0.0182952
0.0182799
0.0182638
0.0182501
0.0182422
0.0182561
0.0182399
0.018296
0.0183115
0.018299
0.0182739
0.0182425
0.0182097
0.0181819
0.0181619
0.0181514
0.0179714
0.0182453
0.0182959
0.0183141
0.0182961
0.0182571
0.0182094
0.0181607
0.0181161
0.0180805
0.0180559
0.0180433
0.0178816
0.0182233
0.0182892
0.0183115
0.0182962
0.018251
0.0181908
0.018127
0.018067
0.0180154
0.0179751
0.0179478
0.017934
0.018114
0.0182495
0.0183026
0.0182991
0.0182571
0.0181908
0.0181152
0.0180409
0.0179741
0.0179183
0.0178756
0.0178468
0.0178323
0.0178566
0.0182219
0.0182827
0.0183028
0.018274
0.0182095
0.018127
0.0180409
0.01796
0.0178892
0.0178312
0.0177871
0.0177576
0.0177428
0.0180052
0.018241
0.0183011
0.0182953
0.0182426
0.0181607
0.0180671
0.0179741
0.0178893
0.0178162
0.017757
0.0177123
0.0176825
0.0176676
0.0182217
0.0182464
0.0183006
0.01828
0.0182098
0.0181162
0.0180154
0.0179184
0.0178312
0.017757
0.0176972
0.0176523
0.0176224
0.0176075
0.0182652
0.0182588
0.0182976
0.0182639
0.018182
0.0180806
0.0179752
0.0178756
0.0177871
0.0177123
0.0176523
0.0176073
0.0175774
0.0175625
0.0177956
0.0182556
0.0182671
0.0182916
0.0182502
0.018162
0.018056
0.0179479
0.0178469
0.0177576
0.0176825
0.0176224
0.0175774
0.0175476
0.0175327
0.0178038
0.018254
0.0182716
0.0182873
0.0182423
0.0181515
0.0180434
0.0179341
0.0178324
0.0177429
0.0176677
0.0176075
0.0175625
0.0175327
0.0175178
0.0172853
0.017292
0.0173045
0.0173974
0.0175226
0.0175729
0.0175781
0.0175841
0.0173267
0.0174707
0.0175526
0.0175836
0.017605
0.0176243
0.017635
0.017641
0.0173816
0.0175531
0.0175946
0.0176387
0.0176726
0.0176933
0.0177072
0.0177129
0.0177148
0.0175536
0.0175804
0.0176386
0.0176772
0.0177064
0.0177262
0.0177364
0.0177407
0.017741
0.0177403
0.0175539
0.0175847
0.0176554
0.0177014
0.0177269
0.0177398
0.0177422
0.0177376
0.0177308
0.0177246
0.0177209
0.0173817
0.0175806
0.0176553
0.0177099
0.0177376
0.0177449
0.0177391
0.0177254
0.0177085
0.0176929
0.0176811
0.0176748
0.0173268
0.0175532
0.0176387
0.0177014
0.0177376
0.0177464
0.0177357
0.0177138
0.0176873
0.0176612
0.0176392
0.0176235
0.0176154
0.0174708
0.0175947
0.0176773
0.017727
0.0177449
0.0177357
0.0177093
0.0176749
0.0176391
0.0176065
0.0175801
0.0175617
0.0175523
0.0173047
0.0175528
0.0176388
0.0177065
0.0177399
0.0177392
0.0177138
0.0176749
0.0176312
0.0175889
0.0175519
0.0175226
0.0175024
0.0174922
0.0173975
0.0175838
0.0176728
0.0177263
0.0177423
0.0177255
0.0176874
0.0176391
0.0175889
0.0175422
0.0175022
0.017471
0.0174497
0.017439
0.0175228
0.0176051
0.0176934
0.0177365
0.0177377
0.0177086
0.0176613
0.0176065
0.0175519
0.0175022
0.0174603
0.0174279
0.0174059
0.0173948
0.0175731
0.0176245
0.0177074
0.0177409
0.017731
0.017693
0.0176393
0.0175802
0.0175226
0.017471
0.0174279
0.0173948
0.0173723
0.017361
0.0172855
0.0175782
0.0176351
0.0177131
0.0177411
0.0177247
0.0176812
0.0176236
0.0175618
0.0175025
0.0174498
0.0174059
0.0173723
0.0173497
0.0173383
0.0172922
0.0175843
0.0176411
0.0177149
0.0177404
0.017721
0.0176749
0.0176154
0.0175524
0.0174923
0.017439
0.0173949
0.0173611
0.0173383
0.0173268
0.0168518
0.0168594
0.0168522
0.0169119
0.0169788
0.0170248
0.017034
0.0170418
0.0168701
0.0169713
0.0170186
0.0170499
0.0170751
0.017098
0.0171101
0.0171169
0.0169045
0.0170187
0.0170622
0.0171063
0.0171427
0.0171695
0.0171903
0.017202
0.0172074
0.0170058
0.0170443
0.0171029
0.0171486
0.0171879
0.0172193
0.0172418
0.0172572
0.0172657
0.0172695
0.017006
0.0170519
0.0171214
0.0171765
0.0172185
0.0172507
0.0172724
0.0172854
0.0172927
0.017296
0.0172972
0.0169046
0.0170444
0.0171213
0.0171865
0.0172349
0.0172679
0.0172882
0.0172981
0.017301
0.0173004
0.0172985
0.0172972
0.0168703
0.0170188
0.017103
0.0171765
0.0172349
0.0172737
0.0172946
0.0173022
0.0173008
0.0172947
0.0172874
0.0172813
0.017278
0.0169715
0.0170624
0.0171487
0.0172186
0.017268
0.0172947
0.017303
0.0172989
0.0172879
0.0172746
0.0172623
0.017253
0.017248
0.0168523
0.0170187
0.0171064
0.017188
0.0172508
0.0172883
0.0173022
0.0172989
0.0172852
0.0172668
0.0172481
0.017232
0.0172204
0.0172143
0.0169121
0.0170501
0.0171429
0.0172194
0.0172725
0.0172982
0.0173008
0.017288
0.0172668
0.017243
0.0172204
0.0172016
0.0171883
0.0171815
0.016979
0.0170753
0.0171697
0.017242
0.0172856
0.0173011
0.0172948
0.0172747
0.0172482
0.0172204
0.017195
0.0171744
0.01716
0.0171526
0.017025
0.0170981
0.0171905
0.0172574
0.0172928
0.0173005
0.0172875
0.0172623
0.017232
0.0172016
0.0171744
0.0171526
0.0171374
0.0171296
0.016852
0.0170342
0.0171103
0.0172022
0.0172659
0.0172961
0.0172987
0.0172814
0.0172531
0.0172204
0.0171884
0.01716
0.0171374
0.0171218
0.0171138
0.0168596
0.017042
0.017117
0.0172075
0.0172696
0.0172973
0.0172973
0.0172781
0.0172481
0.0172144
0.0171815
0.0171526
0.0171297
0.0171138
0.0171057
0.0164617
0.0164698
0.0164588
0.0164979
0.0165299
0.0165682
0.016578
0.0165857
0.0164721
0.0165493
0.0165707
0.0165982
0.0166218
0.0166445
0.016657
0.016664
0.0164951
0.0165707
0.0166108
0.0166509
0.0166851
0.0167119
0.016734
0.0167479
0.0167547
0.0165526
0.0165923
0.0166462
0.0166914
0.0167321
0.0167669
0.0167942
0.0168146
0.0168273
0.0168334
0.0165528
0.0166
0.0166632
0.0167183
0.0167656
0.0168058
0.0168373
0.0168601
0.0168758
0.0168851
0.0168895
0.0164952
0.0165924
0.0166632
0.0167281
0.0167836
0.0168289
0.0168637
0.0168881
0.016904
0.0169137
0.0169189
0.0169212
0.0164723
0.0165708
0.0166463
0.0167184
0.0167836
0.0168367
0.016876
0.0169024
0.0169183
0.0169267
0.0169306
0.016932
0.0169323
0.0165495
0.0166109
0.0166916
0.0167657
0.016829
0.0168761
0.0169067
0.016924
0.0169316
0.0169334
0.0169323
0.0169304
0.0169292
0.016459
0.0165709
0.0166511
0.0167323
0.0168059
0.0168638
0.0169025
0.016924
0.0169328
0.0169333
0.0169296
0.0169246
0.0169202
0.0169177
0.0164981
0.0165984
0.0166854
0.0167671
0.0168374
0.0168882
0.0169184
0.0169317
0.0169334
0.0169283
0.0169204
0.0169124
0.0169061
0.0169027
0.0165302
0.016622
0.0167121
0.0167944
0.0168603
0.0169041
0.0169268
0.0169334
0.0169297
0.0169204
0.0169094
0.0168992
0.0168916
0.0168875
0.0165685
0.0166447
0.0167342
0.0168148
0.0168759
0.0169138
0.0169307
0.0169323
0.0169246
0.0169124
0.0168992
0.0168875
0.016879
0.0168745
0.0164619
0.0165783
0.0166572
0.0167481
0.0168275
0.0168853
0.0169191
0.0169321
0.0169305
0.0169203
0.0169062
0.0168916
0.016879
0.0168698
0.016865
0.0164699
0.016586
0.0166643
0.0167549
0.0168336
0.0168896
0.0169213
0.0169325
0.0169293
0.0169178
0.0169028
0.0168876
0.0168745
0.016865
0.0168601
0.0161063
0.0161139
0.0161054
0.0161315
0.0161431
0.0161737
0.0161827
0.0161895
0.0161152
0.0161767
0.016181
0.0162041
0.0162245
0.016245
0.0162567
0.0162634
0.0161319
0.0161812
0.0162162
0.0162514
0.0162818
0.0163062
0.0163271
0.0163408
0.0163479
0.0161624
0.016199
0.0162464
0.016288
0.0163264
0.0163603
0.0163881
0.0164098
0.0164241
0.0164311
0.0161625
0.016206
0.0162614
0.0163124
0.0163589
0.0164008
0.0164358
0.0164631
0.016483
0.0164957
0.0165018
0.016132
0.0161991
0.0162614
0.0163212
0.0163765
0.0164258
0.0164671
0.0164993
0.0165229
0.016539
0.0165489
0.0165536
0.0161154
0.0161813
0.0162466
0.0163125
0.0163766
0.0164344
0.0164825
0.0165197
0.0165464
0.0165646
0.0165762
0.016583
0.0165861
0.016177
0.0162164
0.0162882
0.0163591
0.0164259
0.0164826
0.0165262
0.0165572
0.0165777
0.0165904
0.0165977
0.0166016
0.0166032
0.0161056
0.0161813
0.0162516
0.0163266
0.0164009
0.0164672
0.0165197
0.0165572
0.0165816
0.0165962
0.016604
0.0166077
0.0166092
0.0166096
0.0161318
0.0162044
0.0162821
0.0163605
0.016436
0.0164995
0.0165465
0.0165777
0.0165962
0.0166057
0.0166095
0.0166103
0.0166098
0.0166094
0.0161433
0.0162248
0.0163065
0.0163883
0.0164633
0.016523
0.0165647
0.0165904
0.0166041
0.0166095
0.0166103
0.0166088
0.016607
0.0166058
0.016174
0.0162453
0.0163274
0.0164101
0.0164832
0.0165392
0.0165764
0.0165978
0.0166078
0.0166103
0.0166089
0.0166058
0.016603
0.0166013
0.0161065
0.016183
0.0162569
0.0163411
0.0164243
0.0164959
0.016549
0.0165831
0.0166017
0.0166092
0.0166099
0.016607
0.016603
0.0165995
0.0165975
0.016114
0.0161897
0.0162636
0.0163481
0.0164314
0.016502
0.0165537
0.0165862
0.0166033
0.0166097
0.0166094
0.0166058
0.0166013
0.0165975
0.0165954
0.0157801
0.0157867
0.0157816
0.0157995
0.0157985
0.0158229
0.0158305
0.0158361
0.0157892
0.0158395
0.0158324
0.0158515
0.0158687
0.0158863
0.0158964
0.0159024
0.0158022
0.0158329
0.0158629
0.0158931
0.0159193
0.0159407
0.0159592
0.0159718
0.0159784
0.0158155
0.0158477
0.0158887
0.0159254
0.0159597
0.0159908
0.0160169
0.0160379
0.016052
0.0160591
0.0158156
0.0158539
0.0159016
0.0159469
0.0159898
0.0160296
0.0160645
0.0160927
0.0161141
0.0161281
0.0161351
0.0158024
0.0158479
0.0159016
0.0159547
0.016006
0.0160543
0.0160971
0.0161323
0.0161596
0.0161792
0.0161917
0.0161978
0.0157895
0.0158331
0.0158889
0.015947
0.0160061
0.0160629
0.0161136
0.0161556
0.0161884
0.0162124
0.016229
0.0162393
0.0162442
0.0158398
0.0158631
0.0159256
0.0159899
0.0160544
0.0161136
0.0161633
0.0162021
0.0162307
0.0162507
0.016264
0.016272
0.0162757
0.0157819
0.0158327
0.0158934
0.01596
0.0160298
0.0160972
0.0161557
0.0162021
0.0162365
0.0162606
0.0162767
0.0162869
0.0162928
0.0162955
0.0157999
0.0158518
0.0159196
0.0159911
0.0160647
0.0161325
0.0161885
0.0162308
0.0162607
0.0162807
0.0162933
0.0163009
0.016305
0.0163069
0.0157988
0.0158691
0.015941
0.0160172
0.0160929
0.0161598
0.0162125
0.0162508
0.0162768
0.0162933
0.0163032
0.0163088
0.0163116
0.0163127
0.0158232
0.0158866
0.0159596
0.0160381
0.0161143
0.0161794
0.0162291
0.0162641
0.016287
0.0163009
0.0163088
0.0163128
0.0163146
0.0163153
0.0157803
0.0158309
0.0158968
0.0159721
0.0160522
0.0161284
0.0161919
0.0162394
0.0162721
0.0162929
0.0163051
0.0163116
0.0163146
0.0163158
0.0163162
0.0157868
0.0158364
0.0159027
0.0159786
0.0160594
0.0161353
0.016198
0.0162444
0.0162758
0.0162956
0.0163069
0.0163128
0.0163153
0.0163162
0.0163164
0.0154775
0.0154829
0.0154809
0.0154938
0.0154839
0.0155034
0.0155096
0.0155142
0.015487
0.0155289
0.0155137
0.0155295
0.0155439
0.0155585
0.015567
0.0155722
0.0154977
0.0155148
0.0155402
0.0155658
0.015588
0.0156062
0.0156221
0.0156329
0.0156388
0.0154995
0.0155274
0.0155623
0.015594
0.0156238
0.0156511
0.0156744
0.0156934
0.0157065
0.0157132
0.0154996
0.0155329
0.0155735
0.0156127
0.0156506
0.0156868
0.0157192
0.0157462
0.0157671
0.0157812
0.0157883
0.015498
0.0155276
0.0155736
0.0156195
0.0156653
0.0157098
0.0157508
0.0157859
0.015814
0.0158349
0.0158486
0.0158553
0.0154873
0.0155151
0.0155626
0.0156129
0.0156653
0.0157179
0.0157671
0.01581
0.015845
0.0158719
0.0158912
0.0159036
0.0159096
0.0155293
0.0155405
0.0155943
0.0156509
0.01571
0.0157672
0.0158181
0.0158602
0.0158932
0.0159176
0.0159346
0.0159453
0.0159504
0.0154813
0.0155142
0.0155662
0.0156242
0.015687
0.015751
0.0158101
0.0158603
0.0159001
0.0159301
0.0159517
0.0159663
0.0159753
0.0159796
0.0154942
0.01553
0.0155884
0.0156515
0.0157195
0.0157862
0.0158452
0.0158933
0.0159302
0.0159571
0.0159759
0.0159885
0.015996
0.0159996
0.0154844
0.0155443
0.0156066
0.0156748
0.0157465
0.0158143
0.0158721
0.0159177
0.0159517
0.015976
0.0159925
0.0160033
0.0160097
0.0160127
0.0155039
0.015559
0.0156225
0.0156938
0.0157674
0.0158351
0.0158914
0.0159348
0.0159664
0.0159885
0.0160033
0.0160128
0.0160183
0.0160208
0.0154777
0.0155101
0.0155674
0.0156333
0.0157068
0.0157815
0.0158488
0.0159037
0.0159454
0.0159754
0.0159961
0.0160097
0.0160183
0.0160232
0.0160255
0.0154831
0.0155146
0.0155725
0.0156391
0.0157135
0.0157885
0.0158556
0.0159098
0.0159506
0.0159797
0.0159996
0.0160127
0.0160208
0.0160255
0.0160276
0.0151932
0.0151977
0.0151979
0.0152084
0.0151916
0.0152073
0.0152121
0.0152159
0.0152033
0.0152387
0.0152179
0.0152309
0.0152427
0.0152547
0.0152615
0.0152658
0.0152126
0.0152197
0.015241
0.0152624
0.015281
0.015296
0.0153092
0.0153182
0.0153231
0.0152064
0.0152306
0.0152602
0.0152869
0.0153122
0.0153354
0.0153554
0.0153719
0.0153833
0.0153893
0.0152066
0.0152354
0.0152699
0.0153032
0.0153357
0.0153671
0.0153959
0.0154204
0.0154397
0.0154529
0.0154596
0.0152129
0.0152309
0.01527
0.0153091
0.0153485
0.0153879
0.0154252
0.0154581
0.0154852
0.0155057
0.0155194
0.0155262
0.0152037
0.0152201
0.0152605
0.0153034
0.0153486
0.0153953
0.0154406
0.0154815
0.0155162
0.0155437
0.0155639
0.0155771
0.0155836
0.0152393
0.0152415
0.0152873
0.015336
0.0153881
0.0154407
0.0154895
0.0155317
0.0155661
0.0155926
0.0156116
0.0156238
0.0156297
0.0151985
0.0152185
0.015263
0.0153126
0.0153675
0.0154255
0.0154817
0.0155318
0.0155736
0.0156065
0.0156312
0.0156486
0.0156596
0.015665
0.015209
0.0152315
0.0152815
0.0153359
0.0153963
0.0154584
0.0155164
0.0155662
0.0156065
0.0156375
0.0156603
0.0156761
0.015686
0.0156908
0.0151922
0.0152433
0.0152965
0.0153559
0.0154208
0.0154855
0.0155439
0.0155927
0.0156313
0.0156604
0.0156814
0.0156959
0.0157048
0.0157091
0.0152078
0.0152552
0.0153096
0.0153723
0.0154401
0.015506
0.0155641
0.0156117
0.0156487
0.0156762
0.0156959
0.0157092
0.0157175
0.0157214
0.0151936
0.0152126
0.0152619
0.0153186
0.0153837
0.0154532
0.0155197
0.0155773
0.0156239
0.0156597
0.0156861
0.0157049
0.0157175
0.0157253
0.0157289
0.015198
0.0152163
0.0152662
0.0153235
0.0153897
0.0154599
0.0155265
0.0155838
0.0156299
0.0156651
0.0156909
0.0157092
0.0157214
0.0157289
0.0157325
0.0149231
0.0149269
0.014929
0.014938
0.0149162
0.014929
0.0149324
0.0149356
0.0149341
0.0149647
0.0149398
0.0149505
0.0149599
0.0149695
0.0149746
0.0149782
0.0149425
0.0149425
0.0149603
0.014978
0.014993
0.015005
0.0150155
0.0150226
0.0150266
0.0149312
0.0149522
0.014977
0.0149992
0.0150199
0.015039
0.0150554
0.015069
0.0150786
0.0150836
0.0149314
0.0149564
0.0149855
0.0150132
0.0150402
0.0150665
0.015091
0.0151121
0.015129
0.0151407
0.0151468
0.014943
0.0149525
0.0149856
0.0150183
0.0150513
0.0150848
0.0151172
0.0151465
0.0151712
0.0151902
0.0152032
0.0152097
0.0149347
0.0149431
0.0149775
0.0150135
0.0150514
0.0150913
0.0151311
0.0151683
0.0152007
0.0152271
0.015247
0.0152602
0.0152668
0.0149654
0.0149609
0.0149997
0.0150406
0.015085
0.0151312
0.0151758
0.0152158
0.0152495
0.0152761
0.0152957
0.0153085
0.0153149
0.0149298
0.0149406
0.0149787
0.0150205
0.0150669
0.0151175
0.0151685
0.0152159
0.0152569
0.0152905
0.0153165
0.0153353
0.0153474
0.0153534
0.0149388
0.0149513
0.0149937
0.0150396
0.0150914
0.0151469
0.0152009
0.0152496
0.0152906
0.0153234
0.0153483
0.015366
0.0153774
0.015383
0.014917
0.0149607
0.0150057
0.015056
0.0151126
0.0151715
0.0152274
0.0152763
0.0153166
0.0153483
0.0153721
0.0153889
0.0153995
0.0154047
0.0149297
0.0149702
0.0150161
0.0150695
0.0151295
0.0151906
0.0152472
0.0152959
0.0153354
0.0153661
0.0153889
0.0154049
0.015415
0.0154199
0.0149236
0.014933
0.0149752
0.0150231
0.015079
0.0151411
0.0152035
0.0152604
0.0153087
0.0153476
0.0153775
0.0153996
0.015415
0.0154248
0.0154295
0.0149273
0.0149361
0.0149787
0.0150271
0.015084
0.0151471
0.01521
0.015267
0.0153151
0.0153535
0.015383
0.0154048
0.01542
0.0154295
0.0154341
0.0146638
0.0146672
0.0146711
0.0146791
0.0146545
0.0146648
0.0146666
0.0146694
0.0146763
0.0147036
0.0146761
0.0146846
0.0146918
0.0146991
0.0147025
0.0147054
0.0146846
0.01468
0.0146945
0.0147086
0.0147203
0.0147292
0.0147369
0.0147421
0.0147452
0.0146705
0.0146887
0.0147093
0.0147269
0.0147431
0.0147579
0.0147706
0.0147811
0.0147886
0.0147926
0.0146707
0.0146922
0.0147167
0.0147389
0.0147602
0.0147811
0.0148008
0.0148181
0.0148322
0.014842
0.0148472
0.0146852
0.0146892
0.0147169
0.0147433
0.0147696
0.0147967
0.0148235
0.0148484
0.0148698
0.0148867
0.0148984
0.0149043
0.0146772
0.0146809
0.0147099
0.0147393
0.0147698
0.0148023
0.0148357
0.014868
0.0148969
0.0149211
0.0149397
0.0149522
0.0149585
0.0147046
0.0146954
0.0147277
0.0147607
0.014797
0.0148359
0.0148748
0.014911
0.0149424
0.014968
0.0149872
0.0149999
0.0150063
0.0146722
0.0146773
0.0147096
0.0147439
0.0147817
0.0148239
0.0148682
0.0149111
0.0149496
0.0149822
0.0150081
0.0150273
0.0150398
0.015046
0.0146801
0.0146856
0.0147213
0.0147587
0.0148014
0.0148489
0.0148972
0.0149426
0.0149823
0.0150151
0.0150407
0.0150594
0.0150716
0.0150775
0.0146555
0.0146928
0.0147301
0.0147713
0.0148187
0.0148703
0.0149214
0.0149682
0.0150083
0.0150408
0.0150659
0.015084
0.0150957
0.0151014
0.0146657
0.0146999
0.0147377
0.0147818
0.0148327
0.0148872
0.01494
0.0149874
0.0150274
0.0150595
0.015084
0.0151016
0.0151129
0.0151185
0.0146645
0.0146674
0.0147032
0.0147427
0.0147891
0.0148425
0.0148987
0.0149525
0.0150002
0.01504
0.0150716
0.0150957
0.0151129
0.015124
0.0151294
0.0146679
0.01467
0.014706
0.0147457
0.0147931
0.0148476
0.0149046
0.0149588
0.0150065
0.0150462
0.0150776
0.0151015
0.0151185
0.0151294
0.0151348
0.0144129
0.0144162
0.0144221
0.0144295
0.0144043
0.0144123
0.0144121
0.0144147
0.0144279
0.014453
0.0144243
0.0144306
0.0144355
0.0144403
0.0144419
0.0144442
0.0144365
0.0144299
0.014441
0.0144516
0.0144598
0.0144654
0.0144701
0.0144732
0.0144753
0.0144226
0.0144378
0.0144541
0.0144671
0.0144785
0.0144887
0.0144974
0.0145047
0.0145099
0.0145129
0.0144229
0.0144405
0.0144604
0.014477
0.0144923
0.0145075
0.0145221
0.0145353
0.0145462
0.0145539
0.0145581
0.0144374
0.0144384
0.0144606
0.0144807
0.0145
0.0145202
0.014541
0.014561
0.0145787
0.0145929
0.0146029
0.0146081
0.0144292
0.014431
0.014455
0.0144775
0.0145002
0.0145249
0.0145513
0.0145779
0.0146027
0.014624
0.0146407
0.0146522
0.014658
0.0144544
0.0144424
0.0144681
0.014493
0.0145207
0.0145515
0.0145839
0.0146153
0.0146437
0.0146673
0.0146855
0.0146977
0.0147038
0.0144236
0.0144259
0.014453
0.0144796
0.0145083
0.0145415
0.0145782
0.0146155
0.0146504
0.0146809
0.0147058
0.0147246
0.014737
0.0147433
0.0144309
0.0144321
0.0144611
0.0144898
0.0145229
0.0145615
0.014603
0.0146439
0.014681
0.0147127
0.0147381
0.0147569
0.0147693
0.0147755
0.0144057
0.0144367
0.0144666
0.0144983
0.014536
0.0145792
0.0146243
0.0146675
0.014706
0.0147381
0.0147635
0.0147822
0.0147944
0.0148004
0.0144135
0.0144414
0.0144711
0.0145055
0.0145468
0.0145934
0.0146411
0.0146857
0.0147247
0.014757
0.0147822
0.0148006
0.0148127
0.0148186
0.0144139
0.014413
0.0144428
0.0144739
0.0145105
0.0145545
0.0146033
0.0146525
0.0146979
0.0147372
0.0147694
0.0147944
0.0148127
0.0148245
0.0148304
0.014417
0.0144154
0.0144449
0.014476
0.0145134
0.0145586
0.0146085
0.0146583
0.014704
0.0147434
0.0147756
0.0148005
0.0148186
0.0148304
0.0148362
0.0141678
0.0141712
0.0141799
0.0141874
0.014165
0.01417
0.0141668
0.0141696
0.0141866
0.0142111
0.0141829
0.0141869
0.0141888
0.0141906
0.01419
0.0141919
0.0141965
0.014191
0.0141983
0.0142045
0.0142087
0.0142105
0.0142118
0.0142124
0.0142137
0.0141879
0.0141979
0.0142092
0.0142168
0.0142227
0.014228
0.0142323
0.0142361
0.0142389
0.0142408
0.0141882
0.0141988
0.014214
0.0142242
0.014233
0.014242
0.0142512
0.01426
0.0142676
0.0142732
0.0142764
0.0141978
0.0141987
0.0142143
0.0142272
0.0142388
0.0142517
0.0142661
0.0142809
0.0142947
0.0143062
0.0143145
0.0143189
0.0141885
0.0141927
0.0142104
0.0142249
0.0142391
0.0142554
0.0142744
0.0142951
0.0143154
0.0143336
0.0143482
0.0143585
0.0143638
0.0142133
0.0142002
0.0142182
0.0142339
0.0142522
0.0142746
0.0143002
0.0143266
0.0143514
0.0143727
0.0143895
0.014401
0.0144068
0.0141822
0.0141852
0.0142064
0.0142242
0.014243
0.0142667
0.0142954
0.0143267
0.0143576
0.0143855
0.0144089
0.0144269
0.014439
0.0144451
0.0141894
0.0141889
0.0142104
0.0142293
0.0142522
0.0142815
0.0143158
0.0143516
0.0143856
0.0144155
0.0144401
0.0144586
0.014471
0.0144772
0.0141668
0.0141905
0.0142119
0.0142335
0.0142608
0.0142953
0.014334
0.014373
0.0144091
0.0144401
0.0144652
0.014484
0.0144964
0.0145026
0.0141714
0.0141919
0.0142129
0.014237
0.0142683
0.0143067
0.0143486
0.0143898
0.0144271
0.0144587
0.014484
0.0145028
0.0145152
0.0145214
0.014169
0.0141679
0.0141911
0.0142133
0.0142396
0.0142738
0.0143149
0.0143588
0.0144012
0.0144392
0.0144711
0.0144965
0.0145152
0.0145275
0.0145337
0.0141721
0.0141705
0.0141927
0.0142144
0.0142414
0.0142769
0.0143193
0.0143641
0.014407
0.0144453
0.0144773
0.0145027
0.0145214
0.0145337
0.0145398
0.0139245
0.0139285
0.0139411
0.0139509
0.0139382
0.0139371
0.0139292
0.013933
0.013949
0.0139764
0.0139515
0.0139519
0.0139497
0.0139472
0.0139437
0.0139454
0.0139631
0.0139638
0.0139646
0.0139644
0.0139635
0.0139606
0.0139577
0.0139555
0.013956
0.0139759
0.0139677
0.0139714
0.0139719
0.0139714
0.013971
0.0139707
0.0139708
0.0139712
0.0139722
0.013976
0.0139641
0.0139734
0.013976
0.0139773
0.0139797
0.0139835
0.013988
0.0139925
0.0139962
0.0139985
0.0139649
0.0139687
0.0139738
0.0139783
0.013981
0.0139862
0.0139944
0.0140043
0.0140145
0.0140235
0.0140303
0.0140339
0.0139519
0.0139663
0.013973
0.0139769
0.0139814
0.0139889
0.0140008
0.0140159
0.0140321
0.0140474
0.0140602
0.0140693
0.0140741
0.0139799
0.0139675
0.0139739
0.0139785
0.0139869
0.014001
0.0140202
0.0140419
0.0140634
0.0140827
0.0140981
0.0141088
0.0141144
0.0139447
0.013955
0.0139672
0.0139733
0.0139809
0.0139951
0.0140163
0.014042
0.0140691
0.0140946
0.0141165
0.0141337
0.0141454
0.0141513
0.0139539
0.0139548
0.0139658
0.0139727
0.0139847
0.0140051
0.0140326
0.0140637
0.0140947
0.0141228
0.0141465
0.0141646
0.0141768
0.014183
0.0139402
0.0139518
0.0139624
0.0139721
0.013989
0.0140152
0.0140479
0.0140829
0.0141166
0.0141465
0.0141711
0.0141897
0.0142022
0.0142085
0.0139389
0.0139487
0.013959
0.0139719
0.0139933
0.0140241
0.0140606
0.0140984
0.0141338
0.0141647
0.0141898
0.0142087
0.0142212
0.0142275
0.013926
0.0139305
0.0139449
0.0139565
0.013972
0.0139969
0.0140307
0.0140697
0.0141091
0.0141455
0.0141769
0.0142023
0.0142212
0.0142338
0.0142401
0.0139296
0.013934
0.0139463
0.0139567
0.0139728
0.013999
0.0140344
0.0140744
0.0141146
0.0141515
0.0141831
0.0142085
0.0142275
0.0142401
0.0142463
0.0136743
0.01368
0.0136978
0.0137171
0.0137298
0.013713
0.0136963
0.0137031
0.0137074
0.0137491
0.0137297
0.0137242
0.0137154
0.0137057
0.0136979
0.0137
0.0137353
0.0137483
0.0137372
0.0137263
0.013718
0.0137092
0.0137016
0.0136965
0.0136964
0.0138127
0.0137505
0.0137337
0.0137257
0.0137177
0.0137112
0.0137062
0.0137031
0.0137015
0.0137019
0.013811
0.0137412
0.0137342
0.0137251
0.0137183
0.0137144
0.0137133
0.0137143
0.0137165
0.0137188
0.0137206
0.0137378
0.0137515
0.0137347
0.0137269
0.0137199
0.0137179
0.0137208
0.0137269
0.0137345
0.0137418
0.0137475
0.0137507