/*--------------------------------*- C++ -*----------------------------------*\
| =========                 |                                                 |
| \\      /  F ield         | OpenFOAM: The Open Source CFD Toolbox           |
|  \\    /   O peration     | Version:  2.1.1                                 |
|   \\  /    A nd           | Web:      www.OpenFOAM.org                      |
|    \\/     M anipulation  |                                                 |
\*---------------------------------------------------------------------------*/
FoamFile
{
    version     2.0;
    format      ascii;
    class       volScalarField;
    location    "0.0005";
    object      p;
}
// * * * * * * * * * * * * * * * * * * * * * * * * * * * * * * * * * * * * * //

dimensions      [0 2 -2 0 0 0 0];

internalField   nonuniform List<scalar> 
10179
(
0.14158
0.141559
0.141598
0.141693
0.141851
0.142074
0.142377
0.14274
0.14323
0.143738
0.144608
0.145559
0.14822
0.152609
0.168475
0.141558
0.141536
0.14157
0.141659
0.141813
0.142031
0.142329
0.142689
0.143187
0.143741
0.144711
0.145839
0.148654
0.152629
0.167008
0.141598
0.141569
0.141601
0.141686
0.141831
0.142053
0.142338
0.142705
0.143219
0.143849
0.144941
0.146354
0.149303
0.153331
0.158688
0.141692
0.141658
0.141685
0.141765
0.141908
0.142111
0.142392
0.142745
0.14325
0.143918
0.14504
0.146723
0.149429
0.151971
0.135542
0.141851
0.141812
0.14183
0.141908
0.142046
0.142238
0.142515
0.142879
0.143436
0.14422
0.145584
0.147913
0.151329
0.156493
0.128303
0.142073
0.142029
0.142051
0.142109
0.142237
0.142413
0.142693
0.143082
0.143704
0.144627
0.146322
0.149279
0.153901
0.160191
0.142375
0.142326
0.142335
0.142389
0.142513
0.142692
0.143029
0.143507
0.144325
0.145619
0.148144
0.152173
0.160672
0.147173
0.142738
0.142685
0.1427
0.14274
0.142874
0.143079
0.143504
0.144087
0.145113
0.146749
0.149849
0.155309
0.161216
0.143227
0.143181
0.143212
0.143242
0.143429
0.143698
0.14432
0.145111
0.146606
0.148815
0.153156
0.161956
0.141236
0.143733
0.143733
0.143839
0.143907
0.14421
0.144618
0.14561
0.146741
0.148807
0.151948
0.158918
0.167085
0.144602
0.1447
0.144928
0.145027
0.145572
0.14631
0.14813
0.149834
0.153137
0.158942
0.168228
0.145552
0.145823
0.146338
0.146708
0.147898
0.149264
0.152155
0.155283
0.161917
0.167049
0.14821
0.148634
0.149283
0.14941
0.151313
0.153884
0.160652
0.161189
0.141199
0.152598
0.152604
0.153325
0.151944
0.156476
0.160176
0.147155
0.168441
0.166957
0.158658
0.135522
0.128288
0.0938226
0.0938847
0.0940151
0.0942081
0.0944879
0.0948341
0.0953327
0.0958602
0.0967662
0.0974636
0.0993982
0.0999305
0.104931
0.101958
0.140854
0.0938841
0.0939485
0.0940792
0.0942729
0.0945561
0.0949076
0.0954091
0.0959463
0.0968492
0.0975747
0.0994411
0.100015
0.104769
0.10142
0.13807
0.0940148
0.0940785
0.0942152
0.0944144
0.0947069
0.0950819
0.095604
0.0961992
0.0971593
0.0980452
0.0999631
0.100961
0.105425
0.102539
0.13009
0.094208
0.0942725
0.0944143
0.0946206
0.0949269
0.0953031
0.0958414
0.0964548
0.0973863
0.0983379
0.0999439
0.101333
0.103639
0.103867
0.127686
0.0944879
0.0945553
0.0947066
0.0949265
0.0952632
0.0956696
0.0962766
0.0969851
0.0980846
0.0993519
0.101413
0.103928
0.106497
0.13655
0.114754
0.0948343
0.0949065
0.0950812
0.095302
0.095669
0.0960802
0.0967203
0.0974178
0.0985111
0.0997267
0.101682
0.103742
0.10601
0.133232
0.0953331
0.0954075
0.0956028
0.0958396
0.0962752
0.0967196
0.0974983
0.0982832
0.0997268
0.101297
0.104425
0.10683
0.145958
0.123454
0.0958608
0.0959439
0.0961972
0.0964515
0.0969821
0.0974152
0.0982804
0.0990016
0.100363
0.101826
0.103971
0.106584
0.137742
0.0967671
0.0968456
0.0971566
0.0973817
0.0980803
0.0985075
0.0997228
0.100365
0.102432
0.103895
0.107307
0.143912
0.125535
0.0974654
0.0975688
0.098041
0.0983307
0.0993447
0.0997193
0.101287
0.101821
0.103885
0.104597
0.104296
0.140578
0.0993996
0.0994332
0.0999572
0.0999347
0.101405
0.101675
0.104414
0.103973
0.107294
0.104367
0.149663
0.0999346
0.1
0.100954
0.10132
0.103916
0.103728
0.106812
0.106563
0.143877
0.140536
0.104928
0.104749
0.105415
0.103626
0.106486
0.105998
0.145942
0.137722
0.125504
0.101965
0.101363
0.102552
0.103852
0.136538
0.133219
0.123439
0.140823
0.13803
0.130067
0.127672
0.11474
0.111352
0.111401
0.111508
0.111663
0.111885
0.112141
0.112505
0.112822
0.113379
0.113549
0.114413
0.113607
0.114848
0.110231
0.1261
0.111401
0.111453
0.111559
0.111715
0.111938
0.112196
0.112558
0.11288
0.113426
0.113623
0.114424
0.113681
0.114659
0.110126
0.125885
0.111508
0.111559
0.111669
0.111827
0.112056
0.112323
0.112697
0.113049
0.113617
0.113915
0.114718
0.114297
0.115078
0.11171
0.123604
0.111663
0.111714
0.111827
0.111985
0.112217
0.112482
0.112849
0.113204
0.113718
0.11404
0.114556
0.114198
0.113934
0.110264
0.126259
0.111885
0.111937
0.112055
0.112216
0.11246
0.112733
0.113123
0.113504
0.114043
0.114406
0.1148
0.114439
0.112769
0.131182
0.118173
0.112141
0.112195
0.112322
0.11248
0.112733
0.112996
0.113379
0.113741
0.114211
0.114504
0.114537
0.114011
0.110339
0.124645
0.112505
0.112557
0.112695
0.112847
0.113121
0.113378
0.113798
0.114139
0.114637
0.114747
0.114837
0.112546
0.134716
0.119133
0.112822
0.112877
0.113047
0.1132
0.113501
0.113738
0.114137
0.114442
0.114827
0.114812
0.114619
0.111166
0.127367
0.11338
0.113422
0.113614
0.113713
0.114039
0.114208
0.114633
0.114828
0.114935
0.114982
0.113077
0.135757
0.122761
0.11355
0.113617
0.11391
0.114032
0.114399
0.114497
0.11474
0.114809
0.114981
0.115025
0.112365
0.131021
0.114413
0.114417
0.114711
0.114547
0.114791
0.114529
0.114828
0.114615
0.113075
0.112381
0.141119
0.113609
0.113668
0.114289
0.114186
0.114428
0.114
0.112532
0.111155
0.135745
0.131022
0.114845
0.114644
0.115067
0.113922
0.112759
0.110328
0.134706
0.127354
0.122739
0.110237
0.1101
0.111703
0.11025
0.131173
0.124635
0.119121
0.126081
0.125864
0.123587
0.126245
0.118161
0.111512
0.111559
0.111661
0.111808
0.112017
0.112253
0.112583
0.112864
0.113327
0.113483
0.114052
0.113625
0.11395
0.11247
0.123257
0.111559
0.111607
0.11171
0.111857
0.112066
0.112303
0.112629
0.112912
0.113362
0.113528
0.114047
0.113624
0.113849
0.112279
0.123537
0.111661
0.11171
0.111814
0.111962
0.112175
0.112416
0.11275
0.113049
0.113507
0.113719
0.114224
0.113902
0.114069
0.112744
0.121703
0.111808
0.111856
0.111961
0.112109
0.112321
0.112559
0.112881
0.113179
0.113587
0.11381
0.114128
0.113865
0.113514
0.11241
0.124399
0.112017
0.112065
0.112174
0.11232
0.112539
0.112778
0.113109
0.113413
0.113823
0.114031
0.1143
0.11379
0.113568
0.128531
0.11785
0.112253
0.112302
0.112416
0.112558
0.112778
0.113005
0.11332
0.113603
0.113948
0.11413
0.114167
0.113771
0.112509
0.121761
0.112584
0.112628
0.112748
0.112879
0.113108
0.113319
0.113639
0.113892
0.114205
0.114281
0.114118
0.113492
0.131296
0.117338
0.112864
0.11291
0.113046
0.113175
0.11341
0.113601
0.113889
0.114093
0.114339
0.114301
0.114217
0.113223
0.123625
0.113328
0.113359
0.113504
0.113583
0.113819
0.113945
0.114202
0.114344
0.114441
0.114273
0.113908
0.131507
0.119994
0.113483
0.113523
0.113715
0.113804
0.114025
0.114124
0.114274
0.1143
0.11427
0.113947
0.114042
0.127358
0.114052
0.114041
0.114218
0.11412
0.114293
0.11416
0.114111
0.114214
0.113904
0.114057
0.136999
0.113628
0.113613
0.113896
0.113855
0.113781
0.113761
0.113481
0.113214
0.131511
0.12738
0.113948
0.113838
0.11406
0.113503
0.113559
0.1125
0.131289
0.12362
0.119986
0.112484
0.112253
0.112739
0.112397
0.128524
0.121753
0.117329
0.12325
0.123527
0.121693
0.124387
0.117841
0.110525
0.110562
0.110642
0.110754
0.110911
0.111077
0.1113
0.111462
0.111713
0.111724
0.111888
0.111521
0.111446
0.11081
0.121635
0.110562
0.1106
0.11068
0.110791
0.110947
0.111112
0.11133
0.111491
0.111728
0.111741
0.111866
0.111508
0.11138
0.110738
0.121943
0.110642
0.11068
0.11076
0.11087
0.111026
0.111191
0.111409
0.111574
0.111809
0.111828
0.111943
0.111599
0.111504
0.110832
0.120182
0.110754
0.110791
0.11087
0.110977
0.111129
0.111287
0.111491
0.111647
0.111836
0.111852
0.111842
0.111572
0.111133
0.110915
0.122993
0.110911
0.110946
0.111026
0.111128
0.111279
0.11143
0.111629
0.111771
0.111946
0.11191
0.111912
0.111426
0.11132
0.127106
0.116848
0.111077
0.111111
0.11119
0.111286
0.11143
0.111565
0.11174
0.111856
0.111969
0.111908
0.111808
0.111349
0.111048
0.120234
0.1113
0.111329
0.111408
0.111489
0.111627
0.111739
0.111894
0.111975
0.112034
0.11195
0.111662
0.111358
0.129249
0.116095
0.111463
0.111489
0.111572
0.111644
0.111769
0.111854
0.111974
0.112009
0.112025
0.111895
0.111647
0.111454
0.121816
0.111713
0.111725
0.111806
0.111833
0.111942
0.111967
0.112033
0.112027
0.112036
0.11182
0.111631
0.129415
0.118189
0.111724
0.111737
0.111825
0.111847
0.111905
0.111903
0.111946
0.111894
0.111819
0.111428
0.111846
0.125284
0.111889
0.11186
0.111939
0.111835
0.111906
0.111802
0.111657
0.111645
0.111629
0.111848
0.134324
0.111523
0.1115
0.111594
0.111564
0.111419
0.111341
0.111351
0.111447
0.129426
0.125307
0.111446
0.111372
0.111498
0.111124
0.111313
0.11104
0.129245
0.121814
0.118187
0.110813
0.110726
0.110826
0.110905
0.127101
0.120228
0.116088
0.121634
0.121938
0.120175
0.122984
0.11684
0.10983
0.10986
0.109921
0.110005
0.110119
0.110234
0.110375
0.110462
0.110569
0.110508
0.110469
0.110195
0.109942
0.109646
0.120442
0.10986
0.109889
0.10995
0.110032
0.110144
0.110257
0.110394
0.110478
0.110573
0.110511
0.110449
0.110186
0.109895
0.109628
0.120771
0.109921
0.10995
0.110009
0.11009
0.1102
0.110309
0.110442
0.110521
0.110612
0.110535
0.110485
0.110188
0.109983
0.109603
0.11899
0.110005
0.110032
0.11009
0.110166
0.11027
0.110371
0.11049
0.110558
0.110611
0.110534
0.110405
0.110182
0.109746
0.109747
0.121823
0.110119
0.110144
0.110199
0.11027
0.110368
0.110457
0.110563
0.110608
0.11064
0.11052
0.11041
0.110016
0.109864
0.125983
0.115814
0.110234
0.110256
0.110309
0.11037
0.110457
0.11053
0.11061
0.110628
0.110619
0.110486
0.110346
0.10995
0.109827
0.11913
0.110375
0.110393
0.110441
0.110488
0.110562
0.110609
0.110658
0.110646
0.110591
0.110462
0.110162
0.109938
0.127846
0.11498
0.110462
0.110476
0.11052
0.110555
0.110607
0.110626
0.110645
0.110608
0.110533
0.110381
0.110137
0.110065
0.120526
0.110569
0.110571
0.11061
0.110608
0.110637
0.110618
0.11059
0.110534
0.11046
0.110291
0.110065
0.128055
0.116858
0.110509
0.110508
0.110532
0.11053
0.110517
0.110483
0.110459
0.110381
0.110291
0.109918
0.110311
0.123786
0.110469
0.110445
0.110481
0.110401
0.110405
0.110342
0.110158
0.110136
0.110065
0.11032
0.13252
0.110196
0.110181
0.110184
0.110176
0.110011
0.109944
0.109932
0.110061
0.128071
0.123814
0.109942
0.10989
0.109979
0.109739
0.109859
0.109821
0.127844
0.120526
0.116859
0.109647
0.109622
0.109598
0.10974
0.12598
0.119125
0.114975
0.12044
0.12077
0.118987
0.121817
0.115808
0.109016
0.109037
0.109078
0.109132
0.109201
0.109264
0.109326
0.109343
0.109329
0.109234
0.109094
0.108923
0.108626
0.10858
0.119347
0.109037
0.109056
0.109097
0.10915
0.109216
0.109276
0.109333
0.109348
0.109324
0.109231
0.109078
0.10892
0.108598
0.108585
0.119687
0.109078
0.109097
0.109135
0.109185
0.109247
0.109302
0.109354
0.109358
0.109331
0.109222
0.109091
0.108886
0.108669
0.10851
0.117864
0.109132
0.109149
0.109185
0.10923
0.109285
0.109331
0.109369
0.109361
0.109313
0.10921
0.109036
0.108899
0.108522
0.10869
0.120706
0.109201
0.109215
0.109247
0.109285
0.109331
0.109364
0.109386
0.109356
0.1093
0.109163
0.10902
0.108743
0.108638
0.124865
0.11477
0.109264
0.109275
0.109302
0.109331
0.109363
0.10938
0.10938
0.109334
0.109266
0.109123
0.108997
0.108708
0.108708
0.118032
0.109326
0.109332
0.109354
0.109368
0.109385
0.10938
0.109355
0.1093
0.109198
0.109083
0.108821
0.108717
0.126611
0.113899
0.109343
0.109347
0.109357
0.10936
0.109355
0.109333
0.1093
0.109235
0.109138
0.109009
0.108826
0.108862
0.119323
0.109329
0.109322
0.10933
0.109311
0.109298
0.109264
0.109197
0.109139
0.109048
0.108943
0.108766
0.126797
0.11567
0.109234
0.109229
0.10922
0.109208
0.10916
0.10912
0.109081
0.109009
0.108943
0.10862
0.109047
0.122489
0.109094
0.109075
0.109089
0.109033
0.109017
0.108994
0.108818
0.108826
0.108767
0.109053
0.131091
0.108923
0.108917
0.108883
0.108895
0.108739
0.108703
0.108714
0.108859
0.126815
0.122518
0.108626
0.108595
0.108666
0.108517
0.108634
0.108703
0.126611
0.119324
0.115674
0.108581
0.108582
0.108507
0.108685
0.124863
0.118029
0.113896
0.119346
0.119688
0.117863
0.120702
0.114766
0.108103
0.108115
0.108137
0.108164
0.108193
0.108212
0.108211
0.108176
0.108094
0.108001
0.107821
0.107732
0.10743
0.107514
0.118284
0.108115
0.108126
0.108147
0.108173
0.108199
0.108215
0.10821
0.108172
0.108087
0.107996
0.10781
0.107735
0.107414
0.107534
0.118626
0.108137
0.108147
0.108166
0.108188
0.108211
0.10822
0.108209
0.108162
0.10808
0.107972
0.107815
0.107685
0.107476
0.107432
0.116774
0.108164
0.108172
0.108188
0.108206
0.10822
0.108222
0.1082
0.108148
0.108057
0.107958
0.107778
0.10771
0.10737
0.10763
0.119618
0.108193
0.108199
0.10821
0.10822
0.108226
0.108214
0.10818
0.108116
0.108024
0.1079
0.107757
0.107565
0.107488
0.123765
0.113731
0.108212
0.108214
0.108219
0.108221
0.108214
0.10819
0.108147
0.108078
0.107989
0.107861
0.107757
0.107536
0.107606
0.116942
0.108211
0.10821
0.108209
0.108199
0.108179
0.108147
0.108089
0.108023
0.107909
0.107822
0.107593
0.107567
0.125448
0.112834
0.108176
0.108171
0.108161
0.108147
0.108115
0.108078
0.108023
0.107954
0.107859
0.107756
0.10761
0.107707
0.118171
0.108095
0.108086
0.108079
0.108055
0.108023
0.107988
0.107908
0.107859
0.107773
0.107711
0.107566
0.125615
0.114546
0.108001
0.107995
0.10797
0.107956
0.107898
0.107859
0.107821
0.107756
0.107711
0.107418
0.10786
0.121291
0.107821
0.107808
0.107813
0.107776
0.107755
0.107755
0.107592
0.107609
0.107567
0.107863
0.129809
0.107732
0.107733
0.107683
0.107707
0.107562
0.107533
0.107564
0.107706
0.125633
0.12132
0.10743
0.107412
0.107474
0.107367
0.107485
0.107603
0.125449
0.118172
0.114551
0.107514
0.107532
0.10743
0.107626
0.123764
0.11694
0.112832
0.118282
0.118629
0.116774
0.119615
0.113729
0.107094
0.107099
0.107105
0.10711
0.107107
0.107093
0.107048
0.106991
0.106885
0.106809
0.106628
0.106598
0.106312
0.106461
0.117231
0.107099
0.107103
0.107108
0.107112
0.107107
0.10709
0.107042
0.106985
0.106878
0.106806
0.106621
0.106605
0.106301
0.106488
0.117574
0.107105
0.107108
0.107111
0.107112
0.107102
0.10708
0.107028
0.106966
0.106864
0.106776
0.106623
0.10655
0.106359
0.106374
0.115705
0.10711
0.107112
0.107112
0.107108
0.107092
0.107063
0.107008
0.106946
0.106843
0.106765
0.1066
0.10658
0.106274
0.106577
0.118545
0.107107
0.107106
0.107102
0.107093
0.107069
0.107032
0.106973
0.106904
0.106805
0.106707
0.106578
0.106448
0.106389
0.122675
0.112689
0.107093
0.107089
0.10708
0.107062
0.107031
0.106992
0.106933
0.106864
0.106777
0.106673
0.106593
0.10642
0.106525
0.115864
0.107048
0.107041
0.107028
0.107008
0.106973
0.106933
0.106866
0.106806
0.106698
0.10664
0.106441
0.106462
0.124321
0.111775
0.106991
0.106984
0.106965
0.106945
0.106903
0.106863
0.106806
0.106745
0.106662
0.106584
0.106464
0.106593
0.117053
0.106885
0.106877
0.106864
0.106842
0.106804
0.106776
0.106697
0.106662
0.106585
0.106558
0.10643
0.124473
0.11345
0.106809
0.106805
0.106775
0.106764
0.106706
0.106672
0.106639
0.106584
0.106558
0.106286
0.106724
0.120145
0.106628
0.10662
0.106622
0.106598
0.106576
0.106591
0.10644
0.106464
0.10643
0.106725
0.128604
0.106598
0.106604
0.106549
0.106578
0.106446
0.106418
0.10646
0.106591
0.124491
0.120173
0.106312
0.1063
0.106357
0.106272
0.106387
0.106523
0.124322
0.117055
0.113455
0.106461
0.106487
0.106373
0.106575
0.122676
0.115863
0.111774
0.117229
0.117577
0.115706
0.118544
0.112688
0.106
0.105999
0.105992
0.105981
0.105955
0.105919
0.105855
0.105798
0.105692
0.105641
0.105476
0.105492
0.10523
0.105417
0.116183
0.105999
0.105996
0.10599
0.105977
0.10595
0.105911
0.105847
0.105792
0.105686
0.10564
0.105473
0.1055
0.105223
0.105447
0.116525
0.105992
0.10599
0.105982
0.105966
0.105935
0.105894
0.105831
0.10577
0.105673
0.105611
0.105476
0.105446
0.105277
0.105329
0.114648
0.105981
0.105977
0.105966
0.105948
0.105912
0.105871
0.105809
0.105751
0.105657
0.105604
0.105462
0.10548
0.105207
0.10553
0.117484
0.105956
0.10595
0.105935
0.105913
0.105875
0.105833
0.10577
0.10571
0.105621
0.10555
0.105443
0.105355
0.105317
0.121598
0.111649
0.105919
0.105911
0.105894
0.105871
0.105833
0.105792
0.105734
0.105675
0.105601
0.105523
0.105467
0.105331
0.105459
0.114796
0.105855
0.105847
0.105831
0.105808
0.10577
0.105734
0.10567
0.105624
0.10553
0.105498
0.105327
0.105379
0.123219
0.110722
0.105798
0.105791
0.10577
0.105751
0.105709
0.105675
0.105623
0.105576
0.105508
0.105454
0.105356
0.105504
0.115958
0.105692
0.105686
0.105673
0.105656
0.10562
0.105601
0.10553
0.105508
0.105445
0.105442
0.105329
0.123357
0.112371
0.105642
0.105639
0.10561
0.105603
0.105549
0.105523
0.105498
0.105454
0.105442
0.105192
0.105623
0.119031
0.105477
0.105473
0.105475
0.105461
0.105442
0.105467
0.105327
0.105356
0.105328
0.105623
0.127448
0.105492
0.1055
0.105445
0.105479
0.105355
0.10533
0.105378
0.105504
0.123376
0.119058
0.10523
0.105222
0.105276
0.105206
0.105316
0.105458
0.123221
0.115961
0.112377
0.105417
0.105446
0.105328
0.105529
0.1216
0.114796
0.110722
0.116181
0.116529
0.11465
0.117483
0.111649
0.104835
0.104831
0.104817
0.104794
0.104755
0.104712
0.104649
0.104604
0.104514
0.10449
0.104354
0.104404
0.104171
0.104383
0.115139
0.10483
0.104825
0.10481
0.104787
0.104747
0.104705
0.104644
0.104599
0.104511
0.10449
0.104354
0.104413
0.104168
0.104413
0.115481
0.104817
0.10481
0.104794
0.104768
0.104729
0.104686
0.104628
0.10458
0.104501
0.104465
0.104358
0.104362
0.10422
0.104297
0.113601
0.104794
0.104787
0.104769
0.104743
0.104704
0.104665
0.104609
0.104566
0.104491
0.104464
0.104353
0.104401
0.104161
0.104493
0.116433
0.104755
0.104747
0.104729
0.104704
0.104667
0.104629
0.104575
0.10453
0.104461
0.104416
0.104337
0.10428
0.104265
0.120531
0.110614
0.104712
0.104705
0.104686
0.104665
0.104629
0.104596
0.104547
0.104506
0.104451
0.1044
0.104369
0.104262
0.104408
0.113736
0.104649
0.104644
0.104628
0.104609
0.104576
0.104548
0.104496
0.104465
0.104393
0.104383
0.104241
0.10431
0.122135
0.109677
0.104604
0.104599
0.10458
0.104566
0.10453
0.104506
0.104465
0.104434
0.104384
0.104354
0.104274
0.104435
0.11488
0.104514
0.104511
0.104501
0.10449
0.104461
0.104451
0.104393
0.104384
0.104338
0.104349
0.104255
0.122257
0.111305
0.10449
0.10449
0.104465
0.104463
0.104416
0.1044
0.104383
0.104354
0.104349
0.104127
0.104549
0.117938
0.104354
0.104354
0.104358
0.104353
0.104337
0.104369
0.10424
0.104273
0.104254
0.104547
0.126319
0.104404
0.104414
0.104362
0.104401
0.10428
0.104261
0.104309
0.104435
0.122275
0.117965
0.104172
0.104168
0.10422
0.104161
0.104265
0.104408
0.122138
0.114883
0.111311
0.104383
0.104413
0.104297
0.104492
0.120534
0.113737
0.109678
0.115138
0.115486
0.113603
0.116433
0.110614
0.103618
0.103611
0.103592
0.103563
0.103523
0.103487
0.103437
0.103409
0.103345
0.103349
0.103249
0.10333
0.10313
0.103362
0.114098
0.103611
0.103602
0.103583
0.103554
0.103516
0.10348
0.103434
0.103406
0.103345
0.103351
0.103253
0.10334
0.103131
0.10339
0.11444
0.103592
0.103583
0.103562
0.103535
0.103499
0.103466
0.103421
0.103393
0.103339
0.103332
0.10326
0.103297
0.103184
0.103284
0.112564
0.103563
0.103554
0.103535
0.103511
0.103479
0.103449
0.103409
0.103384
0.103337
0.103336
0.103264
0.103336
0.103138
0.10347
0.115394
0.103524
0.103516
0.103499
0.103479
0.10345
0.103423
0.103385
0.103358
0.103315
0.103297
0.103253
0.10322
0.103232
0.119475
0.109589
0.103487
0.10348
0.103466
0.103449
0.103423
0.103401
0.103369
0.103347
0.103317
0.103293
0.10329
0.103207
0.103373
0.112686
0.103438
0.103434
0.103421
0.10341
0.103385
0.103369
0.103334
0.103321
0.103276
0.103284
0.103175
0.103252
0.121064
0.10864
0.103409
0.103406
0.103393
0.103385
0.103359
0.103347
0.103321
0.103311
0.10328
0.103275
0.103212
0.103382
0.113813
0.103346
0.103346
0.103339
0.103337
0.103316
0.103317
0.103276
0.10328
0.103256
0.103276
0.103204
0.121161
0.11025
0.103349
0.103351
0.103333
0.103336
0.103298
0.103294
0.103284
0.103276
0.103276
0.10309
0.103497
0.116857
0.10325
0.103254
0.103261
0.103265
0.103253
0.10329
0.103175
0.103212
0.103204
0.103495
0.125204
0.10333
0.10334
0.103297
0.103336
0.10322
0.103207
0.103252
0.103382
0.12118
0.116883
0.10313
0.103132
0.103185
0.103138
0.103233
0.103373
0.121067
0.113817
0.110256
0.103363
0.103391
0.103284
0.10347
0.119478
0.112688
0.108642
0.114097
0.114445
0.112567
0.115395
0.10959
0.10236
0.102351
0.10233
0.102302
0.102272
0.102247
0.102218
0.102209
0.102179
0.102209
0.102155
0.102266
0.102101
0.102362
0.113061
0.102351
0.102341
0.10232
0.102295
0.102266
0.102243
0.102216
0.102209
0.102181
0.102213
0.102162
0.102276
0.102112
0.102387
0.113402
0.102329
0.10232
0.102302
0.10228
0.102255
0.102234
0.102209
0.102202
0.102181
0.102204
0.102176
0.102248
0.102169
0.1023
0.111539
0.102302
0.102295
0.102281
0.102263
0.102242
0.102225
0.102205
0.102202
0.102187
0.102215
0.102192
0.102284
0.102143
0.102473
0.11437
0.102272
0.102267
0.102255
0.102242
0.102223
0.102211
0.102193
0.102189
0.102177
0.102187
0.102183
0.102173
0.102221
0.118431
0.108578
0.102247
0.102244
0.102234
0.102225
0.102211
0.102203
0.102191
0.102192
0.102191
0.102197
0.102226
0.102165
0.102358
0.111645
0.102218
0.102216
0.10221
0.102206
0.102193
0.102192
0.102177
0.102184
0.10217
0.102196
0.102126
0.102202
0.120004
0.107615
0.102209
0.102209
0.102203
0.102203
0.102189
0.102193
0.102184
0.102198
0.10219
0.102213
0.10217
0.102345
0.112757
0.102179
0.102182
0.102181
0.102188
0.102178
0.102192
0.102171
0.102191
0.102193
0.102221
0.10218
0.120061
0.109205
0.10221
0.102214
0.102205
0.102216
0.102188
0.102198
0.102197
0.102214
0.102221
0.102085
0.10247
0.11578
0.102155
0.102163
0.102177
0.102193
0.102185
0.102227
0.102127
0.102171
0.10218
0.102467
0.124085
0.102267
0.102277
0.102249
0.102285
0.102175
0.102167
0.102203
0.102347
0.12008
0.115807
0.102102
0.102113
0.102171
0.102144
0.102222
0.10236
0.120008
0.112762
0.109213
0.102363
0.102388
0.102301
0.102475
0.118434
0.111647
0.107617
0.11306
0.113408
0.111543
0.114372
0.10858
0.10107
0.101059
0.101041
0.101022
0.101005
0.100993
0.100986
0.101
0.101006
0.101065
0.101063
0.101211
0.101084
0.101392
0.112024
0.101059
0.10105
0.101034
0.101018
0.101002
0.100992
0.100987
0.101003
0.101011
0.101072
0.101074
0.101222
0.101104
0.101417
0.112365
0.101041
0.101035
0.101023
0.101009
0.100997
0.100989
0.100988
0.101005
0.101019
0.101076
0.1011
0.101218
0.101182
0.101365
0.110529
0.101022
0.101018
0.101009
0.101001
0.100992
0.10099
0.100993
0.101014
0.101036
0.101094
0.10113
0.10125
0.101185
0.101526
0.113367
0.101005
0.101002
0.100997
0.100992
0.100986
0.100989
0.100995
0.101014
0.101038
0.101079
0.101127
0.10114
0.10124
0.1174
0.107595
0.100993
0.100993
0.10099
0.10099
0.100989
0.100998
0.101009
0.101034
0.101068
0.101105
0.101174
0.101138
0.101374
0.110615
0.100986
0.100988
0.100989
0.100994
0.100995
0.101009
0.101018
0.101048
0.101069
0.101116
0.101094
0.101164
0.118959
0.106609
0.101
0.101004
0.101005
0.101015
0.101015
0.101035
0.101048
0.101086
0.10111
0.101165
0.10115
0.101324
0.111714
0.101006
0.101012
0.10102
0.101037
0.101039
0.101069
0.10107
0.101111
0.101145
0.101187
0.101186
0.118939
0.108173
0.101066
0.101073
0.101078
0.101096
0.10108
0.101107
0.101117
0.101166
0.101189
0.101122
0.101486
0.114696
0.101063
0.101076
0.101102
0.101132
0.101128
0.101177
0.101096
0.101152
0.101188
0.101489
0.122935
0.101211
0.101224
0.10122
0.101253
0.101142
0.10114
0.101166
0.101326
0.118959
0.114725
0.101085
0.101106
0.101184
0.101188
0.101242
0.101377
0.118965
0.111719
0.108181
0.101392
0.101419
0.101367
0.101528
0.117405
0.110618
0.106612
0.112024
0.112371
0.110534
0.11337
0.107598
0.0997567
0.0997479
0.0997369
0.0997269
0.0997233
0.0997242
0.0997402
0.099777
0.0998163
0.0999083
0.0999608
0.100165
0.10007
0.100469
0.110982
0.0997478
0.099741
0.0997331
0.0997247
0.0997231
0.0997257
0.0997445
0.0997821
0.0998255
0.0999173
0.0999758
0.100183
0.100104
0.100503
0.111318
0.0997369
0.0997333
0.0997274
0.0997232
0.0997242
0.099731
0.0997535
0.0997942
0.0998445
0.099941
0.100024
0.100211
0.100227
0.100516
0.109535
0.0997269
0.0997249
0.0997234
0.0997235
0.0997284
0.0997403
0.0997681
0.099812
0.0998704
0.0999674
0.100072
0.100238
0.100278
0.100674
0.112392
0.0997234
0.0997234
0.0997244
0.0997284
0.0997353
0.0997542
0.0997841
0.0998276
0.0998873
0.0999646
0.100077
0.100125
0.100304
0.116389
0.106656
0.0997243
0.0997263
0.0997314
0.0997409
0.0997545
0.0997799
0.099815
0.0998655
0.0999369
0.100011
0.100134
0.100125
0.10044
0.1096
0.0997403
0.0997452
0.0997541
0.0997688
0.0997848
0.0998154
0.0998495
0.099903
0.0999645
0.100038
0.10008
0.100142
0.11794
0.105637
0.0997774
0.0997831
0.0997953
0.0998133
0.0998288
0.0998665
0.0999035
0.0999694
0.100034
0.100128
0.10016
0.100323
0.110687
0.0998165
0.0998269
0.0998454
0.0998719
0.0998888
0.099938
0.0999656
0.100035
0.10011
0.10018
0.100239
0.117768
0.107155
0.0999088
0.0999192
0.0999433
0.09997
0.0999673
0.100013
0.10004
0.10013
0.100182
0.100221
0.100601
0.11358
0.0999612
0.0999778
0.100026
0.100075
0.10008
0.100138
0.100083
0.100163
0.100242
0.10061
0.121689
0.100166
0.100186
0.100214
0.100241
0.100128
0.100128
0.100146
0.100327
0.11779
0.113611
0.100071
0.100107
0.10023
0.100282
0.100307
0.100443
0.117947
0.110694
0.107165
0.10047
0.100506
0.100519
0.100677
0.116395
0.109604
0.105642
0.110982
0.111325
0.10954
0.112396
0.10666
0.0984289
0.0984244
0.0984206
0.0984191
0.0984273
0.0984381
0.0984749
0.0985403
0.0985997
0.0987615
0.0988059
0.0991479
0.0990188
0.0996249
0.109913
0.0984244
0.098421
0.0984195
0.0984195
0.0984297
0.0984421
0.0984819
0.0985472
0.0986133
0.0987698
0.0988323
0.099162
0.09907
0.0996762
0.110226
0.0984206
0.0984196
0.0984207
0.0984243
0.0984369
0.0984542
0.0985006
0.0985691
0.0986533
0.0988077
0.0989247
0.0992405
0.0992811
0.0998259
0.108539
0.0984191
0.0984196
0.0984244
0.0984316
0.0984489
0.0984716
0.0985246
0.0985936
0.0986953
0.0988324
0.0990093
0.099244
0.0994302
0.100006
0.111442
0.0984274
0.09843
0.0984371
0.0984487
0.0984648
0.0984995
0.0985556
0.0986221
0.0987277
0.0988306
0.0990145
0.0991043
0.0994119
0.115409
0.10579
0.0984383
0.0984428
0.0984548
0.0984727
0.0985
0.0985421
0.0986027
0.0986774
0.0987968
0.0988984
0.0991232
0.0990954
0.0995901
0.108595
0.0984751
0.0984829
0.0985016
0.0985256
0.0985564
0.0986032
0.0986617
0.0987401
0.0988453
0.098954
0.0990663
0.0991365
0.116959
0.104734
0.0985408
0.0985485
0.0985705
0.0985952
0.0986237
0.0986787
0.0987409
0.0988376
0.0989496
0.099098
0.0992075
0.0993574
0.109689
0.0986002
0.098615
0.098655
0.0986974
0.0987298
0.0987987
0.0988469
0.0989515
0.0990767
0.099198
0.0993499
0.116418
0.106149
0.0987623
0.0987721
0.0988103
0.0988353
0.0988337
0.0989013
0.098957
0.0991006
0.0992015
0.0994171
0.0999328
0.11236
0.0988065
0.0988351
0.0989276
0.0990128
0.0990181
0.0991271
0.0990699
0.0992114
0.0993513
0.0999279
0.120164
0.0991486
0.0991657
0.099244
0.0992478
0.0991088
0.0990993
0.0991409
0.0993629
0.116438
0.11239
0.0990193
0.0990741
0.0992852
0.0994345
0.0994165
0.099595
0.116967
0.109697
0.10616
0.099625
0.0996818
0.0998303
0.100011
0.115416
0.1086
0.10474
0.109913
0.110234
0.108546
0.111447
0.105795
0.0970949
0.0970946
0.0970949
0.0971025
0.0971201
0.0971511
0.0971941
0.0972863
0.0973505
0.0975777
0.0976067
0.0981166
0.0979061
0.0988882
0.10879
0.0970945
0.097093
0.0970966
0.0971052
0.0971249
0.0971566
0.0972029
0.0972929
0.0973663
0.0975816
0.0976396
0.0981198
0.0979685
0.0989706
0.109019
0.0970951
0.0970967
0.0971044
0.0971149
0.0971394
0.0971749
0.0972322
0.0973239
0.0974298
0.0976433
0.0977973
0.0982861
0.0983635
0.099412
0.107528
0.0971025
0.0971054
0.0971151
0.0971295
0.0971589
0.0971973
0.0972628
0.0973509
0.0974837
0.0976602
0.0979269
0.0982453
0.0986723
0.0996908
0.110508
0.0971203
0.0971253
0.0971398
0.0971591
0.0971925
0.0972361
0.0973082
0.097391
0.0975333
0.0976646
0.0979288
0.0980626
0.098535
0.11451
0.105048
0.0971514
0.0971573
0.0971755
0.097198
0.0972366
0.0972879
0.0973687
0.0974632
0.0976259
0.0977573
0.0980984
0.0980607
0.0988689
0.10761
0.0971945
0.0972039
0.0972332
0.0972639
0.0973092
0.0973693
0.0974507
0.0975507
0.0977002
0.0978439
0.0980566
0.0981341
0.116044
0.104021
0.0972869
0.0972944
0.0973255
0.0973528
0.0973928
0.0974646
0.0975516
0.097686
0.0978303
0.0980575
0.0982459
0.0984482
0.108739
0.0973513
0.0973684
0.0974321
0.0974864
0.0975359
0.0976282
0.0977019
0.0978308
0.0979962
0.0981337
0.0984915
0.114864
0.105187
0.0975787
0.0975845
0.0976464
0.0976638
0.0976684
0.0977608
0.0978478
0.0980598
0.09814
0.0986322
0.0996405
0.110891
0.0976075
0.0976431
0.0978012
0.0979314
0.0979333
0.0981033
0.0980613
0.098251
0.0984951
0.0996436
0.117875
0.0981173
0.0981248
0.0982907
0.0982502
0.0980682
0.098066
0.0981402
0.0984552
0.114887
0.110927
0.0979065
0.0979741
0.098369
0.0986778
0.0985409
0.0988749
0.116053
0.108749
0.105201
0.0988875
0.0989794
0.0994187
0.0996971
0.114519
0.107617
0.104028
0.108791
0.109031
0.107537
0.110515
0.105056
0.0957615
0.0957644
0.0957709
0.0957835
0.095805
0.0958457
0.0958907
0.0960029
0.0960628
0.0963469
0.096346
0.0970456
0.0966792
0.0982813
0.107589
0.0957644
0.0957666
0.0957747
0.0957874
0.0958112
0.0958516
0.0959002
0.0960075
0.0960776
0.0963409
0.0963746
0.0970118
0.0967576
0.0983151
0.107616
0.095771
0.0957747
0.0957855
0.0958008
0.0958308
0.0958747
0.0959387
0.0960476
0.0961687
0.0964325
0.0966282
0.0973019
0.0974459
0.0994934
0.106542
0.0957836
0.0957875
0.095801
0.0958187
0.0958531
0.0958983
0.095972
0.0960722
0.0962259
0.0964284
0.0967882
0.0971535
0.0979692
0.0999664
0.109669
0.0958052
0.0958117
0.0958312
0.0958534
0.0958955
0.0959449
0.0960295
0.0961226
0.0962943
0.0964451
0.0967954
0.096958
0.0975892
0.113952
0.10467
0.0958461
0.0958523
0.0958755
0.0958991
0.0959454
0.0960031
0.0960982
0.0962089
0.0964062
0.0965686
0.0970356
0.0969847
0.0983026
0.106806
0.0958913
0.0959013
0.09594
0.0959733
0.0960307
0.0960989
0.096202
0.0963217
0.0965227
0.0967147
0.0970827
0.097144
0.115267
0.103987
0.0960037
0.0960092
0.0960495
0.0960744