/*--------------------------------*- C++ -*----------------------------------*\
| =========                 |                                                 |
| \\      /  F ield         | OpenFOAM: The Open Source CFD Toolbox           |
|  \\    /   O peration     | Version:  2.1.1                                 |
|   \\  /    A nd           | Web:      www.OpenFOAM.org                      |
|    \\/     M anipulation  |                                                 |
\*---------------------------------------------------------------------------*/
FoamFile
{
    version     2.0;
    format      ascii;
    class       surfaceScalarField;
    location    "0.0035";
    object      phi;
}
// * * * * * * * * * * * * * * * * * * * * * * * * * * * * * * * * * * * * * //

dimensions      [0 3 -1 0 0 0 0];

internalField   nonuniform List<scalar> 
29776
(
-3.05886e-12
-9.21225e-14
-2.9325e-12
6.08361e-12
-2.61448e-12
2.24069e-13
-3.06567e-13
-2.94567e-12
5.64265e-12
2.29789e-12
5.08561e-12
9.80789e-10
6.92289e-11
6.93971e-11
-6.67655e-11
-6.69082e-11
7.47866e-11
4.6139e-12
7.97386e-10
6.99968e-11
7.31094e-11
-6.57913e-11
-7.03903e-11
4.96633e-11
-7.04454e-11
-4.69951e-11
1.95158e-11
-5.82578e-11
1.81565e-11
-1.63284e-11
1.11701e-10
1.38672e-11
-5.83395e-11
-7.73569e-12
2.36992e-12
-1.85996e-11
7.59096e-11
1.37224e-11
-1.06924e-11
-1.05019e-11
-4.86368e-11
1.35019e-11
-1.83611e-11
6.19819e-11
-2.86285e-13
1.18717e-11
-1.02908e-11
-9.69863e-12
-1.01204e-11
1.38429e-11
8.71867e-12
-1.2523e-11
-3.7262e-12
-5.95633e-13
-3.23251e-13
-2.5503e-12
7.19538e-12
-1.34843e-13
6.70346e-12
1.22197e-09
-1.37218e-12
5.98567e-12
1.20272e-09
2.44562e-12
2.28336e-12
9.62984e-10
4.79101e-11
6.17434e-11
-4.67008e-11
-6.06088e-11
2.6094e-12
1.85899e-12
9.67629e-10
6.48264e-11
6.70567e-11
-6.2816e-11
-6.51943e-11
4.39077e-12
2.8456e-12
9.78178e-10
6.71395e-11
6.76001e-11
-6.55634e-11
-6.5111e-11
6.68425e-11
3.45737e-12
8.0728e-10
6.77444e-11
6.84937e-11
-6.37233e-11
-6.56553e-11
4.69427e-11
-6.27035e-11
-4.4694e-11
-4.02757e-11
1.31592e-11
1.63103e-11
-1.39977e-11
9.00654e-11
1.71695e-11
-7.769e-12
-7.81942e-12
3.68431e-13
1.51402e-12
-1.46273e-11
2.31315e-12
-2.99293e-12
1.34246e-11
9.1974e-13
6.09201e-12
1.198e-09
2.21821e-12
5.72849e-12
1.21441e-09
1.62818e-12
5.83163e-12
1.20418e-09
2.08762e-14
5.0679e-12
1.21243e-09
-5.05999e-13
5.30244e-12
1.22249e-09
-6.17799e-13
4.93118e-12
1.19628e-09
2.88389e-12
1.28251e-12
9.44383e-10
4.78147e-11
6.22518e-11
-4.69276e-11
-6.12135e-11
6.82705e-11
2.07702e-12
8.22051e-10
6.42252e-11
6.43394e-11
-6.13934e-11
-6.19054e-11
4.64687e-11
-6.38745e-11
-4.52743e-11
-2.87707e-11
1.05241e-11
-5.41348e-12
7.87829e-11
1.69057e-11
-6.47578e-12
-7.20764e-12
-8.00022e-12
1.58406e-11
1.11494e-11
-9.0635e-12
-9.63597e-13
5.97027e-13
-2.03437e-12
2.40094e-12
-8.30869e-13
4.9844e-12
1.18336e-09
-1.61495e-12
4.93231e-12
1.18781e-09
-3.99659e-13
5.16256e-12
1.19574e-09
9.78586e-14
4.34043e-12
1.19464e-09
2.54053e-13
4.53715e-12
1.19742e-09
2.07356e-13
3.93024e-12
1.2078e-09
-2.24891e-12
4.6104e-12
1.20567e-09
-8.70601e-13
3.62427e-12
1.1908e-09
6.73741e-11
1.61883e-12
7.63136e-10
4.46073e-11
6.79685e-11
-4.40556e-11
-6.52561e-11
4.92964e-11
-6.4516e-11
-4.63801e-11
1.83653e-11
-6.03023e-11
1.36979e-11
-1.52405e-11
1.10855e-10
2.89837e-12
-1.01274e-11
1.43347e-12
5.79554e-12
1.49329e-13
3.74924e-12
1.18293e-09
3.18594e-13
3.64475e-12
1.18302e-09
5.19856e-13
4.20711e-12
1.18489e-09
1.40679e-14
3.59437e-12
1.18329e-09
-4.57015e-13
3.55342e-12
1.18297e-09
-1.52262e-12
3.32895e-12
1.18466e-09
-1.60752e-12
2.94142e-12
1.19593e-09
-1.93129e-12
4.004e-12
1.22498e-09
-1.87872e-12
2.79546e-12
1.18046e-09
6.83773e-11
1.85357e-12
7.69011e-10
5.05208e-11
6.83888e-11
-4.83007e-11
-6.67882e-11
5.05031e-11
-6.67678e-11
-4.82705e-11
1.89591e-11
-6.35574e-11
1.33297e-11
-1.55218e-11
1.15168e-10
3.22361e-12
-1.10106e-11
1.57624e-12
6.21074e-12
-3.0452e-13
3.10416e-12
1.18022e-09
-6.2454e-13
2.98232e-12
1.18026e-09
-4.31081e-13
3.19593e-12
1.18177e-09
-4.90018e-13
2.79495e-12
1.18134e-09
-7.557e-13
2.88501e-12
1.18216e-09
-1.06564e-12
2.60406e-12
1.18187e-09
-2.23309e-12
2.67462e-12
1.18421e-09
-2.80121e-12
2.75098e-12
1.19586e-09
-2.79213e-12
2.80962e-12
1.2281e-09
-1.61967e-12
1.90805e-12
1.18013e-09
6.79614e-11
9.01524e-13
7.62706e-10
4.46114e-11
-6.52663e-11
-4.40832e-11
4.93092e-11
6.72828e-11
-4.63959e-11
-6.44374e-11
-3.97602e-11
1.91726e-11
-8.91626e-12
9.04516e-11
-7.95348e-12
1.29211e-11
1.11566e-11
-9.11008e-12
-8.90894e-14
2.45434e-12
1.17844e-09
-2.42442e-13
2.36202e-12
1.17849e-09
-3.76043e-13
2.58677e-12
1.17915e-09
-7.11047e-13
2.34288e-12
1.17916e-09
-1.04947e-12
2.39832e-12
1.18002e-09
-1.52303e-12
2.26425e-12
1.18068e-09
-2.06331e-12
2.10591e-12
1.18197e-09
-2.75556e-12
2.0692e-12
1.18369e-09
-4.01003e-12
2.23685e-12
1.19578e-09
-3.6451e-12
1.59188e-12
1.22482e-09
-2.09108e-12
2.27025e-12
1.19061e-09
6.43461e-11
-2.96491e-12
8.2207e-10
4.64585e-11
6.82775e-11
-4.52517e-11
-6.38453e-11
6.42433e-11
-6.19046e-11
-6.13612e-11
-3.8549e-11
1.10524e-11
-7.18402e-12
8.95144e-11
1.96938e-11
-9.05761e-12
-9.76537e-12
-1.0081e-11
1.35815e-11
1.47796e-11
-9.63797e-12
-2.40465e-13
1.95167e-12
1.17681e-09
-5.12519e-13
1.8946e-12
1.17693e-09
-6.70462e-13
1.98267e-12
1.17756e-09
-9.257e-13
1.83703e-12
1.17776e-09
-1.26942e-12
1.86964e-12
1.17869e-09
-1.62367e-12
1.77553e-12
1.17951e-09
-2.09318e-12
1.6317e-12
1.18126e-09
-2.67042e-12
1.5296e-12
1.18199e-09
-2.93409e-12
1.06425e-12
1.18411e-09
-4.64797e-12
1.52298e-12
1.19574e-09
-1.24468e-12
-2.35511e-13
1.20539e-09
6.20982e-11
6.76403e-13
9.44493e-10
4.76778e-11
-6.1193e-11
-4.69364e-11
-5.02323e-11
2.99318e-12
1.40945e-11
-6.09693e-12
1.0134e-10
1.30404e-12
6.56301e-13
-1.12445e-11
-1.89489e-13
9.47361e-12
-1.87668e-13
1.47991e-12
1.1759e-09
-4.1301e-13
1.44968e-12
1.17598e-09
-6.43426e-13
1.52404e-12
1.17633e-09
-9.61422e-13
1.43588e-12
1.17652e-09
-1.34875e-12
1.4536e-12
1.17726e-09
-1.76473e-12
1.3612e-12
1.17801e-09
-2.25523e-12
1.27577e-12
1.17953e-09
-2.61399e-12
1.06468e-12
1.18064e-09
-3.34502e-12
7.47535e-13
1.18174e-09
-4.00595e-12
4.8669e-13
1.18453e-09
-5.05678e-12
-3.00459e-13
1.20762e-09
-3.63208e-12
6.34292e-13
1.19631e-09
6.7998e-11
-4.41523e-12
8.07584e-10
4.69079e-11
6.702e-11
-4.46929e-11
-6.25847e-11
6.71213e-11
-6.59862e-11
-6.40652e-11
-4.07868e-11
1.16094e-11
-6.11822e-12
9.26965e-11
1.65502e-11
-7.90201e-12
-7.62057e-12
-9.38592e-12
1.28878e-11
1.44185e-11
-8.35075e-12
-2.36436e-13
1.10515e-12
1.17532e-09
-4.93281e-13
1.0853e-12
1.1754e-09
-7.50553e-13
1.11753e-12
1.17568e-09
-1.05652e-12
1.05656e-12
1.17592e-09
-1.44292e-12
1.06589e-12
1.17662e-09
-1.8572e-12
9.73095e-13
1.17728e-09
-2.38543e-12
9.29461e-13
1.17865e-09
-2.88649e-12
7.33251e-13
1.17995e-09
-3.56719e-12
4.71446e-13
1.18207e-09
-4.59067e-12
2.75176e-14
1.18286e-09
-5.45266e-12
-1.37716e-13
1.19727e-09
-3.08223e-12
1.60807e-13
1.22243e-09
6.7535e-11
-2.65292e-12
9.78291e-10
6.66065e-11
-6.52376e-11
-6.56224e-11
-4.01967e-11
1.79198e-13
5.55328e-12
9.14221e-11
-7.20764e-12
1.44972e-11
1.28404e-11
-9.55266e-12
-1.25062e-12
-3.14694e-13
-5.06987e-13
2.0723e-12
-2.21229e-13
7.76268e-13
1.17511e-09
-4.63535e-13
7.63387e-13
1.17513e-09
-7.33548e-13
7.87493e-13
1.17526e-09
-1.04665e-12
7.43203e-13
1.17544e-09
-1.42474e-12
7.59071e-13
1.17592e-09
-1.82628e-12
6.53738e-13
1.1765e-09
-2.33125e-12
6.68872e-13
1.17773e-09
-2.80162e-12
4.15708e-13
1.1791e-09
-3.61498e-12
4.04264e-13
1.18125e-09
-4.38361e-12
-4.68423e-13
1.18315e-09
-5.24235e-12
4.27002e-13
1.19449e-09
-2.05477e-12
-1.42908e-12
1.21218e-09
6.67194e-11
-2.29207e-12
9.67691e-10
6.44117e-11
-6.51167e-11
-6.28533e-11
-2.05284e-12
-5.04764e-11
1.94009e-11
-1.1421e-12
1.00989e-10
1.63278e-12
9.12564e-13
-1.41715e-11
2.06495e-12
1.80706e-13
9.38046e-12
-2.37266e-13
4.95341e-13
1.1752e-09
-4.93879e-13
4.87859e-13
1.17515e-09
-7.77796e-13
5.04547e-13
1.17524e-09
-1.10631e-12
4.75271e-13
1.17531e-09
-1.5141e-12
4.99998e-13
1.17568e-09
-1.97437e-12
4.19486e-13
1.1763e-09
-2.57985e-12
5.08669e-13
1.17751e-09
-3.19435e-12
2.84016e-13
1.17908e-09
-4.2279e-12
6.02847e-13
1.18169e-09
-5.21362e-12
-2.87194e-13
1.18478e-09
-5.95849e-12
1.56926e-12
1.19563e-09
-2.43627e-12
-2.07382e-12
1.20393e-09
6.15314e-11
1.43975e-12
9.63011e-10
4.78584e-11
-6.06382e-11
-4.67261e-11
-4.24168e-11
5.3449e-12
1.56395e-11
-8.26445e-12
9.12284e-11
4.23597e-12
3.38664e-13
-1.37449e-11
2.32618e-12
-1.48441e-12
8.32853e-12
-2.26371e-13
2.35039e-13
1.17552e-09
-4.79967e-13
2.34696e-13
1.17536e-09
-7.54436e-13
2.45036e-13
1.17522e-09
-1.07625e-12
2.30148e-13
1.17513e-09
-1.44185e-12
2.43332e-13
1.17538e-09
-1.88699e-12
1.95551e-13
1.17594e-09
-2.36229e-12
2.42631e-13
1.17689e-09
-2.97674e-12
1.18018e-13
1.17843e-09
-3.66631e-12
2.9343e-13
1.18019e-09
-4.95996e-12
-1.29683e-13
1.1829e-09
-5.82657e-12
8.00907e-13
1.18774e-09
-6.12006e-12
-8.43852e-13
1.21414e-09
-4.563e-12
1.26081e-13
1.20265e-09
7.2262e-11
-2.29494e-12
7.97465e-10
6.96311e-11
-7.06677e-11
-6.58265e-11
4.96378e-11
7.46822e-11
-4.70077e-11
-7.03361e-11
-6.07219e-11
2.1951e-11
-1.53194e-11
1.17776e-10
-9.59258e-12
1.12283e-11
1.42317e-11
-7.29074e-12
-2.26271e-13
1.17595e-09
-4.80305e-13
1.17555e-09
-7.64541e-13
1.17521e-09
-1.09899e-12
1.17511e-09
-1.47564e-12
1.17531e-09
-1.94725e-12
1.17588e-09
-2.45867e-12
1.17678e-09
-3.09842e-12
1.17839e-09
-3.76336e-12
1.18018e-09
-4.99032e-12
1.18281e-09
-6.14606e-12
1.18332e-09
-6.78463e-12
1.19774e-09
-5.05006e-12
1.22202e-09
6.88963e-11
9.80609e-10
6.85705e-11
-6.70273e-11
-6.69911e-11
-4.29087e-11
6.5856e-12
-1.85542e-12
9.62827e-11
-9.87587e-12
1.53752e-11
1.53921e-11
-1.00995e-11
-3.22001e-12
-9.09509e-14
-2.7738e-12
6.08493e-12
-2.77123e-12
2.22887e-13
-3.02686e-13
-2.76653e-12
5.61757e-12
1.51065e-12
9.35509e-13
9.77062e-10
6.6783e-11
6.71153e-11
-6.62601e-11
-6.63629e-11
7.24441e-11
1.63138e-12
7.93888e-10
6.72966e-11
7.05221e-11
-6.54508e-11
-7.00706e-11
4.84063e-11
-7.13291e-11
-4.84439e-11
1.7713e-11
-5.93986e-11
1.61675e-11
-1.49203e-11
1.12883e-10
1.32751e-11
-5.87236e-11
-6.88092e-12
1.92335e-12
-1.6711e-11
7.55845e-11
1.31321e-11
-1.09229e-11
-1.06766e-11
-4.86957e-11
1.29614e-11
-1.58554e-11
6.17778e-11
8.19975e-14
1.12997e-11
-1.05233e-11
-9.86909e-12
-1.03021e-11
1.33389e-11
8.453e-12
-1.26671e-11
-3.87838e-12
-5.36377e-13
-3.33228e-13
-2.43419e-12
7.18217e-12
-1.00933e-12
2.05311e-12
1.22185e-09
-2.29618e-12
2.7245e-12
1.20291e-09
9.80316e-13
-6.22155e-13
9.60491e-10
4.71827e-11
6.09339e-11
-4.76352e-11
-6.06431e-11
1.70724e-12
-1.2421e-12
9.66353e-10
6.36755e-11
6.54843e-11
-6.26541e-11
-6.47144e-11
2.80564e-12
-6.48974e-14
9.75899e-10
6.48925e-11
6.62692e-11
-6.54746e-11
-6.44422e-11
6.59336e-11
1.57511e-12
8.04915e-10
6.49158e-11
6.71159e-11
-6.40692e-11
-6.5997e-11
4.61353e-11
-6.40536e-11
-4.63846e-11
-4.13478e-11
1.2227e-11
1.49529e-11
-1.19376e-11
9.18861e-11
1.66537e-11
-8.35344e-12
-8.14704e-12
4.23601e-15
1.52296e-12
-1.4325e-11
2.16964e-12
-2.81863e-12
1.34468e-11
5.14918e-13
1.10424e-12
1.19843e-09
1.94485e-12
1.38771e-12
1.21432e-09
1.03545e-12
2.01542e-12
1.20245e-09
-4.76027e-13
1.72888e-12
1.21097e-09
-1.39215e-12
1.71441e-12
1.22163e-09
-1.89959e-12
2.3189e-12
1.19604e-09
2.72527e-12
-1.73541e-12
9.42636e-10
4.65822e-11
6.10991e-11
-4.77713e-11
-6.10508e-11
6.75707e-11
1.33818e-12
8.19572e-10
6.26269e-11
6.36542e-11
-6.17996e-11
-6.23111e-11
4.53152e-11
-6.43634e-11
-4.68242e-11
-3.00734e-11
9.9156e-12
-3.29854e-12
8.04199e-11
1.65656e-11
-6.94574e-12
-7.52228e-12
-8.33441e-12
1.54981e-11
1.07138e-11
-9.36701e-12
-9.88768e-13
5.59773e-13
-1.98268e-12
2.41167e-12
-4.84323e-13
8.29133e-13
1.18411e-09
-9.06987e-13
9.44825e-13
1.18868e-09
-1.46375e-13
9.56778e-13
1.19604e-09
3.08203e-13
6.38535e-13
1.19527e-09
5.07339e-13
7.95499e-13
1.19814e-09
1.17873e-12
8.81633e-13
1.20856e-09
-1.91368e-12
1.82539e-12
1.20521e-09
-4.15676e-13
1.46539e-12
1.18918e-09
6.59788e-11
-7.27266e-13
7.61625e-10
4.31473e-11
6.71049e-11
-4.51419e-11
-6.47935e-11
4.83194e-11
-6.50442e-11
-4.77465e-11
1.72209e-11
-6.19012e-11
1.2077e-11
-1.39051e-11
1.12488e-10
2.70581e-12
-9.95157e-12
1.47699e-12
5.76878e-12
1.8513e-13
6.37597e-13
1.18293e-09
3.41933e-13
6.18059e-13
1.18319e-09
2.88747e-13
9.07219e-13
1.185e-09
-5.18128e-14
7.30686e-13
1.18353e-09
-1.8233e-13
6.89597e-13
1.18321e-09
-5.56208e-13
8.2055e-13
1.1851e-09
1.79271e-13
4.22742e-13
1.1966e-09
-5.23968e-13
1.55881e-12
1.22559e-09
-1.22014e-13
7.56867e-13
1.17857e-09
6.74006e-11
1.03882e-13
7.67877e-10
4.97138e-11
6.74176e-11
-4.96069e-11
-6.70705e-11
4.96871e-11
-6.70561e-11
-4.95788e-11
1.79405e-11
-6.52487e-11
1.18716e-11
-1.39645e-11
1.16802e-10
3.02432e-12
-1.08346e-11
1.61397e-12
6.19633e-12
-1.24335e-13
6.27583e-13
1.18035e-09
-2.76668e-13
5.75725e-13
1.18045e-09
-1.75607e-13
6.46376e-13
1.18193e-09
-1.24051e-13
5.45675e-13
1.18148e-09
-1.62597e-13
6.15335e-13
1.18227e-09
-4.47318e-14
5.86676e-13
1.18199e-09
-5.04515e-13
6.20447e-13
1.18447e-09
-2.86866e-13
5.76545e-13
1.19662e-09
-6.73129e-13
2.83394e-13
1.22896e-09
7.26256e-13
5.97495e-13
1.17824e-09
6.71102e-11
4.14271e-13
7.61198e-10
4.31583e-11
-6.48002e-11
-4.5161e-11
4.8339e-11
6.58998e-11
-4.7762e-11
-6.4961e-11
-4.10681e-11
1.78337e-11
-7.09633e-12
9.1837e-11
-8.3297e-12
1.26296e-11
1.06288e-11
-9.32453e-12
-2.1542e-15
5.25166e-13
1.17854e-09
-4.16332e-14
4.94817e-13
1.17861e-09
-8.47163e-14
5.92659e-13
1.17925e-09
-1.98723e-13
5.427e-13
1.17928e-09
-2.84372e-13
5.66447e-13
1.18015e-09
-4.07901e-13
5.86136e-13
1.18081e-09
-4.32274e-13
4.85801e-13
1.18213e-09
-5.835e-13
4.39987e-13
1.18398e-09
-1.57031e-12
5.05736e-13
1.19655e-09
-1.46104e-12
-1.53672e-13
1.22547e-09
-1.35696e-12
1.9122e-12
1.18901e-09
6.36476e-11
-2.72196e-12
8.19565e-10
4.5302e-11
6.75745e-11
-4.68081e-11
-6.4346e-11
6.26359e-11
-6.23231e-11
-6.18104e-11
-3.94726e-11
1.05746e-11
-5.82222e-12
9.12345e-11
1.93889e-11
-9.48911e-12
-1.01421e-11
-1.04858e-11
1.34847e-11
1.4422e-11
-1.0045e-11
-7.00059e-14
4.25784e-13
1.17698e-09
-1.49655e-13
4.11014e-13
1.17709e-09
-1.72923e-13
4.43323e-13
1.17773e-09
-2.12496e-13
4.14725e-13
1.17793e-09
-3.04415e-13
4.29005e-13
1.17892e-09
-3.7736e-13
4.40313e-13
1.17973e-09
-4.79998e-13
3.85147e-13
1.18147e-09
-6.24615e-13
4.19916e-13
1.18216e-09
-4.44898e-13
5.19351e-14
1.18438e-09
-1.86277e-12
5.72789e-13
1.19644e-09
1.6844e-12
-1.21736e-12
1.20498e-09
6.10939e-11
2.02643e-12
9.42601e-10
4.6585e-11
-6.10699e-11
-4.77794e-11
-5.17938e-11
2.29838e-12
1.22584e-11
-4.77631e-12
1.03107e-10
1.02686e-12
5.91749e-13
-1.09666e-11
-2.32672e-13
9.58069e-12
-3.6893e-14
3.25964e-13
1.17604e-09
-8.68913e-14
3.20918e-13
1.17612e-09
-1.41006e-13
3.53195e-13
1.17648e-09
-2.18402e-13
3.37683e-13
1.17668e-09
-3.22859e-13
3.42383e-13
1.17745e-09
-4.3145e-13
3.36339e-13
1.17822e-09
-5.80801e-13
3.13476e-13
1.17975e-09
-5.89968e-13
3.02003e-13
1.18077e-09
-8.42716e-13
1.7708e-13
1.18187e-09
-9.14759e-13
2.05891e-13
1.18497e-09
-2.40649e-12
-5.4462e-13
1.20844e-09
-1.56968e-12
1.44945e-12
1.19605e-09
6.71494e-11
-2.74979e-12
8.05034e-10
4.61263e-11
6.59655e-11
-4.63917e-11
-6.40395e-11
6.49412e-11
-6.59776e-11
-6.40442e-11
-4.1429e-11
1.109e-11
-4.87682e-12
9.43105e-11
1.61623e-11
-8.34878e-12
-7.94102e-12
-9.74669e-12
1.25348e-11
1.40264e-11
-8.63255e-12
-5.56107e-14
2.45704e-13
1.17546e-09
-1.17076e-13
2.43829e-13
1.17554e-09
-1.75142e-13
2.55858e-13
1.17584e-09
-2.36765e-13
2.43884e-13
1.17608e-09
-3.31992e-13
2.47296e-13
1.17681e-09
-4.20083e-13
2.31134e-13
1.17747e-09
-5.60916e-13
2.19631e-13
1.17889e-09
-6.16206e-13
2.13447e-13
1.18009e-09
-7.03395e-13
1.35163e-13
1.1822e-09
-8.29871e-13
8.03608e-14
1.18311e-09
-1.80805e-12
-3.37322e-13
1.19804e-09
-3.94584e-14
5.01279e-13
1.2216e-09
6.62459e-11
-1.61801e-12
9.75918e-10
6.49331e-11
-6.44753e-11
-6.55027e-11
-4.0783e-11
-2.66355e-13
5.62594e-12
9.25268e-11
-7.50095e-12
1.41212e-11
1.23164e-11
-9.79445e-12
-1.22743e-12
-3.54612e-13
-5.1649e-13
2.09853e-12
-4.56356e-14
1.76507e-13
1.17523e-09
-9.99598e-14
1.74585e-13
1.17525e-09
-1.64249e-13
1.85337e-13
1.1754e-09
-2.32988e-13
1.7537e-13
1.17557e-09
-3.26948e-13
1.85439e-13
1.17607e-09
-4.06602e-13
1.53458e-13
1.17666e-09
-5.4e-13
1.78186e-13
1.1779e-09
-5.50049e-13
9.50799e-14
1.17923e-09
-7.45727e-13
1.79316e-13
1.1814e-09
-6.78598e-13
-2.58687e-13
1.18343e-09
-1.84284e-12
1.3589e-13
1.19518e-09
9.86782e-13
-1.0019e-12
1.21086e-09
6.54846e-11
-8.58939e-13
9.66284e-10
6.3632e-11
-6.47771e-11
-6.2706e-11
-1.99767e-12
-5.13101e-11
1.75838e-11
-9.03059e-13
1.02112e-10
1.27002e-12
9.08813e-13
-1.3804e-11
2.06265e-12
1.64179e-13
9.39837e-12
-5.06638e-14
1.14626e-13
1.17532e-09
-1.08495e-13
1.12448e-13
1.17527e-09
-1.74697e-13
1.20177e-13
1.17538e-09
-2.45241e-13
1.11794e-13
1.17545e-09
-3.44352e-13
1.26423e-13
1.17583e-09
-4.37042e-13
9.66878e-14
1.17645e-09
-5.90768e-13
1.53958e-13
1.17769e-09
-6.50343e-13
4.86592e-14
1.17919e-09
-9.23485e-13
2.75201e-13
1.18187e-09
-9.99734e-13
-3.17635e-13
1.18492e-09
-2.1124e-12
8.96509e-13
1.19598e-09
3.86465e-13
-1.91118e-12
1.20234e-09
6.0872e-11
2.45112e-12
9.60449e-10
4.71246e-11
-6.06906e-11
-4.76697e-11
-4.38937e-11
4.79774e-12
1.40169e-11
-6.5761e-12
9.25273e-11
3.81522e-12
3.25212e-13
-1.33825e-11
2.37649e-12
-1.29018e-12
8.15573e-12
-4.74206e-14
5.52159e-14
1.17563e-09
-1.04189e-13
5.70567e-14
1.17547e-09
-1.65168e-13
6.18579e-14
1.17534e-09
-2.34431e-13
5.75478e-14
1.17526e-09
-3.13598e-13
6.52975e-14
1.17552e-09
-4.05261e-13
4.6162e-14
1.17609e-09
-4.92986e-13
7.50662e-14
1.17705e-09
-5.79422e-13
1.31412e-14
1.17855e-09
-6.32897e-13
1.24155e-13
1.18039e-09
-9.81208e-13
-1.69972e-13
1.1831e-09
-1.43857e-12
4.76743e-13
1.18861e-09
-2.86948e-12
-4.942e-13
1.21415e-09
-1.62771e-12
1.07616e-12
1.20278e-09
7.05436e-11
-1.47795e-12
7.93754e-10
6.73219e-11
-7.00287e-11
-6.54002e-11
4.84042e-11
7.25121e-11
-4.84721e-11
-7.13198e-11
-6.13046e-11
2.05166e-11
-1.45792e-11
1.18693e-10
-9.91269e-12
1.09288e-11
1.37553e-11
-7.55335e-12
-4.48949e-14
1.17606e-09
-1.00512e-13
1.17566e-09
-1.65631e-13
1.17534e-09
-2.39766e-13
1.17523e-09
-3.21798e-13
1.17546e-09
-4.22444e-13
1.17602e-09
-5.25978e-13
1.17696e-09
-6.31183e-13
1.1785e-09
-6.52839e-13
1.18032e-09
-8.6166e-13
1.18284e-09
-1.13299e-12
1.18407e-09
-2.1493e-12
1.19827e-09
-8.51412e-13
1.2218e-09
6.71178e-11
9.76884e-10
6.68116e-11
-6.63027e-11
-6.62277e-11
-4.36365e-11
6.25831e-12
-1.70426e-12
9.70644e-11
-1.02278e-11
1.49031e-11
1.48852e-11
-1.04248e-11
-3.25866e-12
-8.85053e-14
-2.76022e-12
6.10595e-12
-2.80463e-12
2.22352e-13
-2.99033e-13
-2.75082e-12
5.63213e-12
3.5137e-13
-2.19222e-12
9.78706e-10
6.64135e-11
6.68223e-11
-6.647e-11
-6.65728e-11
7.17782e-11
-1.55449e-12
7.95683e-10
6.70585e-11
7.03554e-11
-6.56592e-11
-7.0191e-11
4.80806e-11
-7.22579e-11
-4.90552e-11
1.73423e-11
-5.95876e-11
1.57183e-11
-1.50001e-11
1.13304e-10
1.32399e-11
-5.90697e-11
-6.53722e-12
1.66514e-12
-1.64884e-11
7.58044e-11
1.3152e-11
-1.1036e-11
-1.07302e-11
-4.89368e-11
1.29503e-11
-1.55528e-11
6.18938e-11
1.90835e-13
1.13043e-11
-1.06037e-11
-9.9225e-12
-1.04002e-11
1.33479e-11
8.46656e-12
-1.27376e-11
-3.91615e-12
-5.24843e-13
-3.34722e-13
-2.43294e-12
7.20865e-12
-1.95843e-14
-2.73698e-12
1.22241e-09
-2.70914e-13
-2.07761e-12
1.20368e-09
5.96575e-13
-3.59388e-12
9.62505e-10
4.73022e-11
6.14916e-11
-4.76837e-11
-6.03985e-11
7.27751e-13
-2.70733e-12
9.67427e-10
6.35499e-11
6.55273e-11
-6.28674e-11
-6.47078e-11
9.00104e-13
-1.66896e-12
9.7724e-10
6.45072e-11
6.60888e-11
-6.58418e-11
-6.45994e-11
6.53966e-11
3.39499e-13
8.05271e-10
6.45586e-11
6.70034e-11
-6.44255e-11
-6.6229e-11
4.58319e-11
-6.49633e-11
-4.69668e-11
-4.16699e-11
1.2144e-11
1.46126e-11
-1.19685e-11
9.23372e-11
1.6648e-11
-8.4825e-12
-8.22314e-12
-9.02602e-14
1.51953e-12
-1.43207e-11
2.14983e-12
-2.77368e-12
1.35153e-11
2.12291e-13
-3.26595e-12
1.19875e-09
9.10774e-13
-3.14447e-12
1.21468e-09
-3.26215e-13
-2.43675e-12
1.20253e-09
-1.47661e-12
-1.69874e-12
1.21111e-09
-1.78392e-12
-1.59187e-12
1.22186e-09
-1.23468e-12
-4.97726e-13
1.19633e-09
2.08637e-12
-2.76078e-12
9.42492e-10
4.67052e-11
6.15166e-11
-4.77644e-11
-6.08695e-11
6.73986e-11
5.50891e-13
8.19531e-10
6.24655e-11
6.35073e-11
-6.21446e-11
-6.26582e-11
4.50884e-11
-6.48504e-11
-4.72269e-11
-3.02865e-11
9.85112e-12
-3.25323e-12
8.08406e-11
1.65955e-11
-7.04974e-12
-7.57975e-12
-8.43952e-12
1.55021e-11
1.06686e-11
-9.44977e-12
-9.8728e-13
5.5181e-13
-1.9828e-12
2.41826e-12
-1.80756e-13
-2.7699e-12
1.18379e-09
-5.95472e-13
-2.66583e-12
1.18861e-09
-5.81452e-13
-2.79734e-12
1.19639e-09
-1.36629e-13
-2.38385e-12
1.19551e-09
5.30141e-14
-2.15685e-12
1.19852e-09
8.75773e-13
-1.80114e-12
1.20905e-09
-1.48542e-12
-6.90481e-13
1.2055e-09
-6.44759e-13
-8.77967e-13
1.18977e-09
6.58062e-11
-1.44169e-12
7.61742e-10
4.31549e-11
6.72481e-11
-4.52547e-11
-6.4871e-11
4.8164e-11
-6.5455e-11
-4.81137e-11
1.69931e-11
-6.22403e-11
1.18407e-11
-1.37496e-11
1.12963e-10
2.67268e-12
-9.97831e-12
1.50366e-12
5.80197e-12
7.70944e-14
-2.22002e-12
1.18231e-09
1.10457e-13
-2.18971e-12
1.18268e-09
-1.03442e-13
-2.10936e-12
1.18452e-09
-1.70889e-13
-1.81306e-12
1.18303e-09
4.39089e-14
-1.828e-12
1.18266e-09
8.00969e-14
-1.39201e-12
1.18466e-09
1.16329e-12
-1.62614e-12
1.19646e-09
6.70552e-13
-8.15193e-13
1.22602e-09
8.69341e-14
-1.28613e-12
1.179e-09
6.7475e-11
-1.01707e-13
7.68161e-10
4.96497e-11
6.74928e-11
-4.98998e-11
-6.72903e-11
4.9622e-11
-6.72744e-11
-4.98709e-11
1.7768e-11
-6.56251e-11
1.17195e-11
-1.36824e-11
1.17296e-10
2.99079e-12
-1.08709e-11
1.6461e-12
6.23405e-12
4.44228e-14
-1.76364e-12
1.17986e-09
6.52074e-14
-1.73126e-12
1.17997e-09
8.76944e-14
-1.76614e-12
1.18156e-09
2.81107e-13
-1.5674e-12
1.18104e-09
3.93769e-13
-1.51214e-12
1.18185e-09
7.72917e-13
-1.33921e-12
1.18156e-09
7.58686e-13
-1.22247e-12
1.18408e-09
1.3689e-12
-1.16136e-12
1.19636e-09
1.27309e-12
-1.37156e-12
1.22914e-09
1.44348e-12
-6.79185e-13
1.17865e-09
6.72565e-11
6.44176e-13
7.61305e-10
4.31707e-11
-6.48773e-11
-4.52711e-11
4.8186e-11
6.57305e-11
-4.81308e-11
-6.53722e-11
-4.12881e-11
1.77096e-11
-6.83596e-12
9.22958e-11
-8.44921e-12
1.26479e-11
1.05597e-11
-9.38261e-12
8.45582e-14
-1.38402e-12
1.17808e-09
1.71085e-13
-1.35114e-12
1.17814e-09
2.26981e-13
-1.35626e-12
1.17878e-09
3.39829e-13
-1.21218e-12
1.17881e-09
5.11159e-13
-1.22593e-12
1.1797e-09
6.77006e-13
-1.06806e-12
1.18037e-09
9.87154e-13
-1.07349e-12
1.18167e-09
1.16842e-12
-9.77163e-13
1.18361e-09
8.03909e-13
-7.44687e-13
1.19629e-09
8.78528e-13
-1.15105e-12
1.22587e-09
-5.5933e-13
1.49222e-12
1.1896e-09
6.35074e-11
-2.09448e-12
8.1951e-10
4.50772e-11
6.74017e-11
-4.72152e-11
-6.48424e-11
6.24774e-11
-6.26656e-11
-6.21496e-11
-4.00707e-11
1.05357e-11
-5.58259e-12
9.17362e-11
1.94064e-11
-9.57617e-12
-1.02276e-11
-1.05863e-11
1.35574e-11
1.4412e-11
-1.00963e-11
9.76651e-14
-1.08346e-12
1.17658e-09
2.04638e-13
-1.05597e-12
1.17669e-09
3.13096e-13
-1.07213e-12
1.17734e-09
4.94635e-13
-9.84541e-13
1.17752e-09
6.5849e-13
-9.88697e-13
1.17852e-09
8.75574e-13
-8.81671e-13
1.17932e-09
1.08179e-12
-8.64638e-13
1.18105e-09
1.22188e-12
-6.58837e-13
1.1817e-09
1.62277e-12
-7.60293e-13
1.184e-09
6.7236e-13
-5.07154e-14
1.19629e-09
2.73641e-12
-8.8719e-13
1.2053e-09
6.15118e-11
1.24624e-12
9.42429e-10
4.67113e-11
-6.08855e-11
-4.77705e-11
-5.19433e-11
2.16841e-12
1.21615e-11
-4.42348e-12
1.03548e-10
9.82649e-13
5.86126e-13
-1.10044e-11
-2.17433e-13
9.65303e-12
1.12543e-13
-8.20545e-13
1.17567e-09
2.33093e-13
-8.00219e-13
1.17574e-09
3.53164e-13
-8.06914e-13
1.17609e-09
5.11906e-13
-7.47362e-13
1.17628e-09
6.87804e-13
-7.52756e-13
1.17704e-09
8.93e-13
-6.73613e-13
1.1778e-09
1.0743e-12
-6.44596e-13
1.17935e-09
1.34152e-12
-4.91037e-13
1.18033e-09
1.38353e-12
-3.79984e-13
1.18145e-09
1.78393e-12
-7.86307e-15
1.18453e-09
4.58768e-13
-5.79928e-14
1.20894e-09
-3.60408e-13
1.80496e-12
1.19631e-09
6.70165e-11
-9.00855e-13
8.05318e-10
4.58331e-11
6.54138e-11
-4.6968e-11
-6.49576e-11
6.45888e-11
-6.62449e-11
-6.44273e-11
-4.21009e-11
1.10796e-11
-4.59676e-12
9.48681e-11
1.61508e-11
-8.43227e-12
-8.01624e-12
-9.83824e-12
1.2581e-11
1.39982e-11
-8.67639e-12
1.24575e-13
-6.0883e-13
1.17513e-09
2.57205e-13
-5.94256e-13
1.1752e-09
3.95665e-13
-6.01074e-13
1.1755e-09
5.74195e-13
-5.61151e-13
1.17571e-09
7.64279e-13
-5.62227e-13
1.17643e-09
9.97939e-13
-4.96726e-13
1.17706e-09
1.23261e-12
-4.81936e-13
1.17849e-09
1.51483e-12
-3.20216e-13
1.17964e-09
1.82222e-12
-2.7038e-13
1.18178e-09
2.13895e-12
2.11736e-13
1.18258e-09
1.55731e-12
1.37004e-13
1.19842e-09
1.64611e-12
1.49402e-12
1.22182e-09
6.60845e-11
-7.09818e-13
9.77243e-10
6.45111e-11
-6.46136e-11
-6.58537e-11
-4.1306e-11
-4.1466e-13
5.81502e-12
9.30578e-11
-7.57973e-12
1.41099e-11
1.22528e-11
-9.85064e-12
-1.22024e-12
-3.74717e-13
-5.18501e-13
2.11347e-12
1.28293e-13
-4.24807e-13
1.17492e-09
2.61525e-13
-4.16004e-13
1.17494e-09
4.02001e-13
-4.17413e-13
1.17507e-09
5.72703e-13
-3.90825e-13
1.17523e-09
7.575e-13
-3.83989e-13
1.17571e-09
9.92943e-13
-3.38891e-13
1.17626e-09
1.21754e-12
-3.0238e-13
1.1775e-09
1.56819e-12
-2.08836e-13
1.17877e-09
1.8065e-12
-7.56465e-14
1.18097e-09
2.36798e-12
1.3071e-13
1.18295e-09
1.67119e-12
5.86518e-13
1.19543e-09
2.66457e-12
3.34885e-13
1.21102e-09
6.55178e-11
-5.91621e-13
9.67371e-10
6.35432e-11
-6.47249e-11
-6.28777e-11
-2.06574e-12
-5.1662e-11
1.73906e-11
-6.87133e-13
1.02542e-10
1.19557e-12
9.15632e-13
-1.37998e-11
2.0716e-12
1.71072e-13
9.4459e-12
1.35061e-13
-2.70155e-13
1.17504e-09
2.7612e-13
-2.6561e-13
1.17498e-09
4.27501e-13
-2.66406e-13
1.17507e-09
6.10813e-13
-2.50831e-13
1.17512e-09
8.15162e-13
-2.46312e-13
1.17549e-09
1.07862e-12
-2.19748e-13
1.17607e-09
1.35922e-12
-1.94554e-13
1.1773e-09
1.76289e-12
-1.52711e-13
1.17873e-09
2.10258e-12
-5.56085e-14
1.18151e-09
2.78178e-12
-8.29771e-14
1.18445e-09
2.42104e-12
5.98796e-13
1.19633e-09
3.56673e-12
-9.10635e-13
1.20244e-09
6.14868e-11
2.7127e-13
9.62468e-10
4.72854e-11
-6.04063e-11
-4.76823e-11
-4.3834e-11
4.63145e-12
1.39831e-11
-6.17449e-12
9.28813e-11
3.69398e-12
3.31244e-13
-1.33966e-11
2.39388e-12
-1.2004e-12
8.17795e-12
1.3348e-13
-1.32016e-13
1.17536e-09
2.72773e-13
-1.27639e-13
1.17519e-09
4.24007e-13
-1.26601e-13
1.17505e-09
6.02748e-13
-1.18091e-13
1.17495e-09
8.06789e-13
-1.14402e-13
1.17518e-09
1.06082e-12
-1.01105e-13
1.17572e-09
1.35307e-12
-8.87374e-14
1.17666e-09
1.72763e-12
-6.78432e-14
1.17809e-09
2.18148e-12
-3.95754e-14
1.17992e-09
2.64185e-12
-5.26403e-14
1.18261e-09
3.11625e-12
1.8424e-13
1.18855e-09
1.99838e-12
-2.15572e-13
1.21458e-09
1.50118e-12
1.41102e-14
1.20354e-09
7.03373e-11
-3.39773e-13
7.95526e-10
6.70257e-11
-7.01997e-11
-6.56475e-11
4.80968e-11
7.18103e-11
-4.90815e-11
-7.22741e-11
-6.18962e-11
2.0404e-11
-1.4439e-11
1.19243e-10
-1.0005e-11
1.09289e-11
1.37134e-11
-7.61157e-12
1.379e-13
1.1758e-09
2.79437e-13
1.17539e-09
4.33921e-13
1.17505e-09
6.1597e-13
1.17493e-09
8.25556e-13
1.17513e-09
1.08755e-12
1.17565e-09
1.38388e-12
1.17657e-09
1.75704e-12
1.17805e-09
2.20111e-12
1.17982e-09
2.7383e-12
1.18224e-09
3.22389e-12
1.18376e-09
2.63953e-12
1.19863e-09
2.13192e-12
1.22232e-09
6.67796e-11
9.78538e-10
6.64035e-11
-6.65559e-11
-6.64887e-11
-4.41505e-11
6.16719e-12
-1.66556e-12
9.75989e-11
-1.03318e-11
1.48557e-11
1.48225e-11
-1.0517e-11
-3.27014e-12
-8.77624e-14
-2.76292e-12
6.11915e-12
-2.81699e-12
2.21563e-13
-2.98748e-13
-2.75363e-12
5.6478e-12
1.62973e-13
-5.175e-12
9.83745e-10
6.65113e-11
6.69371e-11
-6.6678e-11
-6.68003e-11
7.12921e-11
-5.52446e-12
8.03064e-10
6.72487e-11
7.0682e-11
-6.58521e-11
-7.02652e-11
4.77763e-11
-7.30302e-11
-4.95477e-11
1.72572e-11
-5.97837e-11
1.53964e-11
-1.53835e-11
1.13806e-10
1.32531e-11
-5.93404e-11
-6.29112e-12
1.47124e-12
-1.67081e-11
7.62377e-11
1.32208e-11
-1.11029e-11
-1.07403e-11
-4.91419e-11
1.2971e-11
-1.56448e-11
6.22297e-11
2.68771e-13
1.13461e-11
-1.065e-11
-9.93644e-12
-1.04465e-11
1.33331e-11
8.47917e-12
-1.28082e-11
-3.92958e-12
-5.1896e-13
-3.4213e-13
-2.43426e-12
7.22492e-12
1.70386e-12
-7.50908e-12
1.22305e-09
2.14663e-12
-7.27053e-12
1.20498e-09
5.72247e-13
-7.57244e-12
9.69145e-10
4.76647e-11
6.23745e-11
-4.76109e-11
-5.9921e-11
-5.05598e-13
-5.16184e-12
9.70818e-10
6.39389e-11
6.61197e-11
-6.2791e-11
-6.44178e-11
-9.20776e-13
-3.8378e-12
9.81147e-10
6.46029e-11
6.63375e-11
-6.59983e-11
-6.4595e-11
6.47969e-11
-1.57166e-12
8.0776e-10
6.45536e-11
6.71964e-11
-6.46324e-11
-6.62073e-11
4.54795e-11
-6.56348e-11
-4.73879e-11
-4.17634e-11
1.21114e-11
1.43471e-11
-1.23246e-11
9.25229e-11
1.66597e-11
-8.52692e-12
-8.22897e-12
-1.03921e-13
1.50688e-12
-1.42799e-11
2.13275e-12
-2.77941e-12
1.35237e-11
-2.47105e-13
-7.24309e-12
1.19874e-09
-3.72851e-13
-7.39561e-12
1.21494e-09
-2.51616e-12
-6.86391e-12
1.20396e-09
-2.76572e-12
-5.07862e-12
1.21128e-09
-2.06557e-12
-4.91353e-12
1.22224e-09
-2.85143e-13
-3.27567e-12
1.19626e-09
2.14763e-12
-4.30745e-12
9.43277e-10
4.69633e-11
6.20932e-11
-4.75883e-11
-6.03786e-11
6.72394e-11
-7.5719e-13
8.2134e-10
6.2496e-11
6.35607e-11
-6.21494e-11
-6.26144e-11
4.49359e-11
-6.50065e-11
-4.73651e-11
-3.03211e-11
9.83833e-12
-3.37893e-12
8.09057e-11
1.66103e-11
-7.06654e-12
-7.57471e-12
-8.44786e-12
1.54856e-11
1.06587e-11
-9.46956e-12
-9.88203e-13
5.52518e-13
-1.98368e-12
2.41936e-12
2.67846e-13
-6.29644e-12
1.18259e-09
1.09452e-13
-6.1429e-12
1.18752e-09
-1.03741e-12
-6.3398e-12
1.19701e-09
-6.39909e-13
-5.17893e-12
1.19522e-09
-6.38481e-13
-4.96837e-12
1.19857e-09
5.27217e-13
-4.36915e-12
1.20898e-09
-1.45244e-12
-2.98577e-12
1.20616e-09
-1.11913e-13
-2.70189e-12
1.19037e-09
6.56883e-11
-2.4503e-12
7.6356e-10
4.32201e-11
6.73985e-11
-4.52175e-11
-6.47753e-11
4.80591e-11
-6.561e-11
-4.82404e-11
1.69553e-11
-6.23534e-11
1.17854e-11
-1.37668e-11
1.13069e-10
2.66906e-12
-9.98508e-12
1.5065e-12
5.80953e-12
-1.24803e-14
-5.09894e-12
1.18114e-09
-2.85074e-14
-4.98249e-12
1.18154e-09
-3.78471e-13
-5.11253e-12
1.18365e-09
-1.09691e-13
-4.35052e-12
1.18193e-09
4.08377e-13
-4.39018e-12
1.18157e-09
7.35465e-13
-3.68112e-12
1.18364e-09
2.03324e-12
-3.61512e-12
1.19579e-09
1.86062e-12
-2.74269e-12
1.22624e-09
7.04135e-13
-2.58274e-12
1.18029e-09
6.75706e-11
-7.20285e-13
7.6952e-10
4.96462e-11
6.75903e-11
-4.9936e-11
-6.72647e-11
4.96166e-11