/*--------------------------------*- C++ -*----------------------------------*\
| =========                 |                                                 |
| \\      /  F ield         | OpenFOAM: The Open Source CFD Toolbox           |
|  \\    /   O peration     | Version:  2.1.1                                 |
|   \\  /    A nd           | Web:      www.OpenFOAM.org                      |
|    \\/     M anipulation  |                                                 |
\*---------------------------------------------------------------------------*/
FoamFile
{
    version     2.0;
    format      ascii;
    class       volScalarField;
    location    "0.0035";
    object      Th;
}
// * * * * * * * * * * * * * * * * * * * * * * * * * * * * * * * * * * * * * //

dimensions      [0 0 0 0 0 0 0];

internalField   nonuniform List<scalar> 
10260
(
4.0151e-13
4.47165e-13
1.06162e-14
1.17122e-14
1e-14
1.26013e-14
3.76169e-14
2.76371e-13
1.0002e-14
1.00058e-14
1e-14
1.00355e-14
1.00675e-14
1.23745e-14
1.10794e-14
1e-14
1.00001e-14
1.00001e-14
1e-14
1e-14
1.00002e-14
1.00055e-14
1.0059e-14
1.42739e-14
1.93646e-14
8.9535e-13
1.00001e-14
1.00001e-14
1e-14
1e-14
1e-14
1e-14
1e-14
1.0006e-14
1.0299e-14
1e-14
4.17425e-13
1.00001e-14
1e-14
1e-14
1e-14
1e-14
1e-14
1e-14
1e-14
1.00003e-14
1.0323e-14
1e-14
3.55401e-13
1.00002e-14
1e-14
1e-14
1e-14
1e-14
1e-14
1e-14
1e-14
1.00001e-14
1.00004e-14
1.02997e-14
1.3094e-14
1.00002e-14
1e-14
1e-14
1e-14
1e-14
1e-14
1e-14
1e-14
1e-14
1e-14
1.0006e-14
1.42744e-14
3.15408e-14
1.00002e-14
1e-14
1e-14
1e-14
1.00001e-14
1.00001e-14
1e-14
1e-14
1e-14
1e-14
1e-14
1.00594e-14
1e-14
1.22219e-13
1.00001e-14
1e-14
1e-14
1e-14
1.00001e-14
1.00001e-14
1e-14
1.00001e-14
1e-14
1e-14
1e-14
1.00058e-14
1.24062e-14
2.54621e-14
1e-14
1e-14
1e-14
1.00001e-14
1.00001e-14
1e-14
1e-14
1.00001e-14
1e-14
1e-14
1e-14
1.00001e-14
1.00686e-14
1.02432e-14
1.16903e-12
1e-14
1e-14
1.00001e-14
1.00001e-14
1.00001e-14
1e-14
1e-14
1.00001e-14
1.00001e-14
1e-14
1e-14
1.00001e-14
1.0036e-14
1e-14
1e-14
1.00001e-14
1e-14
1e-14
1e-14
1.00001e-14
1.00001e-14
1e-14
1.00001e-14
1.00001e-14
1e-14
1e-14
1.00001e-14
1e-14
1e-14
1e-14
1.00002e-14
1.00001e-14
1e-14
1e-14
1.00001e-14
1e-14
1e-14
1e-14
1e-14
1e-14
1e-14
1e-14
1.0006e-14
1.17346e-14
1.44475e-14
1.00001e-14
1e-14
1.00002e-14
1.00002e-14
1.00001e-14
1.00001e-14
1.00002e-14
1.00001e-14
1.00001e-14
1.00001e-14
1e-14
1.00001e-14
1.00025e-14
1.06489e-14
1.77027e-14
4.05263e-13
4.53278e-13
1.05508e-14
1.15659e-14
1e-14
1.24371e-14
3.70757e-14
2.79475e-13
1.00008e-14
1.00028e-14
1e-14
1.00302e-14
1.00572e-14
1.2237e-14
1.09445e-14
1e-14
1.00001e-14
1e-14
1e-14
1e-14
1.00001e-14
1.00029e-14
1.00525e-14
1.39955e-14
1.91794e-14
8.97276e-13
1.00002e-14
1.00001e-14
1e-14
1e-14
1e-14
1e-14
1e-14
1.00033e-14
1.02669e-14
1e-14
4.38732e-13
1.00002e-14
1e-14
1e-14
1e-14
1e-14
1e-14
1e-14
1e-14
1e-14
1.02914e-14
1e-14
3.75947e-13
1.00002e-14
1e-14
1e-14
1e-14
1e-14
1e-14
1e-14
1e-14
1e-14
1.00001e-14
1.02675e-14
1.28248e-14
1.00003e-14
1e-14
1e-14
1e-14
1e-14
1e-14
1e-14
1e-14
1e-14
1e-14
1.00034e-14
1.39968e-14
3.37191e-14
1.00002e-14
1e-14
1e-14
1e-14
1e-14
1.00001e-14
1e-14
1e-14
1e-14
1e-14
1e-14
1.00527e-14
1e-14
1.30122e-13
1.00001e-14
1e-14
1e-14
1e-14
1.00001e-14
1.00001e-14
1e-14
1e-14
1e-14
1e-14
1e-14
1.0003e-14
1.22406e-14
2.54125e-14
1e-14
1e-14
1e-14
1e-14
1e-14
1e-14
1e-14
1.00001e-14
1e-14
1e-14
1e-14
1e-14
1.00577e-14
1.02583e-14
1.16319e-12
1e-14
1e-14
1e-14
1.00001e-14
1e-14
1e-14
1e-14
1.00001e-14
1e-14
1e-14
1e-14
1.00001e-14
1.00306e-14
1e-14
1e-14
1e-14
1e-14
1e-14
1e-14
1e-14
1.00001e-14
1e-14
1.00001e-14
1e-14
1e-14
1e-14
1e-14
1e-14
1e-14
1e-14
1.00003e-14
1e-14
1e-14
1e-14
1.00001e-14
1e-14
1e-14
1e-14
1e-14
1e-14
1e-14
1e-14
1.00029e-14
1.15696e-14
1.43382e-14
1.00001e-14
1e-14
1.00002e-14
1.00001e-14
1e-14
1.00001e-14
1.00001e-14
1e-14
1e-14
1e-14
1e-14
1e-14
1.00011e-14
1.05586e-14
1.76157e-14
4.05688e-13
4.53814e-13
1.05338e-14
1.15257e-14
1e-14
1.24514e-14
3.73656e-14
2.79651e-13
1e-14
1.00001e-14
1e-14
1.00287e-14
1.00557e-14
1.21957e-14
1.09644e-14
1e-14
1.00002e-14
1e-14
1e-14
1e-14
1e-14
1.00012e-14
1.00508e-14
1.39176e-14
1.92518e-14
8.96851e-13
1.00002e-14
1e-14
1e-14
1e-14
1e-14
1e-14
1e-14
1.00018e-14
1.0261e-14
1e-14
4.39202e-13
1.00001e-14
1e-14
1e-14
1e-14
1e-14
1e-14
1e-14
1e-14
1e-14
1.02847e-14
1e-14
3.76105e-13
1.00001e-14
1e-14
1e-14
1e-14
1e-14
1e-14
1e-14
1e-14
1.00001e-14
1e-14
1.02615e-14
1.27823e-14
1.00002e-14
1e-14
1e-14
1e-14
1e-14
1e-14
1e-14
1e-14
1e-14
1e-14
1.00019e-14
1.3919e-14
3.42304e-14
1.00002e-14
1e-14
1e-14
1e-14
1e-14
1e-14
1.00001e-14
1e-14
1e-14
1e-14
1e-14
1.0051e-14
1e-14
1.29857e-13
1e-14
1e-14
1e-14
1e-14
1.00001e-14
1.00001e-14
1e-14
1e-14
1e-14
1e-14
1e-14
1.00014e-14
1.21974e-14
2.55892e-14
1e-14
1e-14
1e-14
1e-14
1e-14
1e-14
1e-14
1.00001e-14
1e-14
1e-14
1e-14
1e-14
1.00559e-14
1.02641e-14
1.16083e-12
1e-14
1e-14
1e-14
1.00001e-14
1e-14
1e-14
1e-14
1.00001e-14
1e-14
1e-14
1e-14
1.00001e-14
1.00289e-14
1e-14
1e-14
1e-14
1e-14
1e-14
1e-14
1e-14
1e-14
1e-14
1e-14
1e-14
1e-14
1e-14
1e-14
1e-14
1e-14
1e-14
1.00002e-14
1e-14
1e-14
1e-14
1e-14
1e-14
1e-14
1e-14
1e-14
1e-14
1e-14
1e-14
1.00002e-14
1.15271e-14
1.4338e-14
1.00002e-14
1e-14
1.00002e-14
1.00002e-14
1e-14
1e-14
1.00001e-14
1e-14
1.00001e-14
1.00001e-14
1.00001e-14
1e-14
1e-14
1.05359e-14
1.76841e-14
4.0564e-13
4.53679e-13
1.05171e-14
1.15134e-14
1e-14
1.24545e-14
3.74848e-14
2.79729e-13
1e-14
1e-14
1e-14
1.00281e-14
1.00551e-14
1.21834e-14
1.09851e-14
1e-14
1.00001e-14
1e-14
1e-14
1e-14
1e-14
1e-14
1.00494e-14
1.39176e-14
1.92736e-14
8.96869e-13
1.00001e-14
1e-14
1e-14
1e-14
1e-14
1e-14
1e-14
1e-14
1.02606e-14
1e-14
4.38923e-13
1.00001e-14
1e-14
1e-14
1e-14
1e-14
1e-14
1e-14
1e-14
1e-14
1.0284e-14
1e-14
3.75743e-13
1e-14
1e-14
1e-14
1e-14
1e-14
1e-14
1e-14
1e-14
1e-14
1e-14
1.02611e-14
1.27745e-14
1.00002e-14
1.00001e-14
1e-14
1e-14
1e-14
1e-14
1e-14
1e-14
1e-14
1e-14
1e-14
1.39187e-14
3.41641e-14
1.00002e-14
1e-14
1e-14
1e-14
1e-14
1e-14
1e-14
1e-14
1e-14
1e-14
1e-14
1.00495e-14
1e-14
1.29425e-13
1.00002e-14
1e-14
1e-14
1e-14
1e-14
1e-14
1e-14
1e-14
1e-14
1e-14
1e-14
1e-14
1.21841e-14
2.54992e-14
1e-14
1e-14
1e-14
1e-14
1e-14
1e-14
1e-14
1e-14
1e-14
1e-14
1e-14
1e-14
1.00551e-14
1.02625e-14
1.16011e-12
1e-14
1e-14
1e-14
1e-14
1e-14
1e-14
1e-14
1e-14
1e-14
1e-14
1.00001e-14
1e-14
1.00281e-14
1e-14
1e-14
1e-14
1e-14
1e-14
1e-14
1e-14
1e-14
1e-14
1e-14
1e-14
1e-14
1e-14
1e-14
1e-14
1e-14
1e-14
1.00002e-14
1e-14
1e-14
1e-14
1e-14
1e-14
1e-14
1e-14
1e-14
1.00001e-14
1e-14
1e-14
1e-14
1.1514e-14
1.42566e-14
1.00001e-14
1e-14
1.00001e-14
1.00001e-14
1e-14
1e-14
1e-14
1.00001e-14
1.00001e-14
1.00001e-14
1e-14
1e-14
1e-14
1.05173e-14
1.7691e-14
4.04912e-13
4.52705e-13
1.05874e-14
1.16033e-14
1e-14
1.24674e-14
3.77477e-14
2.79716e-13
1e-14
1e-14
1e-14
1.00281e-14
1.00619e-14
1.22297e-14
1.10157e-14
1e-14
1.00001e-14
1e-14
1e-14
1e-14
1e-14
1e-14
1.00481e-14
1.38175e-14
1.92406e-14
8.96734e-13
1.00001e-14
1e-14
1e-14
1e-14
1e-14
1e-14
1e-14
1e-14
1.02543e-14
1e-14
4.38728e-13
1.00001e-14
1e-14
1e-14
1e-14
1e-14
1e-14
1e-14
1e-14
1e-14
1.02811e-14
1e-14
3.75437e-13
1.00001e-14
1e-14
1e-14
1e-14
1e-14
1e-14
1e-14
1e-14
1e-14
1e-14
1.02548e-14
1.27603e-14
1.00002e-14
1e-14
1e-14
1e-14
1e-14
1e-14
1e-14
1e-14
1e-14
1e-14
1e-14
1.38179e-14
3.38611e-14
1.00002e-14
1e-14
1e-14
1e-14
1e-14
1e-14
1e-14
1e-14
1e-14
1e-14
1e-14
1.00482e-14
1e-14
1.28371e-13
1.00001e-14
1e-14
1e-14
1e-14
1e-14
1e-14
1e-14
1e-14
1e-14
1e-14
1e-14
1e-14
1.22303e-14
2.52697e-14
1.00001e-14
1e-14
1e-14
1e-14
1e-14
1.00001e-14
1e-14
1e-14
1e-14
1e-14
1.00001e-14
1e-14
1.00619e-14
1.02565e-14
1.15891e-12
1e-14
1e-14
1e-14
1e-14
1.00001e-14
1e-14
1e-14
1e-14
1e-14
1.00001e-14
1.00001e-14
1e-14
1.00282e-14
1e-14
1e-14
1.00001e-14
1e-14
1e-14
1e-14
1e-14
1e-14
1e-14
1e-14
1e-14
1.00001e-14
1e-14
1e-14
1e-14
1e-14
1e-14
1.00001e-14
1e-14
1e-14
1e-14
1e-14
1e-14
1e-14
1e-14
1.00001e-14
1e-14
1e-14
1e-14
1e-14
1.16033e-14
1.41135e-14
1.00002e-14
1e-14
1e-14
1e-14
1e-14
1e-14
1.00001e-14
1.00001e-14
1e-14
1e-14
1e-14
1e-14
1e-14
1.05872e-14
1.76806e-14
4.02305e-13
4.49254e-13
1.0374e-14
1.14166e-14
1e-14
1.25113e-14
3.85589e-14
2.79223e-13
1e-14
1e-14
1e-14
1.00255e-14
1.00417e-14
1.20581e-14
1.10322e-14
1e-14
1e-14
1e-14
1e-14
1e-14
1e-14
1e-14
1.0042e-14
1.406e-14
1.90286e-14
8.95677e-13
1e-14
1e-14
1e-14
1e-14
1e-14
1e-14
1e-14
1e-14
1.02965e-14
1e-14
4.37714e-13
1e-14
1e-14
1e-14
1e-14
1e-14
1e-14
1e-14
1e-14
1e-14
1.03011e-14
1e-14
3.74172e-13
1.00001e-14
1e-14
1e-14
1e-14
1e-14
1e-14
1e-14
1e-14
1e-14
1e-14
1.02971e-14
1.26956e-14
1.00001e-14
1e-14
1e-14
1e-14
1e-14
1e-14
1e-14
1e-14
1e-14
1e-14
1e-14
1.40609e-14
3.28817e-14
1.00001e-14
1e-14
1e-14
1e-14
1e-14
1e-14
1e-14
1e-14
1e-14
1e-14
1e-14
1.00422e-14
1e-14
1.24994e-13
1e-14
1e-14
1e-14
1e-14
1e-14
1.00001e-14
1e-14
1e-14
1e-14
1.00001e-14
1.00001e-14
1e-14
1.20584e-14
2.4773e-14
1e-14
1e-14
1e-14
1e-14
1.00001e-14
1e-14
1e-14
1e-14
1e-14
1.00001e-14
1.00001e-14
1e-14
1.00417e-14
1.02317e-14
1.15499e-12
1e-14
1e-14
1e-14
1e-14
1e-14
1e-14
1e-14
1e-14
1.00001e-14
1.00001e-14
1e-14
1e-14
1.00255e-14
1e-14
1e-14
1e-14
1e-14
1e-14
1e-14
1e-14
1e-14
1e-14
1.00001e-14
1.00001e-14
1e-14
1e-14
1e-14
1e-14
1e-14
1e-14
1e-14
1e-14
1e-14
1e-14
1e-14
1e-14
1.00001e-14
1e-14
1e-14
1e-14
1e-14
1e-14
1e-14
1.1417e-14
1.36945e-14
1.00003e-14
1e-14
1e-14
1e-14
1.00002e-14
1.00001e-14
1.00001e-14
1e-14
1e-14
1e-14
1e-14
1e-14
1e-14
1.0373e-14
1.73724e-14
3.86646e-13
4.32905e-13
1.12764e-14
1.27432e-14
1e-14
1.15231e-14
3.69812e-14
2.74714e-13
1e-14
1e-14
1e-14
1.00353e-14
1.01323e-14
1.3045e-14
1.14274e-14
1e-14
1e-14
1e-14
1e-14
1e-14
1e-14
1e-14
1.00392e-14
1.39892e-14
1.91754e-14
8.9248e-13
1e-14
1e-14
1e-14
1e-14
1e-14
1e-14
1e-14
1e-14
1.01456e-14
1e-14
4.36567e-13
1e-14
1e-14
1e-14
1e-14
1e-14
1e-14
1e-14
1e-14
1e-14
1.02114e-14
1e-14
3.69313e-13
1.00001e-14
1e-14
1e-14
1e-14
1e-14
1e-14
1e-14
1e-14
1e-14
1e-14
1.01469e-14
1.32114e-14
1.00001e-14
1e-14
1e-14
1e-14
1e-14
1e-14
1e-14
1e-14
1e-14
1e-14
1e-14
1.39894e-14
4.35518e-14
1e-14
1e-14
1e-14
1.00001e-14
1e-14
1e-14
1e-14
1e-14
1e-14
1e-14
1e-14
1.00394e-14
1e-14
1.03751e-13
1e-14
1e-14
1e-14
1e-14
1e-14
1e-14
1e-14
1e-14
1e-14
1.00001e-14
1.00001e-14
1e-14
1.30458e-14
2.31475e-14
1e-14
1e-14
1e-14
1.00001e-14
1e-14
1e-14
1e-14
1e-14
1.00001e-14
1.00001e-14
1e-14
1e-14
1.01324e-14
1.01482e-14
1.15789e-12
1e-14
1e-14
1e-14
1e-14
1e-14
1e-14
1e-14
1e-14
1.00001e-14
1e-14
1e-14
1e-14
1.00353e-14
1e-14
1e-14
1e-14
1e-14
1e-14
1e-14
1e-14
1e-14
1.00001e-14
1.00001e-14
1e-14
1e-14
1e-14
1e-14
1e-14
1e-14
1e-14
1e-14
1e-14
1e-14
1e-14
1e-14
1.00001e-14
1.00001e-14
1e-14
1e-14
1e-14
1.00001e-14
1.00001e-14
1e-14
1.27398e-14
1.28273e-14
1.00001e-14
1e-14
1e-14
1e-14
1.00001e-14
1.00001e-14
1e-14
1e-14
1e-14
1.00001e-14
1.00001e-14
1e-14
1e-14
1.12766e-14
1.29116e-14
5.97935e-14
5.00644e-14
1.04119e-14
1.06539e-14
1e-14
1.13798e-14
2.18153e-14
5.42191e-14
1e-14
1e-14
1.00001e-14
1.0008e-14
1.00368e-14
1.05097e-14
1.08443e-14
3.49911e-14
1e-14
1e-14
1e-14
1e-14
1e-14
1e-14
1.00059e-14
1.06738e-14
1.42757e-14
1e-14
1e-14
1e-14
1e-14
1e-14
1e-14
1e-14
1e-14
1e-14
1.00198e-14
1e-14
1e-14
1.00001e-14
1e-14
1e-14
1e-14
1e-14
1e-14
1e-14
1.00001e-14
1e-14
1.00341e-14
1e-14
1e-14
1.00001e-14
1e-14
1e-14
1e-14
1e-14
1e-14
1e-14
1e-14
1e-14
1e-14
1.002e-14
1e-14
1e-14
1e-14
1e-14
1e-14
1e-14
1e-14
1e-14
1e-14
1e-14
1e-14
1e-14
1.06738e-14
2.26296e-14
1e-14
1e-14
1e-14
1e-14
1e-14
1e-14
1e-14
1e-14
1e-14
1e-14
1e-14
1.00059e-14
1.00606e-14
1e-14
1e-14
1e-14
1e-14
1e-14
1e-14
1e-14
1e-14
1e-14
1.00001e-14
1e-14
1e-14
1e-14
1.051e-14
2.15269e-14
1e-14
1e-14
1e-14
1e-14
1e-14
1e-14
1e-14
1.00001e-14
1.00001e-14
1e-14
1e-14
1e-14
1.00369e-14
1e-14
1e-14
1e-14
1e-14
1e-14
1e-14
1e-14
1e-14
1.00001e-14
1.00001e-14
1e-14
1e-14
1e-14
1e-14
1.0008e-14
1.00266e-14
6.687e-14
1e-14
1e-14
1e-14
1e-14
1e-14
1e-14
1e-14
1e-14
1e-14
1e-14
1e-14
1.00001e-14
1.00001e-14
1e-14
1.56367e-14
1e-14
1e-14
1e-14
1.00001e-14
1.00001e-14
1.00001e-14
1e-14
1e-14
1e-14
1e-14
1.00001e-14
1.00001e-14
1e-14
1.06527e-14
1.77554e-14
1e-14
1e-14
1.00001e-14
1.00001e-14
1.00002e-14
1.00001e-14
1.00001e-14
1e-14
1e-14
1.00002e-14
1.00001e-14
1e-14
1e-14
1.04121e-14
1.00004e-14
1.10286e-14
1.0468e-14
1.00347e-14
1.01033e-14
1.0159e-14
1e-14
1.00057e-14
1.02262e-14
1.0553e-14
1e-14
1e-14
1e-14
1.00018e-14
1.00091e-14
1.01032e-14
1.00308e-14
1.01593e-14
1e-14
1e-14
1e-14
1e-14
1e-14
1e-14
1.00009e-14
1.01301e-14
1.0155e-14
1.0006e-14
1e-14
1e-14
1e-14
1e-14
1e-14
1e-14
1e-14
1e-14
1.00021e-14
1e-14
1.00011e-14
1e-14
1e-14
1e-14
1e-14
1e-14
1e-14
1e-14
1.00001e-14
1e-14
1.00049e-14
1e-14
1.00043e-14
1e-14
1e-14
1e-14
1e-14
1e-14
1e-14
1e-14
1e-14
1e-14
1e-14
1.00022e-14
1e-14
1e-14
1e-14
1e-14
1e-14
1e-14
1e-14
1e-14
1e-14
1e-14
1e-14
1e-14
1.01302e-14
1.03135e-14
1e-14
1e-14
1e-14
1e-14
1e-14
1e-14
1e-14
1e-14
1e-14
1e-14
1e-14
1.00009e-14
1e-14
1.00012e-14
1e-14
1e-14
1e-14
1e-14
1e-14
1e-14
1e-14
1e-14
1e-14
1e-14
1e-14
1e-14
1.01033e-14
1.03215e-14
1e-14
1e-14
1e-14
1e-14
1e-14
1e-14
1e-14
1.00001e-14
1e-14
1e-14
1e-14
1e-14
1.00092e-14
1e-14
1e-14
1e-14
1e-14
1e-14
1e-14
1e-14
1.00001e-14
1e-14
1e-14
1e-14
1.00001e-14
1e-14
1.00019e-14
1.00058e-14
1.06771e-14
1e-14
1e-14
1e-14
1e-14
1e-14
1e-14
1e-14
1e-14
1e-14
1e-14
1.00001e-14
1.00001e-14
1.00001e-14
1e-14
1.00887e-14
1e-14
1e-14
1e-14
1e-14
1e-14
1e-14
1e-14
1e-14
1e-14
1e-14
1.00001e-14
1.00001e-14
1e-14
1.01588e-14
1.02943e-14
1.00001e-14
1e-14
1e-14
1.00001e-14
1.00001e-14
1e-14
1e-14
1e-14
1e-14
1.00001e-14
1.00001e-14
1e-14
1e-14
1.01035e-14
1e-14
1.0016e-14
1.00055e-14
1.00002e-14
1.0022e-14
1.00344e-14
1.00002e-14
1.00004e-14
1.00033e-14
1.00047e-14
1e-14
1e-14
1e-14
1.00004e-14
1.00018e-14
1.00183e-14
1.00014e-14
1.00013e-14
1e-14
1e-14
1e-14
1e-14
1e-14
1e-14
1.00002e-14
1.00219e-14
1.00038e-14
1.00001e-14
1e-14
1e-14
1e-14
1e-14
1e-14
1e-14
1e-14
1e-14
1.00002e-14
1.00004e-14
1e-14
1e-14
1e-14
1e-14
1e-14
1e-14
1e-14
1e-14
1e-14
1e-14
1.00006e-14
1.00004e-14
1e-14
1e-14
1e-14
1e-14
1e-14
1e-14
1e-14
1e-14
1e-14
1e-14
1e-14
1.00002e-14
1.00001e-14
1e-14
1e-14
1e-14
1e-14
1e-14
1e-14
1e-14
1e-14
1e-14
1e-14
1e-14
1.0022e-14
1.00052e-14
1e-14
1e-14
1e-14
1e-14
1e-14
1e-14
1e-14
1e-14
1e-14
1e-14
1e-14
1.00002e-14
1e-14
1e-14
1e-14
1e-14
1e-14
1e-14
1e-14
1e-14
1e-14
1e-14
1e-14
1e-14
1e-14
1e-14
1.00184e-14
1.00067e-14
1e-14
1e-14
1e-14
1e-14
1e-14
1e-14
1e-14
1e-14
1e-14
1e-14
1e-14
1e-14
1.00019e-14
1.00001e-14
1e-14
1e-14
1e-14
1e-14
1e-14
1e-14
1e-14
1e-14
1e-14
1e-14
1e-14
1e-14
1.00004e-14
1.00004e-14
1.00092e-14
1e-14
1e-14
1e-14
1e-14
1e-14
1e-14
1e-14
1e-14
1e-14
1e-14
1e-14
1e-14
1e-14
1.00002e-14
1.00012e-14
1e-14
1e-14
1e-14
1e-14
1e-14
1e-14
1e-14
1e-14
1e-14
1e-14
1e-14
1e-14
1e-14
1.00343e-14
1.00074e-14
1.00002e-14
1e-14
1e-14
1e-14
1e-14
1e-14
1e-14
1e-14
1e-14
1.00001e-14
1e-14
1e-14
1e-14
1.00221e-14
1.00012e-14
1.00007e-14
1.00002e-14
1e-14
1.00042e-14
1.00065e-14
1.00001e-14
1e-14
1e-14
1e-14
1e-14
1e-14
1e-14
1.00001e-14
1.00003e-14
1.00029e-14
1.00001e-14
1e-14
1e-14
1e-14
1e-14
1e-14
1e-14
1e-14
1e-14
1.00032e-14
1.00001e-14
1e-14
1e-14
1e-14
1e-14
1e-14
1e-14
1e-14
1e-14
1e-14
1e-14
1e-14
1e-14
1e-14
1e-14
1e-14
1e-14
1e-14
1e-14
1e-14
1e-14
1e-14
1.00001e-14
1.00001e-14
1e-14
1e-14
1e-14
1e-14
1e-14
1e-14
1e-14
1e-14
1e-14
1e-14
1e-14
1.00001e-14
1.00001e-14
1e-14
1e-14
1e-14
1e-14
1e-14
1e-14
1e-14
1e-14
1e-14
1e-14
1e-14
1.00033e-14
1.00002e-14
1e-14
1e-14
1e-14
1e-14
1e-14
1e-14
1e-14
1e-14
1e-14
1e-14
1e-14
1.00001e-14
1e-14
1e-14
1e-14
1e-14
1e-14
1e-14
1e-14
1e-14
1e-14
1e-14
1e-14
1e-14
1e-14
1e-14
1.00028e-14
1.00001e-14
1e-14
1e-14
1e-14
1e-14
1e-14
1e-14
1e-14
1e-14
1e-14
1e-14
1e-14
1e-14
1.00003e-14
1.00001e-14
1e-14
1e-14
1e-14
1e-14
1e-14
1e-14
1e-14
1e-14
1e-14
1e-14
1e-14
1e-14
1.00001e-14
1.00001e-14
1e-14
1e-14
1e-14
1e-14
1e-14
1e-14
1e-14
1e-14
1e-14
1e-14
1e-14
1e-14
1e-14
1e-14
1.00001e-14
1e-14
1e-14
1e-14
1e-14
1e-14
1e-14
1e-14
1e-14
1e-14
1e-14
1e-14
1e-14
1e-14
1e-14
1.00065e-14
1.00005e-14
1.00002e-14
1e-14
1.00001e-14
1.00001e-14
1e-14
1e-14
1e-14
1e-14
1e-14
1e-14
1e-14
1e-14
1e-14
1.00042e-14
1.00002e-14
1e-14
1e-14
1e-14
1.00007e-14
1.00011e-14
1e-14
1e-14
1e-14
1e-14
1e-14
1e-14
1e-14
1e-14
1e-14
1.00004e-14
1.00001e-14
1.00002e-14
1e-14
1e-14
1e-14
1e-14
1e-14
1e-14
1e-14
1.00004e-14
1e-14
1.00001e-14
1e-14
1e-14
1e-14
1e-14
1e-14
1e-14
1.00001e-14
1.00001e-14
1e-14
1e-14
1e-14
1e-14
1e-14
1e-14
1e-14
1e-14
1e-14
1.00001e-14
1e-14
1e-14
1e-14
1.00001e-14
1e-14
1e-14
1e-14
1e-14
1e-14
1e-14
1e-14
1e-14
1e-14
1e-14
1e-14
1e-14
1e-14
1e-14
1e-14
1e-14
1e-14
1e-14
1e-14
1e-14
1e-14
1e-14
1e-14
1e-14
1.00005e-14
1e-14
1e-14
1e-14
1e-14
1e-14
1e-14
1e-14
1e-14
1e-14
1e-14
1e-14
1e-14
1e-14
1e-14
1e-14
1e-14
1e-14
1e-14
1e-14
1e-14
1e-14
1e-14
1e-14
1e-14
1e-14
1e-14
1e-14
1.00004e-14
1e-14
1e-14
1e-14
1e-14
1e-14
1e-14
1e-14
1e-14
1e-14
1e-14
1e-14
1e-14
1e-14
1e-14
1e-14
1e-14
1.00001e-14
1e-14
1e-14
1e-14
1e-14
1e-14
1e-14
1e-14
1e-14
1e-14
1e-14
1e-14
1.00001e-14
1e-14
1.00001e-14
1.00001e-14
1e-14
1e-14
1e-14
1e-14
1e-14
1e-14
1e-14
1e-14
1e-14
1e-14
1e-14
1e-14
1.00001e-14
1.00001e-14
1e-14
1e-14
1e-14
1e-14
1e-14
1e-14
1e-14
1e-14
1e-14
1e-14
1e-14
1e-14
1.00011e-14
1.00001e-14
1.00002e-14
1.00001e-14
1.00001e-14
1e-14
1e-14
1e-14
1.00001e-14
1e-14
1e-14
1e-14
1e-14
1e-14
1e-14
1.00007e-14
1e-14
1e-14
1e-14
1e-14
1.00001e-14
1.00002e-14
1e-14
1e-14
1e-14
1e-14
1e-14
1e-14
1e-14
1e-14
1e-14
1.00001e-14
1e-14
1e-14
1e-14
1e-14
1e-14
1e-14
1e-14
1e-14
1.00001e-14
1e-14
1e-14
1e-14
1e-14
1e-14
1e-14
1e-14
1e-14
1.00001e-14
1.00001e-14
1e-14
1e-14
1e-14
1e-14
1.00001e-14
1e-14
1e-14
1e-14
1.00001e-14
1.00001e-14
1e-14
1e-14
1e-14
1.00001e-14
1.00001e-14
1e-14
1.00001e-14
1.00001e-14
1e-14
1e-14
1e-14
1e-14
1e-14
1e-14
1e-14
1e-14
1e-14
1e-14
1.00001e-14
1e-14
1e-14
1e-14
1e-14
1e-14
1e-14
1e-14
1e-14
1.00001e-14
1e-14
1.00001e-14
1.00001e-14
1e-14
1e-14
1e-14
1e-14
1e-14
1e-14
1e-14
1e-14
1e-14
1e-14
1e-14
1e-14
1.00001e-14
1.00001e-14
1e-14
1e-14
1e-14
1e-14
1e-14
1e-14
1e-14
1e-14
1e-14
1e-14
1e-14
1e-14
1e-14
1e-14
1.00001e-14
1.00001e-14
1.00001e-14
1e-14
1e-14
1e-14
1e-14
1e-14
1e-14
1e-14
1e-14
1e-14
1e-14
1e-14
1.00001e-14
1.00001e-14
1e-14
1e-14
1e-14
1e-14
1e-14
1e-14
1e-14
1e-14
1e-14
1e-14
1e-14
1e-14
1e-14
1.00002e-14
1e-14
1e-14
1e-14
1e-14
1e-14
1e-14
1e-14
1e-14
1e-14
1e-14
1e-14
1e-14
1e-14
1.00002e-14
1.00001e-14
1e-14
1e-14
1e-14
1e-14
1.00001e-14
1e-14
1e-14
1e-14
1e-14
1e-14
1e-14
1.00001e-14
1.00002e-14
1e-14
1.00003e-14
1.00001e-14
1.00001e-14
1e-14
1e-14
1e-14
1e-14
1e-14
1e-14
1.00001e-14
1.00001e-14
1.00001e-14
1e-14
1.00001e-14
1e-14
1e-14
1e-14
1e-14
1e-14
1e-14
1e-14
1e-14
1e-14
1e-14
1.00001e-14
1e-14
1e-14
1e-14
1e-14
1e-14
1.00001e-14
1e-14
1.00001e-14
1e-14
1e-14
1e-14
1e-14
1e-14
1e-14
1e-14
1e-14
1.00001e-14
1.00001e-14
1e-14
1e-14
1.00001e-14
1e-14
1.00001e-14
1e-14
1e-14
1e-14
1e-14
1e-14
1.00001e-14
1e-14
1e-14
1e-14
1.00001e-14
1e-14
1e-14
1e-14
1e-14
1.00001e-14
1.00001e-14
1e-14
1.00001e-14
1e-14
1e-14
1e-14
1.00001e-14
1e-14
1e-14
1.00001e-14
1.00001e-14
1e-14
1.00001e-14
1e-14
1.00001e-14
1e-14
1e-14
1e-14
1e-14
1e-14
1.00001e-14
1.00001e-14
1.00001e-14
1.00001e-14
1.00001e-14
1e-14
1e-14
1.00001e-14
1e-14
1e-14
1e-14
1e-14
1e-14
1.00001e-14
1.00001e-14
1.00001e-14
1e-14
1e-14
1e-14
1e-14
1.00001e-14
1.00001e-14
1e-14
1e-14
1e-14
1e-14
1e-14
1e-14
1e-14
1e-14
1e-14
1e-14
1e-14
1e-14
1e-14
1.00001e-14
1.00001e-14
1e-14
1e-14
1e-14
1e-14
1e-14
1e-14
1e-14
1e-14
1e-14
1e-14
1e-14
1e-14
1.00001e-14
1e-14
1e-14
1e-14
1e-14
1e-14
1e-14
1e-14
1e-14
1e-14
1e-14
1e-14
1e-14
1e-14
1e-14
1.00001e-14
1e-14
1e-14
1e-14
1e-14
1e-14
1e-14
1e-14
1e-14
1e-14
1e-14
1.00001e-14
1e-14
1e-14
1e-14
1.00001e-14
1e-14
1e-14
1e-14
1e-14
1e-14
1e-14
1e-14
1e-14
1e-14
1.00001e-14
1.00001e-14
1e-14
1.00001e-14
1e-14
1.00005e-14
1.00001e-14
1.00001e-14
1.00001e-14
1e-14
1e-14
1e-14
1e-14
1e-14
1.00002e-14
1.00001e-14
1e-14
1e-14
1.00001e-14
1e-14
1.00002e-14
1e-14
1e-14
1e-14
1e-14
1e-14
1e-14
1.00001e-14
1e-14
1.00001e-14
1e-14
1e-14
1e-14
1e-14
1e-14
1e-14
1e-14
1e-14
1e-14
1e-14
1e-14
1.00001e-14
1.00001e-14
1e-14
1e-14
1e-14
1.00001e-14
1e-14
1e-14
1e-14
1e-14
1.00001e-14
1e-14
1.00001e-14
1e-14
1e-14
1.00001e-14
1e-14
1e-14
1e-14
1e-14
1e-14
1.00001e-14
1e-14
1e-14
1.00001e-14
1.00001e-14
1.00001e-14
1.00001e-14
1.00001e-14
1e-14
1e-14
1e-14
1e-14
1e-14
1e-14
1.00001e-14
1.00001e-14
1.00001e-14
1.00001e-14
1.00001e-14
1e-14
1e-14
1e-14
1e-14
1e-14
1e-14
1e-14
1.00001e-14
1e-14
1.00001e-14
1.00001e-14
1e-14
1e-14
1e-14
1.00001e-14
1e-14
1e-14
1e-14
1e-14
1e-14
1e-14
1e-14
1e-14
1e-14
1e-14
1e-14
1e-14
1.00001e-14
1.00001e-14
1e-14
1e-14
1e-14
1e-14
1e-14
1e-14
1e-14
1e-14
1e-14
1e-14
1e-14
1e-14
1e-14
1e-14
1e-14
1e-14
1e-14
1e-14
1e-14
1e-14
1e-14
1e-14
1e-14
1e-14
1e-14
1e-14
1e-14
1e-14
1e-14
1e-14
1e-14
1e-14
1e-14
1e-14
1e-14
1e-14
1e-14
1e-14
1e-14
1e-14
1e-14
1e-14
1e-14
1e-14
1.00001e-14
1e-14
1e-14
1e-14
1e-14
1e-14
1.00001e-14
1e-14
1e-14
1e-14
1e-14
1e-14
1e-14
1e-14
1e-14
1.00001e-14
1e-14
1e-14
1e-14
1e-14
1e-14
1e-14
1e-14
1e-14
1e-14
1e-14
1e-14
1e-14
1.00005e-14
1.00002e-14
1.00002e-14
1.00001e-14
1e-14
1e-14
1e-14
1e-14
1e-14
1e-14
1e-14
1e-14
1e-14
1e-14
1.00001e-14
5.58267e-13
5.95858e-13
2.51339e-14
2.73598e-14
6.30362e-13
3.22391e-14
4.52632e-14
8.04284e-14
1.39953e-14
1.10909e-14
1.00698e-13
1.36006e-13
1.32035e-12
5.29048e-14
5.43728e-14
1.29743e-14
1.01648e-14
3.77469e-13
2.18774e-14
7.25731e-14
1.15342e-14
4.94333e-13
1.1347e-12
1.74682e-14
5.63867e-14
1.01977e-14
1.23941e-14
1.44319e-13
1.63172e-14
1.2279e-13
1e-14
3.58233e-14
4.80694e-13
1.0489e-14
1.89408e-14
1.17444e-12
1.01657e-13
1.14204e-12
1.16411e-12
9.21908e-14
1.16797e-12
1.14386e-12
1.01745e-13
1.17459e-12
1.89525e-14
4.80663e-13
1.04917e-14
3.58279e-14
1e-14
1.22807e-13
1.63346e-14
1.44832e-13
1.13338e-12
1.241e-14
5.67465e-14
1.02173e-14
1.78727e-14
4.94385e-13
1.22053e-14
7.05171e-14
2.1953e-14
3.78488e-13
1.02084e-14
5.42566e-14
1.28591e-14
5.15579e-14
1.32042e-12
1.23916e-13
9.86959e-14
1.07297e-14
1.42119e-14
8.05829e-14
4.44889e-14
3.20444e-14
6.32964e-13
2.72575e-14
5.98034e-13
2.49181e-14
5.59906e-13
4.18815e-13
1.6533e-14
1.76337e-14
5.5087e-13
5.8914e-13
2.30128e-14
2.51748e-14
2.26596e-14
1.43162e-14
6.24086e-13
2.93009e-14
3.97455e-14
3.15678e-14
1e-14
7.07314e-14
1.32185e-14
1.02495e-14
1e-14
1.08126e-14
9.13661e-14
1e-14
1.16083e-12
1.1722e-13
1.31152e-12
1e-14
1e-14
1.02351e-14
4.58892e-14
5.0659e-14
1.19739e-14
1.02059e-14
1.70787e-14
2.55375e-14
3.74856e-13
2.03769e-14
6.44414e-14
1e-14
1.20127e-13
1.27672e-14
4.94211e-13
8.33533e-13
1.12722e-12
3.71888e-14
1.01569e-14
1e-14
1.65801e-14
5.14061e-14
1.01249e-14
1.19453e-14
1.43026e-14
3.15746e-14
1.37509e-13
1.56137e-14
1.11588e-13
1e-14
1e-14
3.4335e-13
1.00906e-14
1.30911e-14
3.37749e-14
4.72796e-13
1.02976e-14
1.7346e-14
2.45033e-14
3.55713e-13
1.16184e-12
9.10032e-14
1.15206e-12
1.95607e-14
4.18186e-13
1.17065e-12
8.19318e-14
1.1747e-12
2.45112e-14
8.95337e-13
1.15375e-12
9.10917e-14
1.16184e-12
3.43292e-13
1.00907e-14
1.93651e-14
1.73564e-14
4.72797e-13
1.02993e-14
3.37736e-14
1e-14
1e-14
1.42969e-14
1e-14
1.11599e-13
1.56079e-14
1.37259e-13
8.34033e-13
1.12735e-12
3.73842e-14
1.01604e-14
1.11178e-14
1.19631e-14
5.15613e-14
1.01282e-14
1.66398e-14
1e-14
4.94405e-13
1.27572e-14
1.71716e-14
2.7817e-13
6.48638e-14
2.05182e-14
3.75187e-13
1e-14
1e-14
3.79537e-14
1.02008e-14
5.07038e-14
1.2025e-14
4.64347e-14
1e-14
1.31193e-12
1.18181e-13
1.02895e-14
9.20978e-14
1.07956e-14
3.28794e-14
1.32698e-14
7.14855e-14
2.26716e-14
4.51699e-13
4.00465e-14
2.94361e-14
6.24444e-13
4.22902e-13
1.65884e-14
4.05397e-13
2.52942e-14
5.8951e-13
2.31526e-14
5.5169e-13
4.23328e-13
1.64832e-14
1.75783e-14
5.50838e-13
5.88899e-13
2.293e-14
2.50903e-14
2.22302e-14
1.42803e-14
6.2431e-13
2.92179e-14
3.93379e-14
3.42156e-14
1e-14
7.01557e-14
1.31646e-14
1.02333e-14
1e-14
1.07432e-14
9.17846e-14
1e-14
1.16332e-12
1.18314e-13
1.3119e-12
1e-14
1e-14
1.02587e-14
4.57551e-14
4.96244e-14
1.18731e-14
1.01873e-14
1.6908e-14
2.52633e-14
3.75328e-13
2.0346e-14
6.45375e-14
1e-14
1.30279e-13
1.31883e-14
4.92436e-13
8.40603e-13
1.128e-12
3.75778e-14
1.0142e-14
1e-14
1.66557e-14
5.1574e-14
1.01204e-14
1.18263e-14
1.40981e-14
3.3713e-14
1.3953e-13
1.54976e-14
1.1033e-13
1e-14
1e-14
3.44894e-13
1.01054e-14
1.28228e-14
3.40282e-14
4.73156e-13
1.03039e-14
1.70729e-14
2.66491e-14
3.76183e-13
1.16341e-12
8.90452e-14
1.14737e-12
2.11626e-14
4.39493e-13
1.16618e-12
8.03868e-14
1.17017e-12
2.66543e-14
8.97224e-13
1.14902e-12
8.91254e-14
1.16337e-12
3.44883e-13
1.01052e-14
1.91798e-14
1.7083e-14
4.7316e-13
1.03049e-14
3.40245e-14
1e-14
1e-14
1.40984e-14
1e-14
1.10358e-13
1.55002e-14
1.39482e-13
8.40648e-13
1.12826e-12
3.7643e-14
1.01421e-14
1.09581e-14
1.18281e-14
5.15961e-14
1.01214e-14
1.6664e-14
1e-14
4.92476e-13
1.31849e-14
1.6955e-14
2.79431e-13
6.46059e-14
2.03676e-14
3.75325e-13
1e-14
1e-14
3.72697e-14
1.01866e-14
4.9605e-14
1.1878e-14
4.58412e-14
1e-14
1.31238e-12
1.18398e-13
1.02393e-14
9.18624e-14
1.07454e-14
3.44328e-14
1.31763e-14
7.02477e-14
2.22717e-14
4.53344e-13
3.93776e-14
2.9233e-14
6.24191e-13
4.23468e-13
1.65271e-14
4.05675e-13
2.50934e-14
5.88917e-13
2.29564e-14
5.51196e-13
4.238e-13
1.65845e-14
1.76823e-14
5.50957e-13
5.88913e-13
2.29719e-14
2.51432e-14
2.23092e-14
1.4323e-14
6.24332e-13
2.92936e-14
3.93455e-14
3.4964e-14
1e-14
7.03042e-14
1.31584e-14
1.02341e-14
1e-14
1.07368e-14
9.17532e-14
1e-14
1.16091e-12
1.18566e-13
1.31203e-12
1e-14
1e-14
1.02639e-14
4.58557e-14
4.9403e-14
1.18601e-14
1.01845e-14
1.69797e-14
2.55718e-14
3.75608e-13
2.03981e-14
6.46526e-14
1e-14
1.29929e-13
1.32815e-14
4.91606e-13
8.41561e-13
1.12845e-12
3.79669e-14
1.0137e-14
1e-14
1.67071e-14
5.17136e-14
1.01158e-14
1.1798e-14
1.40827e-14
3.42233e-14
1.40768e-13
1.54852e-14
1.10173e-13
1e-14
1e-14
3.4525e-13
1.01062e-14
1.27797e-14
3.41056e-14
4.73317e-13
1.02965e-14
1.7053e-14
2.72312e-14
3.76432e-13
1.16363e-12
8.87658e-14
1.14635e-12
2.15748e-14
4.3991e-13
1.16514e-12
8.01677e-14
1.16915e-12
2.7234e-14
8.96811e-13
1.14805e-12
8.88416e-14
1.16371e-12
3.45217e-13
1.01059e-14
1.92489e-14
1.70631e-14
4.73306e-13
1.02975e-14
3.41071e-14
1e-14
1e-14
1.40833e-14
1e-14
1.10192e-13
1.54878e-14
1.40752e-13
8.41727e-13
1.1285e-12
3.79821e-14
1.01373e-14
1.09664e-14
1.17991e-14
5.17218e-14
1.01166e-14
1.67101e-14
1e-14
4.91608e-13
1.32784e-14
1.69848e-14
2.7965e-13
6.46711e-14
2.04023e-14
3.75606e-13
1e-14
1e-14
3.73945e-14
1.01842e-14
4.93966e-14
1.18615e-14
4.58736e-14
1e-14
1.31216e-12
1.18578e-13
1.0238e-14
9.17752e-14
1.07342e-14
3.50004e-14
1.31595e-14
7.03287e-14
2.23167e-14
4.53899e-13
3.9367e-14
2.92929e-14
6.24316e-13
4.23822e-13
1.65923e-14
4.06044e-13
2.51307e-14
5.88886e-13
2.29844e-14
5.51157e-13
4.23586e-13
1.65925e-14
1.76949e-14
5.50894e-13
5.89084e-13
2.30288e-14
2.52233e-14
2.23302e-14
1.42531e-14
6.24562e-13
2.94301e-14
3.95754e-14
3.5202e-14
1e-14
7.07131e-14
1.31543e-14
1.02328e-14
1e-14
1.0746e-14
9.16303e-14
1e-14
1.16009e-12
1.18648e-13
1.31189e-12
1e-14
1e-14
1.02627e-14
4.59795e-14
4.90804e-14
1.18539e-14
1.01823e-14
1.69913e-14
2.54818e-14
3.76026e-13
2.04339e-14
6.47362e-14
1e-14
1.29445e-13
1.33552e-14
4.90881e-13
8.41929e-13
1.12864e-12
3.80014e-14
1.0134e-14
1e-14
1.67355e-14
5.17338e-14
1.01094e-14
1.17709e-14
1.40658e-14
3.41569e-14
1.41882e-13
1.54712e-14
1.0998e-13
1e-14
1e-14
3.45382e-13
1.01036e-14
1.27722e-14
3.41027e-14
4.733e-13
1.02897e-14
1.70424e-14
2.72712e-14
3.76019e-13
1.16362e-12
8.8755e-14
1.14623e-12
2.16069e-14
4.39662e-13
1.16491e-12
8.01796e-14
1.16891e-12
2.72838e-14
8.96813e-13
1.14789e-12
8.88386e-14
1.16368e-12
3.45351e-13
1.01036e-14
1.92732e-14
1.70537e-14
4.73313e-13
1.02904e-14
3.41039e-14
1e-14
1e-14
1.40666e-14
1e-14
1.09993e-13
1.54733e-14
1.41879e-13
8.4177e-13
1.12863e-12
3.80068e-14
1.01341e-14
1.09858e-14
1.17718e-14
5.17437e-14
1.01097e-14
1.67374e-14
1e-14
4.90866e-13
1.33539e-14
1.69927e-14
2.79726e-13
6.47473e-14
2.04357e-14
3.76041e-13
1e-14
1e-14
3.74921e-14
1.01823e-14
4.90868e-14
1.18538e-14
4.59817e-14
1e-14
1.31182e-12
1.18619e-13
1.0233e-14
9.16261e-14
1.07452e-14
3.52013e-14
1.31566e-14
7.07199e-14
2.23283e-14
4.5376e-13
3.95822e-14
2.94231e-14
6.24455e-13
4.2367e-13
1.65965e-14
4.0591e-13
2.52047e-14
5.89028e-13
2.3037e-14
5.51256e-13
4.22978e-13
1.6575e-14
1.76867e-14
5.5104e-13
5.89518e-13
2.31473e-14
2.54187e-14
2.23507e-14
1.41119e-14
6.24556e-13
2.982e-14
4.03572e-14
3.56274e-14
1e-14
7.15603e-14
1.32272e-14
1.02223e-14
1e-14
1.0841e-14
9.16412e-14
1e-14
1.15886e-12
1.19239e-13
1.31153e-12
1e-14
1e-14
1.02563e-14
4.64411e-14
4.82978e-14
1.1842e-14
1.01789e-14
1.69815e-14
2.5265e-14
3.77173e-13
2.05073e-14
6.50098e-14
1e-14
1.28394e-13
1.34625e-14
4.89901e-13
8.41947e-13
1.12878e-12
3.79791e-14
1.01326e-14
1e-14
1.6776e-14
5.18765e-14
1.01012e-14
1.17437e-14
1.40102e-14
3.38509e-14
1.43418e-13
1.549e-14
1.09981e-13
1e-14
1e-14
3.45537e-13
1.00911e-14
1.27583e-14
3.41337e-14
4.73232e-13
1.02873e-14
1.70619e-14
2.72261e-14
3.75825e-13
1.16364e-12
8.91547e-14
1.14579e-12
2.15898e-14
4.39461e-13
1.16451e-12
8.04215e-14
1.16849e-12
2.72361e-14
8.96692e-13
1.14746e-12
8.92404e-14
1.16359e-12
3.45509e-13
1.0091e-14
1.92415e-14
1.7074e-14
4.73266e-13
1.02876e-14
3.41331e-14
1e-14
1e-14
1.40106e-14
1e-14
1.09995e-13
1.54914e-14
1.43405e-13
8.41857e-13
1.12882e-12
3.79854e-14
1.01325e-14
1.10155e-14
1.17445e-14
5.18865e-14
1.01012e-14
1.67777e-14
1e-14
4.89926e-13
1.34612e-14
1.69835e-14
2.79699e-13
6.50149e-14
2.05078e-14
3.77183e-13
1e-14
1e-14
3.7748e-14
1.01788e-14
4.83004e-14
1.18426e-14
4.64485e-14
1e-14
1.3116e-12
1.19258e-13
1.0224e-14
9.16564e-14
1.08387e-14
3.56248e-14
1.32283e-14
7.15645e-14
2.23468e-14
4.5278e-13
4.03627e-14
2.9808e-14
6.24508e-13
4.22987e-13
1.65761e-14
4.05253e-13
2.53958e-14
5.89446e-13
2.31554e-14
5.51428e-13
4.20537e-13
1.62891e-14
1.7379e-14
5.52403e-13
5.91751e-13
2.39059e-14
2.65174e-14
2.22831e-14
1.36924e-14
6.25911e-13