/*--------------------------------*- C++ -*----------------------------------*\
| =========                 |                                                 |
| \\      /  F ield         | OpenFOAM: The Open Source CFD Toolbox           |
|  \\    /   O peration     | Version:  2.1.1                                 |
|   \\  /    A nd           | Web:      www.OpenFOAM.org                      |
|    \\/     M anipulation  |                                                 |
\*---------------------------------------------------------------------------*/
FoamFile
{
    version     2.0;
    format      ascii;
    class       volScalarField;
    location    "0.02";
    object      p;
}
// * * * * * * * * * * * * * * * * * * * * * * * * * * * * * * * * * * * * * //

dimensions      [0 2 -2 0 0 0 0];

internalField   nonuniform List<scalar> 
163952
(
0.0425282
0.0419519
0.0372157
0.032021
0.0308243
0.0282129
0.0276229
0.0272992
0.0375358
0.0331937
0.0281522
0.0256626
0.024419
0.0236401
0.0233259
0.0231847
0.0345669
0.0288301
0.0253264
0.0236869
0.0227744
0.0222366
0.021898
0.0217178
0.0216323
0.0344366
0.0269379
0.0241036
0.0227571
0.022002
0.0215233
0.0212038
0.0209923
0.0208662
0.0208027
0.0344379
0.0263959
0.0235794
0.0223013
0.0215866
0.021123
0.0207991
0.0205684
0.020409
0.0203086
0.0202562
0.0345671
0.0269379
0.0235794
0.0221578
0.0213954
0.0209068
0.0205615
0.0203077
0.0201212
0.0199893
0.0199038
0.0198584
0.0375355
0.02883
0.0241036
0.0223013
0.0213954
0.0208372
0.0204491
0.0201626
0.0199471
0.0197867
0.0196719
0.0195965
0.019556
0.0331937
0.0253264
0.0227571
0.0215866
0.0209068
0.0204491
0.0201157
0.0198642
0.0196731
0.0195299
0.0194269
0.0193588
0.0193221
0.0372158
0.0281523
0.0236869
0.022002
0.021123
0.0205615
0.0201626
0.0198642
0.0196363
0.0194622
0.0193313
0.0192368
0.019174
0.01914
0.0320211
0.0256626
0.0227744
0.0215233
0.0207991
0.0203077
0.0199471
0.0196731
0.0194622
0.0193004
0.0191784
0.01909
0.0190311
0.0189992
0.0308243
0.0244191
0.0222366
0.0212038
0.0205684
0.0201212
0.0197867
0.0195299
0.0193313
0.0191784
0.0190627
0.0189787
0.0189226
0.0188922
0.0282129
0.0236401
0.021898
0.0209923
0.020409
0.0199893
0.0196719
0.0194269
0.0192368
0.01909
0.0189787
0.0188978
0.0188437
0.0188143
0.0425281
0.0276229
0.0233259
0.0217178
0.0208662
0.0203086
0.0199038
0.0195965
0.0193588
0.019174
0.0190311
0.0189226
0.0188437
0.0187909
0.0187622
0.0419519
0.0272992
0.0231847
0.0216323
0.0208027
0.0202562
0.0198584
0.019556
0.0193221
0.01914
0.0189992
0.0188922
0.0188143
0.0187622
0.0187339
0.0243542
0.024411
0.0233488
0.0245581
0.0232891
0.0229751
0.0229303
0.0229095
0.0234535
0.0252674
0.0229547
0.0226425
0.0223821
0.0221914
0.0221167
0.022065
0.0242317
0.0230065
0.0225887
0.0221769
0.0218362
0.0215577
0.021373
0.021277
0.0212276
0.022976
0.0226858
0.0222487
0.0218075
0.0214149
0.0211039
0.0208678
0.0207082
0.0206161
0.0205718
0.0229767
0.0225565
0.0220646
0.0215608
0.021134
0.0207917
0.0205323
0.0203412
0.0202095
0.0201293
0.0200908
0.0242318
0.0226859
0.0220646
0.0214808
0.0209921
0.0206143
0.0203253
0.0201076
0.019947
0.0198348
0.0197645
0.0197306
0.0234536
0.0230065
0.0222487
0.0215608
0.0209921
0.0205557
0.0202265
0.0199763
0.0197872
0.0196469
0.0195481
0.0194853
0.0194548
0.0252674
0.0225887
0.0218075
0.021134
0.0206143
0.0202265
0.0199339
0.0197109
0.0195415
0.0194154
0.0193259
0.0192687
0.0192407
0.0233488
0.0229547
0.0221769
0.0214149
0.0207917
0.0203253
0.0199763
0.0197109
0.0195074
0.0193521
0.0192359
0.0191532
0.0191
0.0190739
0.0245581
0.0226425
0.0218362
0.0211039
0.0205323
0.0201076
0.0197872
0.0195415
0.0193521
0.0192068
0.0190978
0.0190199
0.0189697
0.018945
0.0232891
0.0223821
0.0215577
0.0208678
0.0203412
0.019947
0.0196469
0.0194154
0.0192359
0.0190978
0.0189939
0.0189194
0.0188714
0.0188478
0.0229751
0.0221914
0.021373
0.0207082
0.0202095
0.0198348
0.0195481
0.0193259
0.0191532
0.0190199
0.0189194
0.0188474
0.0188008
0.0187779
0.0243542
0.0229303
0.0221167
0.021277
0.0206161
0.0201293
0.0197645
0.0194853
0.0192686
0.0191
0.0189697
0.0188714
0.0188008
0.0187552
0.0187328
0.024411
0.0229095
0.0220649
0.0212276
0.0205718
0.0200908
0.0197306
0.0194548
0.0192407
0.0190739
0.018945
0.0188478
0.0187779
0.0187328
0.0187106
0.0207105
0.0207248
0.0207895
0.0211714
0.0213949
0.0212793
0.0211718
0.0211312
0.0207963
0.0216401
0.0211899
0.021112
0.0210173
0.0209786
0.0209493
0.0209239
0.0210066
0.0212037
0.0211034
0.020983
0.0208465
0.0207021
0.0206109
0.0205559
0.0205256
0.0213536
0.0211368
0.0210118
0.0208321
0.0206403
0.0204746
0.0203349
0.020235
0.0201728
0.0201416
0.0213544
0.0210916
0.0209388
0.0207174
0.0204927
0.0202903
0.0201243
0.0199932
0.0198987
0.0198388
0.0198092
0.0210066
0.021137
0.0209388
0.0206795
0.0204139
0.0201806
0.0199843
0.0198262
0.0197037
0.0196154
0.0195588
0.0195311
0.0207963
0.0212038
0.0210119
0.0207174
0.0204139
0.0201431
0.0199151
0.019728
0.0195791
0.0194649
0.0193825
0.0193294
0.0193033
0.0216401
0.0211035
0.0208321
0.0204927
0.0201806
0.0199151
0.0196956
0.0195181
0.0193779
0.0192708
0.0191935
0.0191435
0.019119
0.0207895
0.02119
0.020983
0.0206403
0.0202903
0.0199843
0.019728
0.0195181
0.0193494
0.0192167
0.0191154
0.0190422
0.0189948
0.0189715
0.0211714
0.021112
0.0208465
0.0204746
0.0201243
0.0198262
0.0195791
0.0193779
0.0192167
0.0190899
0.0189931
0.0189232
0.0188778
0.0188555
0.0213949
0.0210173
0.0207021
0.0203349
0.0199932
0.0197037
0.0194649
0.0192708
0.0191154
0.0189931
0.0188998
0.0188323
0.0187885
0.0187669
0.0212792
0.0209786
0.0206109
0.020235
0.0198987
0.0196154
0.0193825
0.0191935
0.0190422
0.0189232
0.0188323
0.0187665
0.0187238
0.0187027
0.0207105
0.0211718
0.0209493
0.0205559
0.0201728
0.0198388
0.0195588
0.0193293
0.0191435
0.0189948
0.0188778
0.0187885
0.0187238
0.0186817
0.018661
0.0207248
0.0211312
0.0209239
0.0205256
0.0201416
0.0198092
0.0195311
0.0193033
0.019119
0.0189715
0.0188555
0.0187669
0.0187027
0.018661
0.0186405
0.0193632
0.0193735
0.0194803
0.0197073
0.0200381
0.0200377
0.0199853
0.0199633
0.0194951
0.019921
0.019961
0.0199485
0.0199194
0.0199209
0.0199197
0.0199162
0.019636
0.0199648
0.0199524
0.0199454
0.0199169
0.0198653
0.0198297
0.0198044
0.0197902
0.0200681
0.0199682
0.0199622
0.0199122
0.0198462
0.0197822
0.0197195
0.0196699
0.0196353
0.0196171
0.0200687
0.0199485
0.0199436
0.0198808
0.0197916
0.0196985
0.0196129
0.0195386
0.0194816
0.0194436
0.0194242
0.019636
0.0199683
0.0199436
0.0198695
0.019761
0.0196452
0.0195352
0.0194383
0.0193582
0.0192978
0.0192579
0.019238
0.0194952
0.0199648
0.0199623
0.0198808
0.0197611
0.0196266
0.0194949
0.0193756
0.0192741
0.0191923
0.0191313
0.0190911
0.0190711
0.019921
0.0199524
0.0199122
0.0197916
0.0196452
0.0194949
0.0193545
0.0192314
0.0191288
0.0190474
0.018987
0.0189473
0.0189276
0.0194803
0.019961
0.0199455
0.0198462
0.0196985
0.0195352
0.0193756
0.0192314
0.0191076
0.0190057
0.0189254
0.0188661
0.0188272
0.0188079
0.0197073
0.0199485
0.0199169
0.0197822
0.0196129
0.0194383
0.0192741
0.0191288
0.0190057
0.018905
0.0188261
0.018768
0.0187299
0.018711
0.0200381
0.0199194
0.0198653
0.0197195
0.0195386
0.0193582
0.0191923
0.0190474
0.0189254
0.0188261
0.0187485
0.0186915
0.0186541
0.0186356
0.0200377
0.0199209
0.0198297
0.0196699
0.0194816
0.0192978
0.0191313
0.018987
0.0188661
0.018768
0.0186915
0.0186353
0.0185985
0.0185802
0.0193632
0.0199853
0.0199197
0.0198044
0.0196353
0.0194436
0.0192579
0.0190911
0.0189473
0.0188272
0.0187299
0.0186541
0.0185985
0.018562
0.0185439
0.0193735
0.0199633
0.0199162
0.0197902
0.019617
0.0194242
0.019238
0.0190711
0.0189276
0.0188079
0.018711
0.0186356
0.0185802
0.0185439
0.0185259
0.0186451
0.0186532
0.018706
0.0188546
0.0190709
0.0191144
0.0191048
0.0191033
0.0187309
0.0189632
0.019071
0.0190902
0.0190957
0.0191082
0.0191165
0.019121
0.0188208
0.0190724
0.0190987
0.0191319
0.0191505
0.0191501
0.0191472
0.0191413
0.0191371
0.0191049
0.0190944
0.0191384
0.019152
0.0191524
0.019145
0.0191299
0.019114
0.0191004
0.0190925
0.0191053
0.0190892
0.0191454
0.019161
0.0191488
0.019124
0.0190928
0.0190601
0.0190325
0.0190126
0.0190021
0.0188208
0.0190945
0.0191453
0.0191637
0.019146
0.0191072
0.0190598
0.0190113
0.018967
0.0189315
0.018907
0.0188944
0.018731
0.0190724
0.0191385
0.019161
0.019146
0.0191012
0.0190413
0.0189778
0.0189181
0.0188666
0.0188265
0.0187993
0.0187856
0.0189633
0.0190987
0.019152
0.0191489
0.0191072
0.0190413
0.0189661
0.018892
0.0188255
0.0187699
0.0187273
0.0186987
0.0186843
0.018706
0.019071
0.0191319
0.0191524
0.019124
0.0190598
0.0189778
0.018892
0.0188114
0.0187409
0.0186831
0.0186392
0.0186098
0.0185951
0.0188546
0.0190902
0.0191505
0.0191451
0.0190928
0.0190113
0.0189181
0.0188255
0.0187409
0.0186682
0.0186092
0.0185647
0.018535
0.0185201
0.0190709
0.0190957
0.0191501
0.0191299
0.0190601
0.018967
0.0188666
0.0187699
0.0186831
0.0186092
0.0185496
0.0185048
0.0184751
0.0184602
0.0191144
0.0191082
0.0191472
0.019114
0.0190325
0.0189315
0.0188265
0.0187273
0.0186392
0.0185647
0.0185048
0.01846
0.0184303
0.0184154
0.0186451
0.0191048
0.0191164
0.0191413
0.0191004
0.0190126
0.018907
0.0187993
0.0186987
0.0186098
0.018535
0.0184751
0.0184303
0.0184005
0.0183857
0.0186532
0.0191032
0.019121
0.0191371
0.0190925
0.0190021
0.0188944
0.0187856
0.0186842
0.0185951
0.0185201
0.0184602
0.0184154
0.0183857
0.0183709
0.0181348
0.0181415
0.0181539
0.0182467
0.0183718
0.0184221
0.0184273
0.0184334
0.018176
0.0183199
0.0184017
0.0184327
0.0184542
0.0184736
0.0184843
0.0184903
0.0182309
0.0184021
0.0184437
0.0184878
0.0185219
0.0185428
0.0185568
0.0185626
0.0185646
0.0184027
0.0184294
0.0184877
0.0185265
0.0185559
0.0185759
0.0185863
0.0185908
0.0185912
0.0185906
0.0184029
0.0184337
0.0185045
0.0185507
0.0185766
0.0185898
0.0185924
0.0185881
0.0185815
0.0185754
0.0185717
0.0182309
0.0184295
0.0185044
0.0185592
0.0185873
0.0185949
0.0185895
0.0185761
0.0185595
0.0185441
0.0185324
0.0185262
0.0181761
0.0184021
0.0184878
0.0185507
0.0185873
0.0185965
0.0185862
0.0185647
0.0185386
0.0185127
0.0184909
0.0184753
0.0184672
0.0183199
0.0184437
0.0185265
0.0185766
0.018595
0.0185862
0.0185602
0.0185262
0.0184907
0.0184584
0.0184322
0.018414
0.0184046
0.0181539
0.0184017
0.0184878
0.0185559
0.0185898
0.0185895
0.0185647
0.0185262
0.0184829
0.0184409
0.0184042
0.0183751
0.0183551
0.0183449
0.0182467
0.0184327
0.0185219
0.0185759
0.0185924
0.0185761
0.0185386
0.0184907
0.0184409
0.0183945
0.0183548
0.0183238
0.0183027
0.018292
0.0183717
0.0184542
0.0185428
0.0185863
0.018588
0.0185595
0.0185127
0.0184584
0.0184042
0.0183548
0.0183132
0.018281
0.0182591
0.0182481
0.0184221
0.0184736
0.0185568
0.0185908
0.0185815
0.0185441
0.0184909
0.0184322
0.0183751
0.0183238
0.018281
0.018248
0.0182258
0.0182145
0.0181348
0.0184273
0.0184843
0.0185626
0.0185912
0.0185754
0.0185324
0.0184753
0.018414
0.0183551
0.0183027
0.0182591
0.0182257
0.0182032
0.0181919
0.0181415
0.0184334
0.0184903
0.0185646
0.0185906
0.0185717
0.0185262
0.0184672
0.0184046
0.0183449
0.018292
0.0182481
0.0182145
0.0181919
0.0181805
0.0177012
0.0177088
0.0177014
0.0177611
0.0178278
0.0178739
0.017883
0.0178908
0.0177193
0.0178204
0.0178674
0.0178988
0.017924
0.017947
0.0179592
0.017966
0.0177537
0.0178675
0.017911
0.0179552
0.0179918
0.0180188
0.0180397
0.0180516
0.018057
0.0178547
0.0178931
0.0179517
0.0179977
0.0180372
0.0180689
0.0180916
0.0181072
0.0181159
0.0181197
0.0178548
0.0179007
0.0179702
0.0180256
0.018068
0.0181005
0.0181226
0.0181359
0.0181434
0.0181469
0.0181482
0.0177537
0.0178932
0.0179702
0.0180356
0.0180845
0.0181179
0.0181386
0.018149
0.0181522
0.0181518
0.0181501
0.0181489
0.0177193
0.0178675
0.0179518
0.0180256
0.0180845
0.0181237
0.0181452
0.0181532
0.0181522
0.0181465
0.0181394
0.0181336
0.0181302
0.0178204
0.017911
0.0179977
0.018068
0.0181179
0.0181452
0.0181541
0.0181505
0.0181399
0.018127
0.0181149
0.0181057
0.0181009
0.0177014
0.0178674
0.0179552
0.0180372
0.0181005
0.0181386
0.0181532
0.0181505
0.0181372
0.0181193
0.0181009
0.0180851
0.0180736
0.0180676
0.0177611
0.0178988
0.0179918
0.0180689
0.0181226
0.0181489
0.0181522
0.0181399
0.0181193
0.0180959
0.0180736
0.0180551
0.018042
0.0180352
0.0178278
0.017924
0.0180188
0.0180916
0.0181359
0.0181522
0.0181465
0.018127
0.0181009
0.0180736
0.0180486
0.0180282
0.0180139
0.0180066
0.0178738
0.017947
0.0180397
0.0181072
0.0181434
0.0181518
0.0181394
0.0181149
0.0180851
0.0180551
0.0180282
0.0180066
0.0179916
0.0179839
0.0177012
0.017883
0.0179592
0.0180516
0.0181159
0.0181469
0.0181501
0.0181335
0.0181057
0.0180736
0.018042
0.0180139
0.0179916
0.0179761
0.0179682
0.0177088
0.0178908
0.017966
0.018057
0.0181197
0.0181482
0.0181489
0.0181302
0.0181009
0.0180676
0.0180352
0.0180066
0.0179839
0.0179682
0.0179602
0.017311
0.017319
0.0173078
0.017347
0.0173787
0.0174171
0.0174269
0.0174346
0.0173211
0.0173982
0.0174193
0.0174469
0.0174705
0.0174933
0.0175059
0.017513
0.0173441
0.0174192
0.0174593
0.0174996
0.017534
0.0175609
0.0175833
0.0175973
0.0176041
0.0174013
0.0174408
0.0174947
0.0175402
0.0175812
0.0176163
0.0176439
0.0176646
0.0176775
0.0176837
0.0174014
0.0174486
0.0175118
0.0175672
0.0176148
0.0176555
0.0176874
0.0177107
0.0177266
0.0177362
0.0177407
0.0173441
0.0174409
0.0175117
0.0175769
0.0176329
0.0176788
0.0177141
0.0177391
0.0177554
0.0177654
0.0177709
0.0177733
0.0173211
0.0174192
0.0174947
0.0175672
0.0176329
0.0176867
0.0177267
0.0177536
0.0177701
0.0177789
0.0177831
0.0177848
0.0177852
0.0173982
0.0174593
0.0175402
0.0176148
0.0176788
0.0177267
0.0177581
0.0177759
0.0177841
0.0177863
0.0177855
0.0177839
0.0177828
0.0173078
0.0174193
0.0174996
0.0175812
0.0176555
0.0177141
0.0177536
0.0177759
0.0177853
0.0177865
0.0177832
0.0177785
0.0177743
0.0177719
0.017347
0.0174469
0.017534
0.0176163
0.0176874
0.0177391
0.0177701
0.0177841
0.0177865
0.017782
0.0177745
0.0177667
0.0177607
0.0177574
0.0173787
0.0174705
0.0175609
0.0176439
0.0177106
0.0177554
0.0177789
0.0177863
0.0177832
0.0177745
0.0177639
0.017754
0.0177465
0.0177426
0.017417
0.0174933
0.0175832
0.0176646
0.0177266
0.0177654
0.0177831
0.0177855
0.0177785
0.0177667
0.017754
0.0177426
0.0177342
0.0177298
0.0173109
0.0174269
0.0175059
0.0175972
0.0176775
0.0177362
0.0177709
0.0177848
0.0177839
0.0177743
0.0177607
0.0177465
0.0177342
0.0177252
0.0177205
0.017319
0.0174346
0.017513
0.0176041
0.0176837
0.0177406
0.0177733
0.0177852
0.0177827
0.0177719
0.0177574
0.0177426
0.0177298
0.0177205
0.0177157
0.0169555
0.016963
0.0169542
0.0169805
0.0169916
0.0170223
0.0170314
0.0170381
0.016964
0.0170254
0.0170293
0.0170525
0.017073
0.0170936
0.0171054
0.0171121
0.0169807
0.0170294
0.0170645
0.0170998
0.0171303
0.017155
0.0171761
0.0171901
0.0171972
0.0170109
0.0170472
0.0170947
0.0171365
0.0171752
0.0172095
0.0172377
0.0172598
0.0172743
0.0172815
0.017011
0.0170543
0.0171097
0.017161
0.017208
0.0172504
0.0172859
0.0173137
0.0173341
0.017347
0.0173533
0.0169807
0.0170473
0.0171097
0.0171698
0.0172257
0.0172757
0.0173177
0.0173506
0.0173746
0.0173912
0.0174014
0.0174062
0.0169641
0.0170294
0.0170947
0.017161
0.0172257
0.0172843
0.0173333
0.0173712
0.0173987
0.0174174
0.0174295
0.0174366
0.0174398
0.0170254
0.0170645
0.0171365
0.017208
0.0172757
0.0173333
0.0173778
0.0174097
0.0174309
0.0174441
0.0174519
0.017456
0.0174578
0.0169542
0.0170293
0.0170997
0.0171752
0.0172503
0.0173177
0.0173712
0.0174097
0.0174349
0.0174502
0.0174585
0.0174626
0.0174643
0.0174649
0.0169804
0.0170525
0.0171303
0.0172095
0.0172859
0.0173506
0.0173987
0.0174309
0.0174502
0.0174603
0.0174647
0.0174658
0.0174656
0.0174653
0.0169916
0.017073
0.017155
0.0172377
0.0173137
0.0173746
0.0174174
0.0174441
0.0174585
0.0174647
0.0174659
0.0174649
0.0174632
0.0174622
0.0170223
0.0170935
0.0171761
0.0172598
0.0173341
0.0173912
0.0174295
0.0174519
0.0174626
0.0174658
0.0174649
0.0174622
0.0174596
0.017458
0.0169553
0.0170314
0.0171053
0.01719
0.0172742
0.017347
0.0174014
0.0174365
0.017456
0.0174643
0.0174656
0.0174632
0.0174596
0.0174563
0.0174544
0.0169629
0.0170381
0.0171121
0.0171972
0.0172815
0.0173533
0.0174062
0.0174398
0.0174578
0.0174649
0.0174653
0.0174622
0.017458
0.0174544
0.0174524
0.0166292
0.0166358
0.0166303
0.0166483
0.0166468
0.0166712
0.016679
0.0166845
0.0166379
0.016688
0.0166804
0.0166996
0.0167169
0.0167346
0.0167449
0.0167509
0.0166509
0.0166808
0.0167108
0.0167411
0.0167676
0.0167892
0.0168081
0.0168209
0.0168276
0.0166638
0.0166957
0.0167366
0.0167735
0.0168083
0.0168398
0.0168664
0.0168878
0.0169023
0.0169096
0.0166639
0.0167019
0.0167496
0.0167952
0.0168386
0.0168792
0.0169147
0.0169436
0.0169655
0.0169799
0.016987
0.0166508
0.0166957
0.0167496
0.016803
0.0168551
0.0169042
0.0169478
0.0169839
0.0170119
0.017032
0.0170449
0.0170512
0.0166379
0.0166808
0.0167366
0.0167952
0.016855
0.0169128
0.0169646
0.0170077
0.0170413
0.0170661
0.0170832
0.0170939
0.017099
0.016688
0.0167108
0.0167735
0.0168386
0.0169042
0.0169646
0.0170154
0.0170553
0.0170848
0.0171056
0.0171194
0.0171277
0.0171316
0.0166303
0.0166804
0.0167411
0.0168083
0.0168791
0.0169478
0.0170077
0.0170553
0.0170908
0.0171158
0.0171326
0.0171433
0.0171495
0.0171523
0.0166483
0.0166996
0.0167676
0.0168398
0.0169146
0.0169839
0.0170413
0.0170848
0.0171158
0.0171366
0.0171499
0.017158
0.0171624
0.0171644
0.0166468
0.0167169
0.0167892
0.0168664
0.0169435
0.0170119
0.0170661
0.0171056
0.0171326
0.0171499
0.0171605
0.0171664
0.0171695
0.0171708
0.0166712
0.0167346
0.0168081
0.0168878
0.0169654
0.017032
0.0170832
0.0171194
0.0171433
0.017158
0.0171664
0.0171709
0.017173
0.0171738
0.016629
0.016679
0.0167449
0.0168209
0.0169022
0.0169799
0.0170449
0.0170939
0.0171277
0.0171495
0.0171624
0.0171695
0.017173
0.0171745
0.017175
0.0166356
0.0166845
0.0167509
0.0168276
0.0169096
0.016987
0.0170512
0.017099
0.0171316
0.0171523
0.0171644
0.0171708
0.0171738
0.017175
0.0171753
0.0163265
0.016332
0.0163294
0.0163425
0.016332
0.0163516
0.016358
0.0163624
0.0163356
0.0163771
0.0163614
0.0163773
0.0163917
0.0164066
0.0164153
0.0164205
0.0163463
0.0163623
0.0163877
0.0164134
0.0164359
0.0164545
0.0164708
0.016482
0.0164879
0.0163477
0.0163751
0.0164099
0.0164418
0.0164721
0.0165
0.0165239
0.0165435
0.016557
0.0165639
0.0163477
0.0163806
0.0164212
0.0164607
0.0164993
0.0165362
0.0165695
0.0165974
0.016619
0.0166336
0.0166409
0.0163463
0.0163752
0.0164212
0.0164676
0.0165141
0.0165598
0.0166019
0.0166381
0.0166671
0.0166887
0.0167028
0.0167098
0.0163356
0.0163623
0.0164099
0.0164607
0.0165141
0.016568
0.0166185
0.0166627
0.0166989
0.0167267
0.0167467
0.0167595
0.0167658
0.0163771
0.0163877
0.0164418
0.0164993
0.0165598
0.0166185
0.016671
0.0167145
0.0167486
0.0167739
0.0167916
0.0168027
0.0168081
0.0163294
0.0163614
0.0164134
0.0164721
0.0165362
0.0166019
0.0166627
0.0167145
0.0167557
0.0167868
0.0168092
0.0168245
0.0168339
0.0168384
0.0163424
0.0163773
0.0164359
0.0165
0.0165695
0.0166381
0.0166989
0.0167486
0.0167868
0.0168148
0.0168345
0.0168476
0.0168555
0.0168592
0.016332
0.0163917
0.0164544
0.0165239
0.0165974
0.0166671
0.0167267
0.0167739
0.0168092
0.0168345
0.0168518
0.0168631
0.0168699
0.016873
0.0163516
0.0164066
0.0164708
0.0165435
0.016619
0.0166887
0.0167467
0.0167916
0.0168245
0.0168476
0.0168631
0.0168731
0.0168789
0.0168816
0.0163263
0.0163579
0.0164153
0.016482
0.016557
0.0166335
0.0167028
0.0167595
0.0168027
0.0168339
0.0168555
0.0168699
0.0168789
0.0168842
0.0168866
0.0163318
0.0163624
0.0164205
0.0164879
0.0165639
0.0166409
0.0167098
0.0167658
0.0168081
0.0168384
0.0168592
0.016873
0.0168816
0.0168866
0.0168888
0.0160423
0.0160469
0.0160464
0.0160567
0.0160394
0.0160552
0.0160603
0.0160639
0.0160518
0.0160867
0.0160652
0.0160783
0.0160902
0.0161025
0.0161096
0.0161139
0.016061
0.0160667
0.0160881
0.0161097
0.0161285
0.0161441
0.0161578
0.0161672
0.0161723
0.0160546
0.016078
0.0161074
0.0161344
0.0161602
0.0161842
0.016205
0.0162222
0.0162342
0.0162405
0.0160546
0.0160829
0.0161173
0.0161509
0.0161842
0.0162167
0.0162466
0.0162722
0.0162924
0.0163062
0.0163132
0.016061
0.016078
0.0161172
0.0161569
0.0161974
0.0162381
0.0162768
0.0163111
0.0163393
0.0163608
0.0163751
0.0163823
0.0160518
0.0160667
0.0161074
0.0161509
0.0161974
0.0162456
0.0162926
0.0163353
0.0163714
0.0164001
0.0164212
0.016435
0.0164418
0.0160867
0.0160881
0.0161344
0.0161842
0.0162381
0.0162926
0.0163434
0.0163874
0.0164233
0.0164509
0.0164707
0.0164835
0.0164897
0.0160464
0.0160652
0.0161097
0.0161602
0.0162167
0.0162768
0.0163353
0.0163874
0.0164309
0.0164653
0.016491
0.0165092
0.0165207
0.0165263
0.0160567
0.0160783
0.0161285
0.0161842
0.0162466
0.0163111
0.0163714
0.0164233
0.0164653
0.0164976
0.0165214
0.0165379
0.0165482
0.0165532
0.0160394
0.0160902
0.016144
0.016205
0.0162722
0.0163393
0.0164
0.0164509
0.016491
0.0165214
0.0165433
0.0165584
0.0165678
0.0165723
0.0160552
0.0161025
0.0161578
0.0162222
0.0162924
0.0163608
0.0164212
0.0164707
0.0165092
0.0165379
0.0165584
0.0165724
0.016581
0.0165851
0.0160422
0.0160603
0.0161096
0.0161672
0.0162342
0.0163061
0.0163751
0.016435
0.0164834
0.0165207
0.0165482
0.0165678
0.016581
0.0165892
0.016593
0.0160468
0.0160639
0.0161139
0.0161723
0.0162405
0.0163132
0.0163822
0.0164418
0.0164897
0.0165263
0.0165532
0.0165723
0.0165851
0.016593
0.0165967
0.0157726
0.0157764
0.0157775
0.0157864
0.0157638
0.0157767
0.0157805
0.0157835
0.0157826
0.0158125
0.0157866
0.0157974
0.0158071
0.0158171
0.0158226
0.0158262
0.015791
0.015789
0.0158068
0.0158247
0.0158402
0.0158529
0.0158641
0.0158718
0.015876
0.0157794
0.0157993
0.0158238
0.0158463
0.0158677
0.0158878
0.0159053
0.0159199
0.0159302
0.0159356
0.0157795
0.0158038
0.0158327
0.0158608
0.0158887
0.0159164
0.0159423
0.0159648
0.0159829
0.0159954
0.0160018
0.015791
0.0157993
0.0158326
0.015866
0.0159003
0.0159354
0.0159697
0.0160008
0.016027
0.0160472
0.0160609
0.0160678
0.0157826
0.015789
0.0158238
0.0158608
0.0159003
0.0159422
0.0159842
0.0160235
0.0160578
0.0160857
0.0161067
0.0161206
0.0161276
0.0158125
0.0158068
0.0158463
0.0158887
0.0159354
0.0159842
0.0160313
0.0160735
0.016109
0.0161371
0.0161577
0.0161712
0.0161779
0.0157775
0.0157866
0.0158247
0.0158677
0.0159164
0.0159697
0.0160235
0.0160735
0.0161168
0.0161521
0.0161794
0.0161991
0.0162118
0.016218
0.0157864
0.0157974
0.0158402
0.0158877
0.0159423
0.0160008
0.0160578
0.016109
0.0161521
0.0161865
0.0162126
0.0162311
0.016243
0.0162488
0.0157638
0.0158071
0.0158529
0.0159053
0.0159648
0.0160269
0.0160857
0.0161371
0.0161794
0.0162126
0.0162374
0.0162549
0.0162661
0.0162715
0.0157767
0.0158171
0.0158641
0.0159199
0.0159829
0.0160472
0.0161067
0.0161577
0.0161991
0.0162311
0.0162549
0.0162716
0.0162822
0.0162873
0.0157725
0.0157805
0.0158226
0.0158718
0.0159302
0.0159954
0.0160609
0.0161206
0.0161712
0.0162118
0.016243
0.0162661
0.0162822
0.0162924
0.0162973
0.0157763
0.0157835
0.0158262
0.015876
0.0159356
0.0160018
0.0160678
0.0161276
0.0161778
0.016218
0.0162488
0.0162715
0.0162873
0.0162973
0.0163021
0.015514
0.0155172
0.0155199
0.0155276
0.0155017
0.0155123
0.0155147
0.0155171
0.0155252
0.0155512
0.0155222
0.015531
0.0155387
0.0155466
0.0155506
0.0155534
0.0155332
0.0155257
0.0155402
0.0155548
0.0155673
0.0155772
0.0155859
0.0155918
0.0155952
0.0155192
0.0155356
0.0155556
0.0155737
0.0155909
0.015607
0.0156212
0.0156331
0.0156415
0.0156459
0.0155192
0.01554
0.0155638
0.0155865
0.0156091
0.0156317
0.0156533
0.0156725
0.015688
0.0156989
0.0157045
0.0155332
0.0155356
0.0155637
0.0155911
0.0156191
0.0156484
0.0156776
0.0157047
0.0157281
0.0157464
0.015759
0.0157654
0.0155252
0.0155257
0.0155556
0.0155864
0.0156191
0.0156543
0.0156906
0.0157255
0.0157568
0.0157828
0.0158028
0.0158162
0.015823
0.0155512
0.0155402
0.0155737
0.0156091
0.0156484
0.0156906
0.0157326
0.0157716
0.0158053
0.0158326
0.015853
0.0158665
0.0158733
0.0155199
0.0155222
0.0155548
0.0155909
0.0156317
0.0156776
0.0157255
0.0157716
0.0158128
0.0158475
0.0158749
0.0158951
0.0159084
0.0159149
0.0155276
0.015531
0.0155672
0.015607
0.0156533
0.0157047
0.0157568
0.0158053
0.0158475
0.0158822
0.0159092
0.0159288
0.0159415
0.0159478
0.0155017
0.0155387
0.0155772
0.0156211
0.0156724
0.015728
0.0157828
0.0158326
0.0158749
0.0159092
0.0159355
0.0159545
0.0159667
0.0159727
0.0155123
0.0155466
0.0155859
0.015633
0.015688
0.0157464
0.0158028
0.015853
0.0158951
0.0159288
0.0159545
0.0159728
0.0159846
0.0159904
0.015514
0.0155146
0.0155505
0.0155918
0.0156414
0.0156989
0.015759
0.0158162
0.0158665
0.0159084
0.0159415
0.0159667
0.0159846
0.0159962
0.0160018
0.0155172
0.0155171
0.0155534
0.0155951
0.0156459
0.0157045
0.0157654
0.0158229
0.0158733
0.0159149
0.0159478
0.0159727
0.0159904
0.0160018
0.0160073
0.0152643
0.0152672
0.0152715
0.0152785
0.0152509
0.0152596
0.0152601
0.0152622
0.0152774
0.0153005
0.0152697
0.0152766
0.0152822
0.015288
0.0152903
0.0152925
0.0152855
0.0152744
0.0152858
0.0152972
0.0153066
0.0153138
0.01532
0.0153241
0.0153265
0.0152723
0.0152845
0.0153001
0.0153137
0.0153266
0.0153388
0.0153495
0.0153586
0.015365
0.0153685
0.0152723
0.0152892
0.0153078
0.015325
0.0153421
0.0153596
0.0153767
0.0153922
0.015405
0.0154141
0.0154188
0.0152855
0.0152845
0.0153078
0.0153291
0.0153507
0.0153738
0.0153976
0.0154204
0.0154405
0.0154566
0.0154678
0.0154735
0.0152774
0.0152744
0.0153001
0.015325
0.0153507
0.0153789
0.015409
0.0154389
0.0154665
0.01549
0.0155084
0.0155209
0.0155273
0.0153005
0.0152858
0.0153137
0.0153421
0.0153738
0.0154089
0.0154453
0.0154801
0.0155111
0.0155367
0.0155563
0.0155694
0.015576
0.0152715
0.0152697
0.0152972
0.0153266
0.0153596
0.0153976
0.0154389
0.0154801
0.0155182
0.0155511
0.0155778
0.0155977
0.0156109
0.0156175
0.0152785
0.0152765
0.0153066
0.0153387
0.0153767
0.0154204
0.0154665
0.0155111
0.0155511
0.0155849
0.0156118
0.0156317
0.0156447
0.0156512
0.0152509
0.0152822
0.0153138
0.0153495
0.0153922
0.0154405
0.01549
0.0155367
0.0155778
0.0156118
0.0156385
0.0156581
0.0156709
0.0156772
0.0152596
0.015288
0.01532
0.0153586
0.015405
0.0154566
0.0155084
0.0155563
0.0155977
0.0156317
0.0156581
0.0156774
0.0156899
0.0156961
0.0152642
0.0152601
0.0152903
0.015324
0.015365
0.0154141
0.0154678
0.0155209
0.0155694
0.0156109
0.0156447
0.0156709
0.0156899
0.0157022
0.0157083
0.0152672
0.0152621
0.0152925
0.0153265
0.0153685
0.0154188
0.0154735
0.0155272
0.015576
0.0156175
0.0156512
0.0156772
0.0156961
0.0157083
0.0157143
0.0150215
0.0150242
0.0150307
0.0150375
0.0150104
0.0150171
0.0150149
0.0150167
0.0150372
0.0150588
0.0150275
0.0150323
0.0150356
0.0150392
0.0150395
0.0150411
0.015046
0.0150332
0.0150417
0.0150497
0.015056
0.0150601
0.0150637
0.0150657
0.0150673
0.01504
0.0150443
0.015055
0.0150639
0.0150721
0.0150801
0.0150873
0.0150936
0.015098
0.0151005
0.01504
0.0150498
0.0150625
0.0150737
0.0150849
0.015097
0.0151095
0.0151213
0.0151313
0.0151385
0.0151424
0.015046
0.0150443
0.0150625
0.0150773
0.0150921
0.0151088
0.015127
0.0151453
0.0151619
0.0151756
0.0151853
0.0151903
0.0150372
0.0150332
0.015055
0.0150737
0.0150921
0.015113
0.0151366
0.0151613
0.015185
0.0152057
0.0152222
0.0152336
0.0152394
0.0150588
0.0150417
0.0150638
0.0150849
0.0151088
0.0151366
0.0151669
0.0151972
0.015225
0.0152486
0.0152669
0.0152793
0.0152856
0.0150307
0.0150275
0.0150497
0.0150721
0.015097
0.015127
0.0151613
0.0151972
0.0152316
0.0152622
0.0152875
0.0153067
0.0153196
0.0153261
0.0150375
0.0150323
0.0150559
0.0150801
0.0151095
0.0151452
0.0151849
0.015225
0.0152622
0.0152944
0.0153205
0.0153401
0.0153532
0.0153596
0.0150104
0.0150356
0.0150601
0.0150873
0.0151213
0.0151619
0.0152057
0.0152486
0.0152875
0.0153205
0.015347
0.0153666
0.0153796
0.015386
0.0150171
0.0150392
0.0150637
0.0150935
0.0151313
0.0151756
0.0152222
0.0152669
0.0153067
0.0153401
0.0153666
0.0153862
0.0153991
0.0154054
0.0150215
0.0150149
0.0150395
0.0150657
0.0150979
0.0151385
0.0151853
0.0152336
0.0152793
0.0153196
0.0153531
0.0153796
0.0153991
0.0154118
0.0154181
0.0150241
0.0150166
0.015041
0.0150673
0.0151005
0.0151424
0.0151903
0.0152394
0.0152856
0.015326
0.0153596
0.015386
0.0154054
0.0154181
0.0154244
0.0147833
0.0147858
0.0147955
0.0148031
0.0147805
0.0147846
0.0147779
0.0147793
0.0148025
0.0148248
0.0147949
0.0147971
0.0147973
0.0147983
0.0147959
0.0147968
0.0148129
0.0148012
0.0148065
0.0148102
0.0148127
0.0148135
0.0148143
0.0148139
0.0148145
0.0148344
0.0148128
0.0148182
0.0148215
0.0148244
0.014828
0.0148314
0.0148349
0.0148372
0.0148388
0.0148343
0.0148203
0.0148247
0.0148292
0.0148341
0.0148406
0.0148485
0.0148567
0.014864
0.0148695
0.0148725
0.0148129
0.0148128
0.0148246
0.0148321
0.0148395
0.0148497
0.0148625
0.0148765
0.0148899
0.0149013
0.0149095
0.0149138
0.0148025
0.0148012
0.0148182
0.0148292
0.0148395
0.0148531
0.0148704
0.0148901
0.0149099
0.014928
0.0149427
0.014953
0.0149583
0.0148248
0.0148065
0.0148214
0.0148341
0.0148497
0.0148704
0.0148949
0.0149208
0.0149455
0.014967
0.0149839
0.0149956
0.0150015
0.0147955
0.0147949
0.0148102
0.0148244
0.0148406
0.0148625
0.0148901
0.0149208
0.0149515
0.0149796
0.0150034
0.0150218
0.0150342
0.0150405
0.0148031
0.0147971
0.0148127
0.0148279
0.0148485
0.0148764
0.0149099
0.0149455
0.0149796
0.01501
0.0150351
0.0150542
0.015067
0.0150734
0.0147805
0.0147973
0.0148135
0.0148314
0.0148566
0.0148898
0.014928
0.0149669
0.0150034
0.0150351
0.0150609
0.0150804
0.0150933
0.0150997
0.0147845
0.0147983
0.0148142
0.0148348
0.014864
0.0149012
0.0149427
0.0149839
0.0150218
0.0150542
0.0150804
0.0150999
0.0151128
0.0151193
0.0147833
0.0147779
0.0147959
0.0148139
0.0148372
0.0148695
0.0149095
0.014953
0.0149956
0.0150342
0.015067
0.0150933
0.0151128
0.0151258
0.0151322
0.0147857
0.0147793
0.0147967
0.0148145
0.0148388
0.0148725
0.0149138
0.0149583
0.0150015
0.0150404
0.0150734
0.0150997
0.0151193
0.0151322
0.0151386
0.0145448
0.014547
0.0145616
0.0145729
0.0145644
0.0145624
0.0145473
0.0145487
0.0145693
0.0145988
0.0145721
0.0145703
0.0145658
0.014563
0.0145567
0.0145568
0.0145838
0.0145773
0.0145787
0.0145758
0.0145731
0.0145697
0.0145679
0.0145651
0.0145648
0.0146817
0.0145927
0.0145858
0.0145825
0.0145795
0.0145781
0.0145778
0.0145788
0.0145794
0.0145802
0.0146816
0.0146092
0.0145918
0.0145871
0.0145853
0.0145864
0.01459
0.0145949
0.0146002
0.0146042
0.0146065
0.0145838
0.0145926
0.0145918
0.0145889
0.0145886
0.0145927
0.0146007
0.014611
0.0146217