/*--------------------------------*- C++ -*----------------------------------*\
| =========                 |                                                 |
| \\      /  F ield         | OpenFOAM: The Open Source CFD Toolbox           |
|  \\    /   O peration     | Version:  2.1.1                                 |
|   \\  /    A nd           | Web:      www.OpenFOAM.org                      |
|    \\/     M anipulation  |                                                 |
\*---------------------------------------------------------------------------*/
FoamFile
{
    version     2.0;
    format      ascii;
    class       volScalarField;
    location    "0.0045";
    object      Th;
}
// * * * * * * * * * * * * * * * * * * * * * * * * * * * * * * * * * * * * * //

dimensions      [0 0 0 0 0 0 0];

internalField   nonuniform List<scalar> 
10154
(
4.96272e-13
1e-14
3.30091e-14
1.06788e-14
1.44274e-14
1.17782e-14
6.9708e-14
1.55038e-14
1.024e-14
1.01242e-14
1e-14
1.00233e-14
1.0009e-14
3.86556e-13
1.95073e-14
1.02029e-14
1.0018e-14
1.00005e-14
1.00003e-14
1.00001e-14
1.00002e-14
1.00001e-14
7.76581e-14
1.12494e-14
1.00199e-14
1.00002e-14
1.00001e-14
1.00001e-14
1e-14
1.00001e-14
1.00001e-14
1.00001e-14
7.71146e-14
1.13375e-14
1.00023e-14
1.00001e-14
1e-14
1e-14
1e-14
1e-14
1e-14
1e-14
1.00002e-14
3.86579e-13
1.12461e-14
1.00023e-14
1.00001e-14
1e-14
1e-14
1.00001e-14
1e-14
1e-14
1e-14
1e-14
1.00002e-14
1.95172e-14
1.002e-14
1.00001e-14
1e-14
1e-14
1e-14
1e-14
1e-14
1e-14
1e-14
1e-14
1.00002e-14
6.96954e-14
1.02028e-14
1.00002e-14
1e-14
1e-14
1e-14
1e-14
1e-14
1e-14
1e-14
1e-14
1e-14
1.00002e-14
1.55033e-14
1.0018e-14
1.00001e-14
1e-14
1.00001e-14
1e-14
1e-14
1e-14
1.00001e-14
1.00001e-14
1.00001e-14
1e-14
1e-14
1e-14
1.02399e-14
1.00005e-14
1e-14
1e-14
1e-14
1e-14
1e-14
1.00001e-14
1.00001e-14
1.00001e-14
1.00001e-14
1.00001e-14
1e-14
3.30094e-14
1.01242e-14
1.00003e-14
1e-14
1e-14
1e-14
1e-14
1e-14
1.00001e-14
1.00001e-14
1.00001e-14
1.00001e-14
1.00001e-14
1.00002e-14
1.06788e-14
1e-14
1.00001e-14
1.00001e-14
1e-14
1e-14
1e-14
1e-14
1.00001e-14
1.00001e-14
1.00001e-14
1.00001e-14
1e-14
1.00002e-14
1.44271e-14
1.00232e-14
1.00002e-14
1.00001e-14
1e-14
1e-14
1e-14
1e-14
1e-14
1.00001e-14
1.00001e-14
1e-14
1e-14
1.00003e-14
4.96111e-13
1.17788e-14
1.0009e-14
1.00001e-14
1.00001e-14
1.00002e-14
1.00002e-14
1.00002e-14
1.00002e-14
1e-14
1e-14
1.00002e-14
1.00002e-14
1.00003e-14
1.00004e-14
5.03477e-13
1e-14
3.14452e-14
1.05846e-14
1.40552e-14
1.15796e-14
6.87652e-14
1.52298e-14
1.02011e-14
1.0104e-14
1e-14
1.00124e-14
1.00043e-14
4.01225e-13
1.90229e-14
1.0178e-14
1.00104e-14
1.00002e-14
1.00001e-14
1.00001e-14
1.00002e-14
1e-14
7.97295e-14
1.11691e-14
1.00118e-14
1e-14
1e-14
1e-14
1e-14
1.00001e-14
1.00001e-14
1e-14
7.91788e-14
1.12467e-14
1.00004e-14
1.00001e-14
1e-14
1e-14
1e-14
1e-14
1e-14
1e-14
1.00001e-14
4.01225e-13
1.11654e-14
1.00004e-14
1.00001e-14
1e-14
1e-14
1.00001e-14
1e-14
1e-14
1e-14
1e-14
1.00001e-14
1.90253e-14
1.00118e-14
1.00001e-14
1e-14
1e-14
1e-14
1e-14
1e-14
1e-14
1e-14
1e-14
1e-14
6.87572e-14
1.0178e-14
1e-14
1e-14
1e-14
1e-14
1e-14
1.00001e-14
1e-14
1e-14
1e-14
1e-14
1.00001e-14
1.52292e-14
1.00104e-14
1e-14
1e-14
1.00001e-14
1e-14
1.00001e-14
1.00001e-14
1.00001e-14
1.00001e-14
1e-14
1e-14
1e-14
1e-14
1.02011e-14
1.00002e-14
1e-14
1e-14
1e-14
1e-14
1e-14
1.00001e-14
1.00001e-14
1.00001e-14
1.00001e-14
1e-14
1e-14
3.14445e-14
1.01041e-14
1.00001e-14
1e-14
1e-14
1e-14
1e-14
1e-14
1.00001e-14
1.00001e-14
1.00001e-14
1.00001e-14
1.00001e-14
1.00001e-14
1.05845e-14
1e-14
1.00001e-14
1.00001e-14
1e-14
1e-14
1e-14
1e-14
1e-14
1.00001e-14
1.00001e-14
1.00001e-14
1e-14
1.00001e-14
1.40553e-14
1.00123e-14
1.00002e-14
1.00001e-14
1e-14
1e-14
1e-14
1e-14
1e-14
1e-14
1.00001e-14
1e-14
1.00001e-14
1.00002e-14
5.03331e-13
1.15805e-14
1.00043e-14
1.00001e-14
1e-14
1.00001e-14
1.00002e-14
1e-14
1.00001e-14
1e-14
1e-14
1.00001e-14
1.00001e-14
1.00002e-14
1.00003e-14
5.04011e-13
1e-14
3.15517e-14
1.05892e-14
1.39431e-14
1.15289e-14
6.96781e-14
1.51372e-14
1.0193e-14
1.00972e-14
1e-14
1.00023e-14
1.00005e-14
4.01541e-13
1.88161e-14
1.01709e-14
1.00055e-14
1e-14
1e-14
1.00001e-14
1.00001e-14
1.00001e-14
8.11296e-14
1.11521e-14
1.00078e-14
1e-14
1e-14
1e-14
1e-14
1.00001e-14
1.00001e-14
1e-14
8.05749e-14
1.12223e-14
1e-14
1.00001e-14
1e-14
1e-14
1e-14
1e-14
1e-14
1.00001e-14
1.00001e-14
4.01536e-13
1.11484e-14
1e-14
1.00001e-14
1e-14
1e-14
1e-14
1e-14
1e-14
1e-14
1e-14
1.00001e-14
1.88148e-14
1.00078e-14
1e-14
1e-14
1e-14
1e-14
1.00001e-14
1e-14
1e-14
1e-14
1e-14
1e-14
6.96715e-14
1.01708e-14
1e-14
1e-14
1e-14
1e-14
1.00001e-14
1.00001e-14
1e-14
1e-14
1e-14
1.00001e-14
1e-14
1.51367e-14
1.00055e-14
1e-14
1e-14
1e-14
1.00001e-14
1.00001e-14
1e-14
1e-14
1e-14
1e-14
1e-14
1e-14
1e-14
1.01929e-14
1e-14
1e-14
1e-14
1e-14
1e-14
1e-14
1e-14
1e-14
1e-14
1e-14
1.00001e-14
1e-14
3.15509e-14
1.00972e-14
1e-14
1e-14
1e-14
1e-14
1e-14
1e-14
1e-14
1e-14
1.00001e-14
1.00001e-14
1.00001e-14
1e-14
1.05891e-14
1e-14
1.00001e-14
1.00001e-14
1e-14
1e-14
1e-14
1e-14
1e-14
1e-14
1.00001e-14
1.00001e-14
1e-14
1e-14
1.39433e-14
1.00022e-14
1.00001e-14
1.00001e-14
1.00001e-14
1e-14
1e-14
1.00001e-14
1e-14
1.00001e-14
1.00001e-14
1e-14
1.00001e-14
1.00001e-14
5.03873e-13
1.153e-14
1.00004e-14
1.00001e-14
1e-14
1.00001e-14
1.00001e-14
1e-14
1e-14
1e-14
1e-14
1e-14
1e-14
1.00001e-14
1.00002e-14
5.0378e-13
1e-14
3.16374e-14
1.05969e-14
1.38563e-14
1.14273e-14
6.98399e-14
1.50587e-14
1.01848e-14
1.00938e-14
1e-14
1e-14
1e-14
4.01813e-13
1.8814e-14
1.01658e-14
1e-14
1e-14
1e-14
1.00001e-14
1.00001e-14
1e-14
8.13696e-14
1.11565e-14
1.00004e-14
1e-14
1e-14
1e-14
1e-14
1e-14
1.00001e-14
1e-14
8.0813e-14
1.12204e-14
1e-14
1e-14
1e-14
1e-14
1e-14
1e-14
1e-14
1.00001e-14
1e-14
4.01818e-13
1.11526e-14
1e-14
1.00001e-14
1e-14
1e-14
1e-14
1e-14
1e-14
1e-14
1e-14
1.00001e-14
1.88115e-14
1.00004e-14
1e-14
1e-14
1.00001e-14
1e-14
1e-14
1e-14
1e-14
1e-14
1e-14
1.00001e-14
6.98333e-14
1.01656e-14
1e-14
1e-14
1e-14
1e-14
1.00001e-14
1e-14
1e-14
1e-14
1e-14
1.00001e-14
1.00001e-14
1.50582e-14
1e-14
1e-14
1e-14
1e-14
1e-14
1e-14
1e-14
1e-14
1e-14
1e-14
1e-14
1.00001e-14
1e-14
1.01847e-14
1e-14
1e-14
1e-14
1e-14
1e-14
1e-14
1e-14
1e-14
1e-14
1e-14
1e-14
1e-14
3.16371e-14
1.00938e-14
1e-14
1e-14
1e-14
1e-14
1e-14
1e-14
1e-14
1e-14
1e-14
1.00001e-14
1e-14
1e-14
1.05969e-14
1e-14
1.00001e-14
1e-14
1e-14
1e-14
1e-14
1e-14
1e-14
1e-14
1.00001e-14
1e-14
1e-14
1e-14
1.38564e-14
1e-14
1.00001e-14
1.00001e-14
1e-14
1e-14
1e-14
1.00001e-14
1e-14
1e-14
1e-14
1e-14
1e-14
1e-14
5.03641e-13
1.14289e-14
1e-14
1e-14
1e-14
1e-14
1.00001e-14
1.00001e-14
1.00001e-14
1.00001e-14
1e-14
1e-14
1e-14
1e-14
1e-14
5.02634e-13
1e-14
3.18085e-14
1.06048e-14
1.41998e-14
1.17209e-14
6.98669e-14
1.52907e-14
1.02183e-14
1.00959e-14
1e-14
1e-14
1e-14
4.02011e-13
1.86231e-14
1.01615e-14
1e-14
1e-14
1e-14
1.00001e-14
1e-14
1.00001e-14
8.1404e-14
1.11221e-14
1e-14
1e-14
1e-14
1e-14
1e-14
1e-14
1.00001e-14
1.00001e-14
8.08423e-14
1.12018e-14
1e-14
1e-14
1e-14
1e-14
1e-14
1e-14
1e-14
1e-14
1e-14
4.02017e-13
1.11181e-14
1e-14
1.00001e-14
1e-14
1e-14
1e-14
1e-14
1e-14
1e-14
1e-14
1.00001e-14
1.86203e-14
1e-14
1e-14
1e-14
1e-14
1e-14
1e-14
1e-14
1e-14
1e-14
1e-14
1.00002e-14
6.98593e-14
1.01614e-14
1e-14
1e-14
1e-14
1e-14
1e-14
1e-14
1e-14
1e-14
1e-14
1.00001e-14
1.00002e-14
1.52899e-14
1e-14
1e-14
1e-14
1e-14
1e-14
1e-14
1e-14
1e-14
1e-14
1e-14
1.00001e-14
1.00001e-14
1e-14
1.02182e-14
1e-14
1e-14
1e-14
1e-14
1e-14
1e-14
1e-14
1e-14
1e-14
1e-14
1e-14
1.00001e-14
3.18083e-14
1.00959e-14
1e-14
1e-14
1e-14
1e-14
1e-14
1e-14
1e-14
1e-14
1e-14
1e-14
1e-14
1.00001e-14
1.06046e-14
1e-14
1.00001e-14
1e-14
1e-14
1e-14
1e-14
1e-14
1e-14
1e-14
1e-14
1e-14
1e-14
1e-14
1.42007e-14
1e-14
1e-14
1e-14
1e-14
1e-14
1e-14
1.00001e-14
1.00001e-14
1e-14
1e-14
1e-14
1.00001e-14
1e-14
5.025e-13
1.17219e-14
1e-14
1.00001e-14
1.00001e-14
1e-14
1.00001e-14
1.00002e-14
1.00002e-14
1.00001e-14
1.00001e-14
1.00001e-14
1e-14
1e-14
1e-14
4.98493e-13
1e-14
3.2546e-14
1.06194e-14
1.33833e-14
1.09607e-14
6.99825e-14
1.45028e-14
1.01278e-14
1.00816e-14
1e-14
1e-14
1e-14
4.01554e-13
1.86943e-14
1.01461e-14
1e-14
1e-14
1e-14
1e-14
1e-14
1e-14
8.17813e-14
1.12652e-14
1e-14
1e-14
1e-14
1e-14
1e-14
1e-14
1e-14
1.00001e-14
8.12168e-14
1.12722e-14
1e-14
1e-14
1e-14
1e-14
1e-14
1e-14
1e-14
1e-14
1e-14
4.01557e-13
1.1261e-14
1e-14
1e-14
1e-14
1e-14
1e-14
1e-14
1e-14
1e-14
1e-14
1.00001e-14
1.86907e-14
1e-14
1e-14
1e-14
1e-14
1e-14
1e-14
1e-14
1e-14
1e-14
1e-14
1.00001e-14
6.99765e-14
1.01459e-14
1e-14
1e-14
1e-14
1e-14
1e-14
1.00001e-14
1e-14
1e-14
1e-14
1.00001e-14
1.00001e-14
1.45023e-14
1e-14
1e-14
1e-14
1e-14
1e-14
1.00001e-14
1.00001e-14
1e-14
1e-14
1e-14
1e-14
1.00001e-14
1e-14
1.01277e-14
1e-14
1e-14
1e-14
1e-14
1e-14
1e-14
1e-14
1e-14
1e-14
1e-14
1e-14
1e-14
3.25459e-14
1.00816e-14
1e-14
1e-14
1e-14
1e-14
1e-14
1e-14
1e-14
1e-14
1e-14
1e-14
1e-14
1.00001e-14
1.06191e-14
1e-14
1e-14
1e-14
1e-14
1e-14
1e-14
1e-14
1e-14
1e-14
1e-14
1e-14
1e-14
1e-14
1.33825e-14
1e-14
1e-14
1e-14
1e-14
1e-14
1.00001e-14
1.00001e-14
1e-14
1e-14
1e-14
1e-14
1e-14
1e-14
4.98369e-13
1.09644e-14
1e-14
1e-14
1.00001e-14
1e-14
1.00001e-14
1.00001e-14
1.00001e-14
1.00001e-14
1e-14
1.00001e-14
1e-14
1e-14
1e-14
4.73064e-13
1e-14
3.73411e-14
1e-14
1.7033e-14
1.34369e-14
7.26523e-14
1.75147e-14
1.04288e-14
1.01229e-14
1e-14
1e-14
1e-14
3.9938e-13
1.98993e-14
1.01351e-14
1e-14
1e-14
1e-14
1.00001e-14
1e-14
1e-14
9.22201e-14
1.09312e-14
1e-14
1e-14
1e-14
1e-14
1e-14
1e-14
1e-14
1.00001e-14
9.16721e-14
1.10399e-14
1e-14
1e-14
1e-14
1e-14
1e-14
1e-14
1e-14
1e-14
1e-14
3.99381e-13
1.09245e-14
1e-14
1e-14
1e-14
1e-14
1e-14
1e-14
1e-14
1e-14
1e-14
1.00001e-14
1.98969e-14
1e-14
1e-14
1e-14
1e-14
1e-14
1e-14
1e-14
1e-14
1e-14
1e-14
1.00001e-14
7.26483e-14
1.01345e-14
1e-14
1e-14
1e-14
1e-14
1.00001e-14
1e-14
1e-14
1e-14
1e-14
1.00001e-14
1.00001e-14
1.75137e-14
1e-14
1e-14
1e-14
1e-14
1e-14
1e-14
1e-14
1e-14
1e-14
1e-14
1e-14
1e-14
1e-14
1.04289e-14
1e-14
1e-14
1e-14
1e-14
1e-14
1e-14
1e-14
1e-14
1e-14
1e-14
1e-14
1e-14
3.73419e-14
1.01229e-14
1e-14
1e-14
1e-14
1e-14
1e-14
1e-14
1e-14
1e-14
1e-14
1e-14
1e-14
1e-14
1e-14
1e-14
1.00001e-14
1e-14
1e-14
1e-14
1e-14
1e-14
1e-14
1e-14
1e-14
1e-14
1e-14
1e-14
1.70431e-14
1e-14
1e-14
1e-14
1e-14
1e-14
1e-14
1.00001e-14
1e-14
1e-14
1e-14
1e-14
1e-14
1e-14
4.72914e-13
1.34373e-14
1e-14
1e-14
1.00001e-14
1e-14
1.00001e-14
1.00001e-14
1e-14
1e-14
1e-14
1e-14
1e-14
1e-14
1.00001e-14
8.48699e-14
3.68192e-14
1.49694e-14
1e-14
1.21286e-14
1.13789e-14
3.05774e-14
1.16575e-14
1.01518e-14
1.00384e-14
1e-14
1e-14
1e-14
5.25017e-14
1.22584e-14
1.00237e-14
1e-14
1e-14
1e-14
1e-14
1e-14
1e-14
2.88291e-14
1.01995e-14
1e-14
1e-14
1e-14
1e-14
1e-14
1e-14
1e-14
1e-14
2.87026e-14
1.02401e-14
1e-14
1e-14
1e-14
1e-14
1e-14
1e-14
1e-14
1e-14
1e-14
5.25191e-14
1.0198e-14
1e-14
1e-14
1e-14
1e-14
1e-14
1e-14
1e-14
1e-14
1e-14
1.00001e-14
1.22578e-14
1e-14
1e-14
1e-14
1e-14
1e-14
1e-14
1e-14
1e-14
1e-14
1e-14
1.00001e-14
3.05776e-14
1.00234e-14
1e-14
1e-14
1e-14
1e-14
1e-14
1e-14
1e-14
1e-14
1e-14
1.00001e-14
1.00001e-14
1.16569e-14
1e-14
1e-14
1e-14
1e-14
1e-14
1e-14
1e-14
1e-14
1e-14
1e-14
1e-14
1e-14
3.68127e-14
1.01518e-14
1e-14
1e-14
1e-14
1e-14
1e-14
1e-14
1e-14
1e-14
1e-14
1e-14
1e-14
1e-14
1.49707e-14
1.00384e-14
1e-14
1e-14
1e-14
1e-14
1e-14
1e-14
1e-14
1e-14
1e-14
1e-14
1e-14
1e-14
1e-14
1e-14
1e-14
1e-14
1e-14
1e-14
1e-14
1e-14
1e-14
1e-14
1e-14
1e-14
1e-14
1e-14
1.21325e-14
1e-14
1e-14
1e-14
1e-14
1e-14
1e-14
1.00001e-14
1e-14
1e-14
1e-14
1e-14
1e-14
1e-14
8.4938e-14
1.13789e-14
1e-14
1e-14
1e-14
1e-14
1.00001e-14
1.00001e-14
1.00001e-14
1e-14
1e-14
1e-14
1e-14
1e-14
1e-14
1.00479e-14
1.24762e-14
1.00259e-14
1.02133e-14
1.00508e-14
1e-14
1.06631e-14
1.04401e-14
1.00878e-14
1.07361e-14
1.04231e-14
1.00481e-14
1.00106e-14
1e-14
1e-14
1e-14
1.04395e-14
1.05874e-14
1.0003e-14
1e-14
1e-14
1e-14
1e-14
1e-14
1e-14
1.05289e-14
1.00337e-14
1e-14
1e-14
1e-14
1e-14
1e-14
1e-14
1e-14
1e-14
1.05226e-14
1.00502e-14
1e-14
1e-14
1e-14
1e-14
1e-14
1e-14
1e-14
1e-14
1e-14
1.04399e-14
1.00334e-14
1e-14
1e-14
1e-14
1e-14
1e-14
1e-14
1e-14
1e-14
1e-14
1e-14
1.00878e-14
1.05872e-14
1e-14
1e-14
1e-14
1e-14
1e-14
1e-14
1e-14
1e-14
1e-14
1e-14
1e-14
1.07362e-14
1.00029e-14
1e-14
1e-14
1e-14
1e-14
1e-14
1e-14
1e-14
1e-14
1e-14
1e-14
1e-14
1.00259e-14
1.04229e-14
1e-14
1e-14
1e-14
1e-14
1e-14
1e-14
1e-14
1e-14
1e-14
1e-14
1e-14
1e-14
1.02128e-14
1.00481e-14
1e-14
1e-14
1e-14
1e-14
1e-14
1e-14
1e-14
1e-14
1e-14
1e-14
1e-14
1e-14
1.00508e-14
1.00106e-14
1e-14
1e-14
1e-14
1e-14
1e-14
1e-14
1e-14
1e-14
1e-14
1e-14
1e-14
1e-14
1e-14
1e-14
1e-14
1e-14
1e-14
1e-14
1e-14
1e-14
1e-14
1e-14
1e-14
1e-14
1e-14
1e-14
1.00483e-14
1.06648e-14
1e-14
1e-14
1e-14
1e-14
1e-14
1e-14
1e-14
1e-14
1e-14
1e-14
1e-14
1e-14
1e-14
1.24806e-14
1.044e-14
1e-14
1e-14
1e-14
1e-14
1e-14
1e-14
1e-14
1e-14
1e-14
1e-14
1e-14
1e-14
1e-14
1.00019e-14
1.00626e-14
1.00012e-14
1.00031e-14
1.00051e-14
1.00017e-14
1.0184e-14
1.0119e-14
1.00015e-14
1.0017e-14
1.00972e-14
1.00125e-14
1.00029e-14
1e-14
1e-14
1e-14
1.00068e-14
1.0136e-14
1.00005e-14
1e-14
1e-14
1e-14
1e-14
1e-14
1e-14
1.00037e-14
1.00048e-14
1e-14
1e-14
1e-14
1e-14
1e-14
1e-14
1e-14
1e-14
1.00036e-14
1.00093e-14
1e-14
1e-14
1e-14
1e-14
1e-14
1e-14
1e-14
1e-14
1e-14
1.00068e-14
1.00047e-14
1e-14
1e-14
1e-14
1e-14
1e-14
1e-14
1e-14
1e-14
1e-14
1e-14
1.00015e-14
1.0136e-14
1e-14
1e-14
1e-14
1e-14
1e-14
1e-14
1e-14
1e-14
1e-14
1e-14
1e-14
1.0017e-14
1.00004e-14
1e-14
1e-14
1e-14
1e-14
1e-14
1.00001e-14
1e-14
1e-14
1e-14
1e-14
1e-14
1.00012e-14
1.00971e-14
1e-14
1e-14
1e-14
1e-14
1e-14
1.00001e-14
1e-14
1e-14
1e-14
1e-14
1e-14
1e-14
1.00031e-14
1.00125e-14
1e-14
1e-14
1e-14
1e-14
1e-14
1e-14
1e-14
1e-14
1e-14
1e-14
1e-14
1e-14
1.00051e-14
1.00029e-14
1e-14
1e-14
1e-14
1e-14
1e-14
1e-14
1e-14
1e-14
1e-14
1e-14
1e-14
1e-14
1.00017e-14
1e-14
1e-14
1e-14
1e-14
1e-14
1e-14
1e-14
1e-14
1e-14
1e-14
1e-14
1e-14
1e-14
1.00019e-14
1.01846e-14
1e-14
1e-14
1e-14
1e-14
1e-14
1e-14
1e-14
1e-14
1e-14
1e-14
1e-14
1e-14
1e-14
1.00627e-14
1.01189e-14
1e-14
1e-14
1e-14
1e-14
1e-14
1e-14
1e-14
1e-14
1e-14
1e-14
1e-14
1e-14
1e-14
1.00003e-14
1.0001e-14
1.00001e-14
1e-14
1.00006e-14
1.00006e-14
1.00448e-14
1.00285e-14
1.00001e-14
1.00005e-14
1.00196e-14
1.00028e-14
1.00007e-14
1e-14
1e-14
1e-14
1.00001e-14
1.00268e-14
1.00001e-14
1e-14
1e-14
1e-14
1e-14
1e-14
1e-14
1.00005e-14
1.00006e-14
1e-14
1e-14
1e-14
1e-14
1e-14
1e-14
1e-14
1e-14
1.00005e-14
1.00017e-14
1e-14
1e-14
1e-14
1e-14
1e-14
1e-14
1e-14
1e-14
1e-14
1.00001e-14
1.00006e-14
1e-14
1e-14
1e-14
1e-14
1e-14
1e-14
1e-14
1e-14
1e-14
1e-14
1.00001e-14
1.00267e-14
1e-14
1e-14
1e-14
1e-14
1e-14
1.00001e-14
1e-14
1e-14
1e-14
1e-14
1e-14
1.00005e-14
1.00001e-14
1e-14
1e-14
1e-14
1e-14
1.00001e-14
1.00001e-14
1e-14
1e-14
1e-14
1e-14
1e-14
1.00001e-14
1.00196e-14
1e-14
1e-14
1e-14
1e-14
1.00001e-14
1.00001e-14
1e-14
1e-14
1e-14
1e-14
1e-14
1e-14
1e-14
1.00028e-14
1e-14
1e-14
1e-14
1e-14
1e-14
1e-14
1e-14
1e-14
1e-14
1e-14
1e-14
1e-14
1.00006e-14
1.00007e-14
1e-14
1e-14
1e-14
1e-14
1e-14
1e-14
1e-14
1e-14
1e-14
1e-14
1e-14
1e-14
1.00006e-14
1e-14
1e-14
1e-14
1e-14
1e-14
1e-14
1e-14
1e-14
1e-14
1e-14
1e-14
1e-14
1e-14
1.00003e-14
1.00449e-14
1e-14
1e-14
1e-14
1e-14
1e-14
1e-14
1e-14
1e-14
1e-14
1e-14
1e-14
1e-14
1e-14
1.00011e-14
1.00285e-14
1e-14
1e-14
1e-14
1e-14
1e-14
1e-14
1e-14
1e-14
1e-14
1e-14
1e-14
1e-14
1.00001e-14
1.00001e-14
1e-14
1e-14
1e-14
1.00001e-14
1.00001e-14
1.00097e-14
1.00063e-14
1.00001e-14
1e-14
1.00035e-14
1.00005e-14
1.00002e-14
1e-14
1e-14
1e-14
1.00001e-14
1.00045e-14
1e-14
1e-14
1e-14
1e-14
1e-14
1e-14
1e-14
1e-14
1.00001e-14
1e-14
1e-14
1e-14
1e-14
1e-14
1e-14
1e-14
1e-14
1e-14
1.00003e-14
1e-14
1e-14
1e-14
1e-14
1e-14
1e-14
1e-14
1e-14
1e-14
1.00001e-14
1.00001e-14
1e-14
1e-14
1e-14
1e-14
1e-14
1e-14
1e-14
1e-14
1e-14
1e-14
1.00001e-14
1.00045e-14
1e-14
1e-14
1e-14
1e-14
1.00001e-14
1e-14
1e-14
1e-14
1e-14
1e-14
1e-14
1e-14
1e-14
1e-14
1e-14
1e-14
1.00001e-14
1e-14
1e-14
1e-14
1e-14
1e-14
1e-14
1e-14
1e-14
1.00035e-14
1e-14
1e-14
1e-14
1e-14
1e-14
1e-14
1e-14
1e-14
1e-14
1e-14
1e-14
1e-14
1e-14
1.00005e-14
1e-14
1e-14
1e-14
1e-14
1e-14
1e-14
1e-14
1e-14
1e-14
1e-14
1e-14
1e-14
1.00001e-14
1.00002e-14
1e-14
1e-14
1e-14
1e-14
1e-14
1e-14
1e-14
1e-14
1.00001e-14
1e-14
1e-14
1e-14
1.00001e-14
1e-14
1e-14
1e-14
1e-14
1e-14
1e-14
1e-14
1e-14
1e-14
1e-14
1e-14
1e-14
1.00001e-14
1.00001e-14
1.00098e-14
1e-14
1e-14
1e-14
1e-14
1e-14
1e-14
1e-14
1e-14
1e-14
1e-14
1e-14
1.00001e-14
1.00001e-14
1e-14
1.00063e-14
1e-14
1e-14
1e-14
1e-14
1e-14
1e-14
1e-14
1e-14
1e-14
1e-14
1.00001e-14
1.00001e-14
1e-14
1e-14
1e-14
1e-14
1e-14
1e-14
1e-14
1.00019e-14
1.00012e-14
1.00001e-14
1e-14
1.00005e-14
1.00001e-14
1.00001e-14
1e-14
1e-14
1e-14
1.00001e-14
1.00006e-14
1e-14
1e-14
1e-14
1e-14
1e-14
1e-14
1.00001e-14
1e-14
1e-14
1e-14
1e-14
1e-14
1e-14
1e-14
1e-14
1e-14
1e-14
1e-14
1e-14
1e-14
1e-14
1e-14
1e-14
1e-14
1e-14
1e-14
1e-14
1.00001e-14
1.00001e-14
1e-14
1e-14
1e-14
1e-14
1e-14
1e-14
1e-14
1e-14
1e-14
1e-14
1.00001e-14
1.00001e-14
1.00006e-14
1e-14
1e-14
1e-14
1e-14
1e-14
1e-14
1e-14
1e-14
1e-14
1e-14
1.00001e-14
1e-14
1e-14
1e-14
1e-14
1e-14
1e-14
1e-14
1e-14
1e-14
1e-14
1e-14
1.00001e-14
1.00001e-14
1e-14
1.00005e-14
1e-14
1e-14
1e-14
1e-14
1e-14
1e-14
1e-14
1e-14
1e-14
1e-14
1e-14
1.00001e-14
1e-14
1.00001e-14
1e-14
1e-14
1e-14
1e-14
1e-14
1e-14
1e-14
1e-14
1e-14
1e-14
1e-14
1.00001e-14
1e-14
1e-14
1e-14
1e-14
1e-14
1e-14
1e-14
1e-14
1e-14
1e-14
1e-14
1e-14
1e-14
1.00002e-14
1e-14
1e-14
1e-14
1e-14
1e-14
1e-14
1e-14
1e-14
1e-14
1e-14
1e-14
1e-14
1e-14
1.00002e-14
1e-14
1.00019e-14
1e-14
1e-14
1e-14
1e-14
1e-14
1e-14
1e-14
1e-14
1e-14
1e-14
1e-14
1.00001e-14
1.00001e-14
1e-14
1.00012e-14
1e-14
1.00001e-14
1e-14
1.00001e-14
1.00001e-14
1.00001e-14
1.00001e-14
1.00001e-14
1.00001e-14
1.00002e-14
1.00002e-14
1.00001e-14
1.00002e-14
1e-14
1.00001e-14
1e-14
1e-14
1e-14
1e-14
1.00004e-14
1.00003e-14
1e-14
1.00001e-14
1.00001e-14
1.00001e-14
1e-14
1e-14
1e-14
1e-14
1e-14
1.00001e-14
1e-14
1e-14
1e-14
1e-14
1e-14
1e-14
1.00001e-14
1e-14
1e-14
1e-14
1e-14
1e-14
1e-14
1e-14
1e-14
1e-14
1e-14
1e-14
1e-14
1e-14
1e-14
1e-14
1e-14
1e-14
1e-14
1e-14
1e-14
1.00001e-14
1e-14
1e-14
1e-14
1e-14
1e-14
1e-14
1e-14
1e-14
1e-14
1e-14
1e-14
1.00001e-14
1e-14
1.00001e-14
1e-14
1e-14
1e-14
1e-14
1e-14
1e-14
1e-14
1e-14
1e-14
1e-14
1.00001e-14
1.00001e-14
1e-14
1e-14
1e-14
1e-14
1e-14
1e-14
1e-14
1e-14
1e-14
1e-14
1e-14
1.00001e-14
1e-14
1.00001e-14
1e-14
1e-14
1e-14
1e-14
1e-14
1e-14
1e-14
1e-14
1e-14
1.00001e-14
1e-14
1.00001e-14
1e-14
1.00001e-14
1e-14
1e-14
1e-14
1e-14
1e-14
1e-14
1e-14
1e-14
1e-14
1e-14
1e-14
1.00001e-14
1e-14
1e-14
1e-14
1e-14
1e-14
1e-14
1e-14
1e-14
1e-14
1e-14
1e-14
1e-14
1e-14
1.00001e-14
1e-14
1e-14
1e-14
1e-14
1e-14
1e-14
1e-14
1e-14
1.00001e-14
1e-14
1e-14
1e-14
1.00001e-14
1e-14
1e-14
1.00004e-14
1e-14
1e-14
1e-14
1e-14
1e-14
1e-14
1e-14
1e-14
1e-14
1e-14
1.00001e-14
1.00001e-14
1e-14
1.00001e-14
1.00003e-14
1e-14
1.00001e-14
1e-14
1.00001e-14
1.00001e-14
1.00001e-14
1.00001e-14
1.00001e-14
1.00001e-14
1.00001e-14
1.00001e-14
1e-14
1e-14
1e-14
1e-14
1e-14
1e-14
1e-14
1e-14
1e-14
1.00001e-14
1e-14
1e-14
1.00001e-14
1e-14
1e-14
1e-14
1e-14
1e-14
1e-14
1e-14
1e-14
1e-14
1e-14
1e-14
1e-14
1e-14
1e-14
1.00001e-14
1e-14
1e-14
1e-14
1e-14
1e-14
1e-14
1e-14
1e-14
1e-14
1.00001e-14
1e-14
1e-14
1e-14
1e-14
1e-14
1e-14
1e-14
1e-14
1e-14
1.00001e-14
1e-14
1e-14
1e-14
1e-14
1e-14
1e-14
1e-14
1e-14
1e-14
1e-14
1e-14
1.00001e-14
1e-14
1e-14
1e-14
1e-14
1e-14
1e-14
1e-14
1e-14
1e-14
1e-14
1e-14
1e-14
1.00001e-14
1e-14
1e-14
1e-14
1e-14
1e-14
1e-14
1e-14
1e-14
1e-14
1e-14
1e-14
1.00001e-14
1.00002e-14
1e-14
1.00001e-14
1e-14
1e-14
1e-14
1e-14
1e-14
1e-14
1e-14
1e-14
1e-14
1e-14
1e-14
1.00001e-14
1e-14
1e-14
1e-14
1e-14
1e-14
1e-14
1e-14
1e-14
1e-14
1e-14
1e-14
1e-14
1.00001e-14
1.00001e-14
1e-14
1e-14
1e-14
1e-14
1e-14
1e-14
1e-14
1e-14
1e-14
1e-14
1e-14
1e-14
1.00001e-14
1e-14
1e-14
1e-14
1e-14
1e-14
1e-14
1e-14
1e-14
1e-14
1e-14
1e-14
1e-14
1e-14
1e-14
1e-14
1e-14
1e-14
1e-14
1e-14
1e-14
1e-14
1e-14
1e-14
1e-14
1e-14
1.00001e-14
1.00001e-14
1e-14
1.00001e-14
1.00001e-14
1e-14
1.00001e-14
1e-14
1e-14
1e-14
1e-14
1.00001e-14
1.00001e-14
1.00002e-14
1.00001e-14
1.00001e-14
1e-14
1e-14
1.00001e-14
1e-14
1.71247e-12
2.03695e-13
1.50692e-13
1.2117e-14
1.79746e-14
1.35941e-13
8.2473e-13
7.76042e-14
5.51669e-14
7.81417e-13
7.32105e-13
4.48993e-14
4.03862e-14
1.48463e-12
6.00146e-13
1e-14
4.93249e-13
1.24521e-13
3.39582e-14
8.02736e-14
9.44355e-14
1.01231e-14
1.75839e-14
1e-14
2.33372e-13
2.05703e-13
2.17211e-14
1.04835e-13
2.54257e-14
1.63757e-14
1.0526e-14
1.54536e-12
1.29293e-12
1.82466e-13
6.06255e-13
6.21912e-14
2.98359e-14
1.1217e-14
1.35666e-12
1.35301e-12
1.65048e-13
1.29144e-12
1.54534e-12
1.82334e-13
1e-14
6.06366e-13
2.98171e-14
6.20998e-14
1.12095e-14
1.48459e-12
2.06182e-13
2.33266e-13
2.17503e-14
6.00103e-13
1e-14
1.04808e-13
1.63727e-14
2.54222e-14
1.05258e-14
1.24518e-13
4.93233e-13
3.39568e-14
1.71251e-12
2.03686e-13
8.02543e-14
1.01228e-14
9.44322e-14
1.75823e-14
1.50716e-13
1.21167e-14
1.79772e-14
1.35927e-13
7.75922e-14
8.24809e-13
5.51908e-14
7.81567e-13
4.49499e-14
7.31096e-13
4.0351e-14
1.44865e-12
1e-14
1.69925e-12
1.75526e-13
1e-14
1.06496e-14
1.36804e-13
1.16228e-14
1e-14
6.37136e-14
1.64131e-14
1.2136e-13
5.28324e-13
2.16253e-14
3.51992e-14
8.1464e-13
6.83201e-14
4.97498e-14
4.79469e-13
2.46396e-14
2.26399e-14
7.70954e-13
7.2172e-13
4.0891e-14
3.6483e-14
9.68573e-13
1.46791e-12
2.57621e-14
1.18037e-14
6.01328e-13
1.27503e-14
3.29134e-13
4.9961e-14
2.3883e-14
4.89058e-13
1.12624e-13
3.11644e-14
6.94247e-14
1.02433e-14
1e-14
7.42168e-14
8.22768e-14
1.02212e-14
1.5137e-14
1.00818e-14
1e-14
1e-14
7.43154e-14
1.781e-14
2.02871e-13
1.93246e-13
2.15385e-14
1.10508e-14
1e-14
1.05909e-14
9.14685e-14
2.34648e-14
1.49235e-14
1.03267e-14
1.06825e-12
1.15098e-13
7.11875e-14
1.52191e-12
1.3297e-12
1.70998e-13
2.92037e-14
1.31696e-14
1.05558e-14
6.05769e-13
5.51246e-14
2.74039e-14
1.06201e-14
2.16027e-13
2.1727e-13
5.69052e-14
1.38605e-12
1.38214e-12
1.54063e-13
1.17157e-13
1.06833e-12
7.10974e-14
1.32838e-12
1.52181e-12
1.70791e-13
1.00791e-14
1e-14
1.31756e-14
2.91891e-14
1.05576e-14
6.05777e-13
2.73772e-14
5.51118e-14
1.0617e-14
9.6854e-13
1.46785e-12
7.42826e-14
1e-14
1.78195e-14
1.93223e-13
2.02872e-13
2.15406e-14
2.57903e-14
1.18049e-14
6.01314e-13
1.27499e-14
1e-14
1.10505e-14
1.05908e-14
9.14563e-14
1.49213e-14
2.34632e-14
1.03266e-14
4.99601e-14
3.29131e-13
2.38829e-14
1.1262e-13
4.89057e-13
3.11633e-14
1.44863e-12
1e-14
1.69925e-12
1.75528e-13
1.02433e-14
6.94238e-14
1e-14
7.42135e-14
1.02211e-14
8.22762e-14
1.51363e-14
1e-14
1.06497e-14
1.36809e-13
1.16223e-14
1e-14
6.37187e-14
1.64131e-14
1.2135e-13
2.16259e-14
5.28214e-13
3.52144e-14
6.83147e-14
8.14702e-13
4.97735e-14
2.46551e-14
4.78934e-13
2.26381e-14
7.71034e-13
4.09379e-14
7.21298e-13
3.64723e-14
1.45328e-12
1e-14
1.70043e-12
1.77387e-13
1e-14
1.05894e-14
1.37604e-13
1.14956e-14
1e-14
6.55095e-14
1.62933e-14
1.20805e-13
5.38087e-13
2.05867e-14
3.40261e-14
8.14441e-13
6.75994e-14
4.94782e-14
4.85523e-13
2.43438e-14
2.23486e-14
7.70556e-13
7.214e-13
4.06874e-14
3.62787e-14
9.97504e-13
1.46886e-12
5.08225e-14
1.0205e-14
5.97894e-13
1.35165e-14
3.34104e-13
4.75971e-14
2.34532e-14
4.89657e-13
1.12663e-13
3.10525e-14
6.69997e-14
1.03657e-14
1e-14
7.24773e-14
8.18074e-14
1.01793e-14
1.4876e-14
1e-14
1e-14
1e-14
7.79856e-14
1.75856e-14
2.06482e-13
1.9333e-13
2.14125e-14
1.07039e-14
1e-14
1.0533e-14
9.24372e-14
2.36382e-14
1.47075e-14
1.03109e-14
1.08412e-12
1.72007e-13
7.41392e-14
1.52511e-12
1.31704e-12
1.69728e-13
2.79928e-14
1.26113e-14
1.05622e-14
6.06361e-13
5.57049e-14
2.69238e-14
1.0657e-14
2.76355e-13
2.77077e-13
5.90177e-14
1.37413e-12
1.37027e-12
1.53593e-13
1.73615e-13
1.0842e-12
7.40586e-14
1.31579e-12
1.52502e-12
1.69525e-13
1e-14
1e-14
1.26177e-14
2.79948e-14
1.05631e-14
6.06374e-13
2.68973e-14
5.56988e-14
1.06547e-14
9.97482e-13
1.4688e-12
7.79778e-14
1e-14
1.75866e-14
1.93315e-13
2.0648e-13
2.14108e-14
5.08684e-14
1.02053e-14
5.97879e-13
1.35162e-14
1e-14
1.0704e-14
1.0533e-14
9.24267e-14
1.47061e-14
2.36366e-14
1.03108e-14
4.7596e-14
3.34097e-13
2.34528e-14
1.12659e-13
4.89655e-13
3.10513e-14
1.45325e-12
1e-14
1.70043e-12
1.77384e-13
1.03656e-14
6.69989e-14
1e-14
7.24724e-14
1.01793e-14
8.18045e-14
1.48749e-14
1e-14
1.05893e-14
1.37609e-13
1.14958e-14
1e-14
6.5517e-14
1.62935e-14
1.20795e-13
2.05888e-14
5.37957e-13
3.40385e-14
6.75958e-14
8.14507e-13
4.95022e-14
2.43571e-14
4.85088e-13
2.2352e-14
7.70635e-13
4.07334e-14
7.20988e-13
3.62697e-14
1.44947e-12
1e-14
1.70074e-12
1.77659e-13
1e-14
1.05852e-14
1.37524e-13
1.14747e-14
1e-14
6.66638e-14
1.62803e-14
1.21229e-13
5.39036e-13
2.05965e-14
3.41336e-14
8.14616e-13
6.77042e-14
4.9648e-14
4.86207e-13
2.4525e-14
2.25295e-14
7.70553e-13
7.21588e-13
4.08142e-14
3.63839e-14
9.98622e-13
1.46918e-12
5.0298e-14
1.01337e-14
5.96243e-13
1.36471e-14
3.34418e-13
4.81955e-14
2.35733e-14
4.9014e-13
1.1307e-13
3.11817e-14
6.74574e-14
1.03737e-14
1e-14
7.20574e-14
8.20342e-14
1.01701e-14
1.48452e-14
1e-14
1e-14
1e-14
7.95673e-14
1.75789e-14
2.08355e-13
1.93509e-13
2.1411e-14
1.07353e-14
1e-14
1.05162e-14
9.29122e-14
2.37721e-14
1.46461e-14
1.03011e-14
1.08307e-12
1.73365e-13
7.56449e-14
1.52564e-12
1.31466e-12
1.69678e-13
2.82028e-14
1.24805e-14
1.0563e-14
6.0644e-13
5.59206e-14
2.68996e-14
1.06479e-14
2.78129e-13
2.78854e-13
6.01386e-14
1.37181e-12
1.36798e-12
1.53612e-13
1.7498e-13
1.0832e-12
7.55663e-14
1.31341e-12
1.52555e-12
1.69475e-13
1e-14
1e-14
1.24869e-14
2.82053e-14
1.05637e-14
6.06449e-13
2.68722e-14
5.59137e-14
1.06461e-14
9.98589e-13
1.46912e-12
7.95669e-14
1e-14
1.75787e-14
1.93496e-13
2.08353e-13
2.14095e-14
5.03377e-14
1.01336e-14
5.96237e-13
1.36471e-14
1e-14
1.07353e-14
1.05163e-14
9.2903e-14
1.46448e-14
2.37702e-14
1.0301e-14
4.81931e-14
3.34417e-13
2.35726e-14
1.13065e-13
4.9014e-13
3.1181e-14
1.44946e-12
1e-14
1.70074e-12
1.77669e-13
1.03736e-14
6.74564e-14
1e-14
7.20512e-14
1.01701e-14
8.20314e-14
1.48444e-14
1e-14
1.05851e-14
1.37527e-13
1.14749e-14
1e-14
6.66691e-14
1.62811e-14
1.2122e-13
2.05983e-14
5.38904e-13
3.41461e-14
6.77002e-14
8.1468e-13
4.96723e-14
2.45377e-14
4.85785e-13
2.25326e-14
7.70644e-13
4.08611e-14
7.21164e-13
3.63746e-14
1.44792e-12
1e-14
1.70046e-12
1.77639e-13
1e-14
1.05805e-14
1.37299e-13
1.14922e-14
1e-14
6.70701e-14
1.62711e-14
1.21913e-13
5.38823e-13
2.04027e-14
3.4148e-14
8.14807e-13
6.8122e-14
4.99186e-14
4.86189e-13
2.45303e-14
2.25307e-14
7.70641e-13
7.21528e-13
4.09763e-14
3.65015e-14
9.98865e-13
1.46936e-12
4.96083e-14
1.01068e-14
5.94965e-13
1.37584e-14
3.34428e-13
4.81202e-14
2.35942e-14
4.90876e-13
1.13282e-13
3.12719e-14
6.76922e-14
1.03671e-14
1e-14
7.15733e-14
8.22675e-14
1.01635e-14
1.48281e-14
1e-14
1e-14
1e-14
7.96448e-14
1.75549e-14
2.10085e-13
1.93268e-13
2.1407e-14
1.07848e-14
1e-14
1.05048e-14
9.30259e-14
2.38528e-14
1.45812e-14
1.02865e-14
1.083e-12
1.72852e-13
7.58277e-14
1.52562e-12
1.31424e-12
1.69708e-13
2.82656e-14
1.24624e-14
1.05564e-14
6.06444e-13
5.59323e-14
2.68872e-14
1.06349e-14
2.77917e-13
2.78654e-13
6.02762e-14
1.37119e-12
1.36737e-12
1.53664e-13
1.74477e-13
1.0831e-12
7.5744e-14
1.313e-12
1.52554e-12
1.69503e-13
1e-14
1e-14
1.24693e-14
2.82664e-14
1.0557e-14
6.06447e-13
2.68589e-14
5.5924e-14
1.06333e-14
9.98849e-13
1.4693e-12
7.96429e-14
1e-14
1.75543e-14
1.93253e-13
2.10089e-13
2.14065e-14
4.9647e-14
1.01067e-14
5.9496e-13
1.37588e-14
1e-14
1.07849e-14
1.05048e-14
9.30158e-14
1.45798e-14
2.38504e-14
1.02864e-14
4.81173e-14
3.34426e-13
2.35938e-14
1.13277e-13
4.9088e-13
3.12716e-14
1.44788e-12
1e-14
1.70046e-12
1.77642e-13
1.03671e-14
6.76925e-14
1e-14
7.15668e-14
1.01635e-14
8.22652e-14
1.48272e-14
1e-14
1.05804e-14
1.37302e-13
1.14923e-14
1e-14
6.70764e-14
1.62716e-14
1.21906e-13
2.04041e-14
5.38703e-13
3.41603e-14
6.81191e-14
8.1487e-13
4.99437e-14
2.45433e-14
4.85768e-13
2.25336e-14
7.70727e-13
4.10248e-14
7.21095e-13
3.64918e-14
1.44662e-12
1e-14
1.7e-12
1.78305e-13
1e-14
1.05563e-14
1.37232e-13
1.16681e-14
1e-14
6.78566e-14
1.64173e-14
1.23342e-13
5.37068e-13
1.99737e-14
3.41595e-14
8.14812e-13
6.94868e-14
5.06629e-14
4.8493e-13
2.4487e-14
2.2487e-14
7.71455e-13
7.21785e-13
4.1389e-14
3.67561e-14
9.98808e-13
1.46955e-12
4.81454e-14
1.00713e-14
5.93038e-13
1.39094e-14
3.34412e-13
4.77468e-14
2.35748e-14
4.9277e-13
1.13808e-13
3.14622e-14
6.81901e-14
1.03482e-14
1e-14
7.01487e-14
8.3154e-14
1.01466e-14
1.4796e-14
1e-14
1e-14
1e-14
7.91472e-14
1.74242e-14
2.12364e-13
1.93215e-13
2.1478e-14
1.08824e-14
1e-14
1.05143e-14
9.33223e-14
2.39453e-14
1.45143e-14
1.02649e-14
1.0828e-12
1.72495e-13
7.57303e-14
1.52546e-12
1.31312e-12
1.70291e-13
2.81726e-14
1.24164e-14
1.05155e-14
6.06333e-13
5.60109e-14
2.6937e-14
1.0619e-14
2.77573e-13
2.78319e-13
6.02445e-14
1.37021e-12
1.36641e-12
1.53991e-13
1.74148e-13
1.0829e-12
7.56398e-14
1.31187e-12
1.52537e-12
1.7009e-13
1e-14
1e-14
1.24241e-14
2.8172e-14
1.0516e-14
6.06317e-13
2.69065e-14
5.60015e-14
1.06177e-14
9.98796e-13
1.46949e-12
7.91417e-14
1e-14
1.74237e-14
1.93198e-13
2.12365e-13
2.14784e-14
4.81876e-14
1.0071e-14
5.93026e-13
1.39108e-14
1e-14
1.08824e-14
1.05143e-14
9.33124e-14
1.45134e-14
2.39428e-14
1.02649e-14
4.7743e-14
3.34414e-13
2.35743e-14
1.13803e-13
4.92776e-13
3.14623e-14
1.4466e-12
1e-14
1.69999e-12
1.78312e-13
1.03481e-14
6.81899e-14
1e-14
7.01456e-14
1.01467e-14
8.31525e-14
1.47953e-14
1e-14
1.05564e-14
1.37236e-13
1.16681e-14
1e-14
6.78647e-14
1.6418e-14
1.23337e-13
1.99742e-14
5.36932e-13
3.41715e-14
6.9485e-14
8.14881e-13
5.06909e-14
2.44997e-14
4.84493e-13
2.24904e-14
7.71565e-13
4.14428e-14
7.21345e-13
3.67458e-14
1.4389e-12
1e-14
1.69946e-12
1.79962e-13
1e-14
1.04207e-14
1.41737e-13
1.22599e-14
1e-14
7.06251e-14
1.74787e-14
1.27907e-13
5.31392e-13
1.84934e-14
3.3671e-14
8.16842e-13
7.33714e-14
5.33298e-14
4.80546e-13
2.34063e-14
2.15424e-14
7.74989e-13
7.24288e-13
4.39778e-14
3.86265e-14
9.97294e-13
1.47261e-12
4.3234e-14
1.00086e-14
5.86151e-13
1.38745e-14