/*--------------------------------*- C++ -*----------------------------------*\
| =========                 |                                                 |
| \\      /  F ield         | OpenFOAM: The Open Source CFD Toolbox           |
|  \\    /   O peration     | Version:  2.1.1                                 |
|   \\  /    A nd           | Web:      www.OpenFOAM.org                      |
|    \\/     M anipulation  |                                                 |
\*---------------------------------------------------------------------------*/
FoamFile
{
    version     2.0;
    format      ascii;
    class       volScalarField;
    location    "0.005";
    object      p;
}
// * * * * * * * * * * * * * * * * * * * * * * * * * * * * * * * * * * * * * //

dimensions      [0 2 -2 0 0 0 0];

internalField   nonuniform List<scalar> 
10300
(
0.0555819
0.0558447
0.0546641
0.0552953
0.0549181
0.0520532
0.0518614
0.0519776
0.0519485
0.0557741
0.0541252
0.0519777
0.0518445
0.0517347
0.0517818
0.0517374
0.0517435
0.0559279
0.0519833
0.0518825
0.0518072
0.0518173
0.051886
0.0518595
0.0518933
0.0518869
0.0520742
0.0518449
0.0518006
0.0517901
0.0518457
0.0518213
0.051809
0.051807
0.0517989
0.0517969
0.0520674
0.051687
0.0518537
0.0518396
0.0518485
0.0518387
0.0518376
0.051852
0.0518483
0.051858
0.0518573
0.0559308
0.0518436
0.0518528
0.0518406
0.0518303
0.0518255
0.0518332
0.051827
0.0518275
0.0518245
0.0518237
0.0518227
0.0557735
0.051982
0.0517999
0.051839
0.0518305
0.051839
0.0518376
0.0518412
0.05184
0.0518458
0.0518452
0.051849
0.0518491
0.0541237
0.0518807
0.0517888
0.0518468
0.0518251
0.0518367
0.0518299
0.0518369
0.0518335
0.051837
0.0518354
0.0518368
0.0518365
0.0552926
0.0519754
0.0518048
0.0518445
0.051838
0.0518328
0.0518409
0.0518372
0.0518436
0.0518422
0.0518471
0.051847
0.0518497
0.05185
0.0549144
0.0518413
0.0518144
0.051819
0.0518345
0.0518261
0.0518384
0.0518331
0.0518414
0.051839
0.051844
0.0518433
0.0518457
0.0518458
0.0520488
0.0517311
0.0518846
0.0518064
0.0518521
0.0518266
0.0518455
0.0518368
0.0518471
0.0518444
0.0518503
0.05185
0.0518529
0.0518532
0.0518561
0.0517793
0.0518529
0.0518063
0.0518443
0.051824
0.0518435
0.0518352
0.0518463
0.0518433
0.0518496
0.051849
0.051852
0.0518521
0.0558339
0.0519739
0.0517339
0.0518928
0.0517956
0.0518589
0.0518232
0.0518488
0.0518371
0.05185
0.0518461
0.0518531
0.0518524
0.0518555
0.0518556
0.0546577
0.0519481
0.0517475
0.0518855
0.0517982
0.0518564
0.0518235
0.0518492
0.0518371
0.05185
0.0518461
0.0518532
0.0518523
0.0518555
0.0518553
0.054779
0.0535981
0.0542294
0.0538523
0.0509876
0.0507965
0.0509136
0.0508839
0.0547083
0.0530594
0.0509116
0.0507783
0.0506684
0.0507159
0.0506768
0.0506774
0.0548622
0.0509175
0.0508167
0.0507414
0.0507516
0.0508204
0.0507939
0.0508239
0.0508214
0.0510027
0.0507781
0.0507344
0.0507237
0.0507793
0.0507552
0.050742
0.0507394
0.0507286
0.0507289
0.0510074
0.0506213
0.0507875
0.0507737
0.0507828
0.0507729
0.0507714
0.0507862
0.0507824
0.0507919
0.0507916
0.0548649
0.0507779
0.050787
0.0507743
0.0507641
0.050759
0.0507665
0.0507605
0.0507605
0.0507574
0.0507564
0.0507554
0.0547076
0.0509162
0.0507337
0.050773
0.0507643
0.0507727
0.0507714
0.0507747
0.0507732
0.0507788
0.0507781
0.0507817
0.0507818
0.0530576
0.0508147
0.0507223
0.050781
0.0507584
0.0507704
0.050763
0.0507698
0.050766
0.0507692
0.0507675
0.0507688
0.0507685
0.0542262
0.0509089
0.0507388
0.0507779
0.050772
0.0507661
0.0507743
0.0507702
0.0507763
0.0507745
0.0507791
0.0507788
0.0507814
0.0507817
0.0538481
0.0507745
0.0507482
0.0507527
0.050768
0.0507594
0.0507714
0.0507657
0.0507736
0.0507708
0.0507754
0.0507745
0.0507767
0.0507768
0.0509822
0.0506639
0.0508188
0.050739
0.0507863
0.0507595
0.0507785
0.0507692
0.0507791
0.0507759
0.0507815
0.0507808
0.0507836
0.0507838
0.0507891
0.0507114
0.0507863
0.0507388
0.050778
0.0507569
0.0507763
0.0507673
0.0507781
0.0507745
0.0507804
0.0507794
0.0507822
0.0507823
0.054761
0.0509055
0.0506665
0.0508255
0.0507268
0.0507935
0.0507558
0.0507821
0.050769
0.0507821
0.0507772
0.0507838
0.0507826
0.0507855
0.0507855
0.0535883
0.0508823
0.0506804
0.0508219
0.0507317
0.0507906
0.0507562
0.0507815
0.050769
0.0507812
0.0507771
0.0507837
0.0507824
0.0507854
0.0507852
0.0537131
0.0525321
0.0531631
0.0527863
0.0499217
0.0497303
0.0498458
0.0498173
0.0536425
0.0519933
0.0498453
0.0497119
0.0496019
0.0496478
0.0496016
0.0496095
0.0537965
0.0498517
0.0497507
0.0496755
0.0496858
0.0497547
0.049729
0.0497631
0.0497567
0.04994
0.0497121
0.0496682
0.0496572
0.0497128
0.0496889
0.0496751
0.0496732
0.0496669
0.0496625
0.0499372
0.0495554
0.0497216
0.0497076
0.049717
0.049707
0.0497053
0.0497203
0.0497167
0.0497269
0.0497263
0.0537991
0.0497111
0.0497207
0.049708
0.0496978
0.0496925
0.0496996
0.0496939
0.0496933
0.0496904
0.049689
0.0496881
0.0536417
0.0498503
0.0496674
0.049707
0.049698
0.0497063
0.0497051
0.0497079
0.0497062
0.0497117
0.0497109
0.0497148
0.049715
0.0519914
0.0497487
0.0496557
0.0497151
0.0496917
0.049704
0.0496958
0.0497026
0.0496986
0.0497016
0.0496998
0.049701
0.0497007
0.0531598
0.0498425
0.0496728
0.0497112
0.0497059
0.0496994
0.0497076
0.0497031
0.0497088
0.0497068
0.0497113
0.0497108
0.0497133
0.0497135
0.0527819
0.0497079
0.0496822
0.0496863
0.0497017
0.0496928
0.0497043
0.0496983
0.0497059
0.0497027
0.0497072
0.049706
0.049708
0.0497079
0.0499162
0.0495973
0.049753
0.0496718
0.0497204
0.0496922
0.0497117
0.0497016
0.0497113
0.0497077
0.0497129
0.049712
0.0497145
0.0497146
0.0497238
0.0496443
0.049721
0.049672
0.0497119
0.04969
0.049709
0.0496997
0.0497099
0.049706
0.0497115
0.0497103
0.0497128
0.0497128
0.0536925
0.0498396
0.0495983
0.0497605
0.0496598
0.0497274
0.0496881
0.0497153
0.0497011
0.0497136
0.0497085
0.0497147
0.0497132
0.0497159
0.0497159
0.0525222
0.0498162
0.0496127
0.0497556
0.0496644
0.0497253
0.0496891
0.0497146
0.0497014
0.0497133
0.0497084
0.0497145
0.0497129
0.0497157
0.0497157
0.052647
0.0514661
0.0520971
0.0517204
0.0488559
0.0486651
0.0487824
0.0487528
0.0525766
0.0509273
0.0487789
0.0486455
0.0485355
0.0485826
0.0485458
0.0485439
0.0527305
0.0487857
0.0486847
0.0486095
0.0486197
0.0486887
0.048663
0.0486936
0.0486905
0.0488713
0.0486456
0.0486019
0.0485907
0.0486463
0.0486225
0.0486081
0.0486051
0.0485917
0.0485942
0.0488737
0.0484894
0.0486553
0.0486414
0.048651
0.0486404
0.0486389
0.048654
0.0486502
0.0486591
0.04866
0.0527332
0.0486451
0.0486547
0.0486418
0.0486315
0.0486258
0.048633
0.0486273
0.048626
0.0486232
0.0486214
0.0486206
0.0525758
0.0487844
0.0486012
0.0486409
0.0486316
0.0486399
0.0486385
0.0486409
0.0486393
0.0486449
0.048644
0.0486478
0.048648
0.0509254
0.0486827
0.0485893
0.0486492
0.0486252
0.0486375
0.0486288
0.0486351
0.0486316
0.0486344
0.0486323
0.0486331
0.0486327
0.052094
0.0487762
0.048607
0.0486447
0.0486396
0.0486327
0.0486407
0.048636
0.0486414
0.0486394
0.0486435
0.0486428
0.048645
0.0486451
0.0517163
0.0486417
0.0486163
0.0486201
0.0486356
0.0486262
0.0486373
0.0486311
0.0486383
0.0486349
0.048639
0.0486376
0.0486394
0.0486392
0.0488507
0.0485309
0.0486872
0.0486051
0.0486543
0.048625
0.0486449
0.0486342
0.0486434
0.0486393
0.0486444
0.0486433
0.0486455
0.0486455
0.0486574
0.0485784
0.0486568
0.0486057
0.0486461
0.0486229
0.048642
0.0486322
0.0486419
0.0486375
0.0486427
0.0486414
0.0486436
0.0486436
0.0526298
0.0487727
0.0485355
0.0486978
0.0485949
0.0486613
0.0486206
0.0486484
0.0486333
0.0486454
0.0486402
0.0486455
0.0486443
0.0486466
0.0486466
0.0514571
0.04875
0.0485456
0.0486883
0.0485961
0.0486599
0.0486218
0.0486477
0.0486335
0.048645
0.0486398
0.0486457
0.0486435
0.0486464
0.0486465
0.0515807
0.0503998
0.0510312
0.0506545
0.0477895
0.0475983
0.0477136
0.0476852
0.0515104
0.0498611
0.0477126
0.0475791
0.047469
0.047514
0.0474669
0.0474756
0.0516641
0.0477195
0.0476186
0.0475434
0.0475537
0.0476228
0.0475975
0.0476304
0.0476254
0.0478068
0.0475794
0.0475356
0.0475243
0.0475797
0.0475561
0.0475414
0.0475395
0.0475351
0.0475284
0.0478055
0.0474232
0.0475892
0.0475752
0.0475848
0.0475739
0.0475725
0.0475878
0.0475846
0.0475951
0.0475944
0.0516669
0.0475786
0.0475885
0.0475756
0.047565
0.0475591
0.0475664
0.0475606
0.0475588
0.0475561
0.0475541
0.0475532
0.0515098
0.0477183
0.0475349
0.0475747
0.0475651
0.0475734
0.0475718
0.0475741
0.0475725
0.0475778
0.047577
0.0475806
0.0475808
0.0498594
0.0476168
0.047523
0.0475831
0.0475587
0.0475709
0.0475621
0.0475686
0.0475644
0.0475668
0.0475647
0.0475653
0.0475649
0.0510284
0.0477101
0.0475413
0.0475783
0.0475733
0.0475659
0.047574
0.0475691
0.0475743
0.047572
0.0475756
0.0475748
0.0475767
0.0475768
0.0506509
0.0475757
0.0475505
0.0475539
0.0475697
0.0475596
0.0475706
0.0475642
0.0475709
0.0475674
0.047571
0.0475694
0.047571
0.0475708
0.0477854
0.047465
0.0476213
0.0475386
0.0475879
0.047558
0.047578
0.0475669
0.0475756
0.0475717
0.047576
0.0475747
0.0475767
0.0475767
0.0475928
0.0475119
0.0475919
0.0475388
0.0475806
0.0475559
0.0475751
0.0475648
0.0475739
0.0475695
0.0475742
0.0475726
0.0475747
0.0475747
0.0515689
0.0477103
0.0474667
0.04763
0.047528
0.0475952
0.0475534
0.0475813
0.0475656
0.047577
0.0475715
0.047577
0.0475751
0.0475775
0.0475775
0.0503933
0.047684
0.0474784
0.0476241
0.0475298
0.0475937
0.0475542
0.0475806
0.0475657
0.0475767
0.0475713
0.0475766
0.047575
0.0475774
0.0475773
0.0505144
0.0493334
0.0499648
0.0495883
0.0467236
0.0465331
0.0466504
0.0466205
0.0504438
0.0487946
0.0466461
0.0465126
0.0464025
0.0464491
0.046413
0.0464101
0.0505976
0.0466532
0.0465523
0.0464772
0.0464874
0.0465565
0.046531
0.0465608
0.0465583
0.0467391
0.0465129
0.0464691
0.0464578
0.0465131
0.0464896
0.0464744
0.0464711
0.0464575
0.0464599
0.0467405
0.046357
0.0465228
0.0465088
0.0465184
0.0465074
0.046506
0.0465213
0.0465177
0.0465263
0.0465273
0.0506005
0.0465125
0.0465223
0.0465092
0.0464985
0.0464925
0.0464998
0.0464939
0.0464915
0.0464887
0.0464863
0.0464855
0.0504433
0.0466522
0.0464685
0.0465084
0.0464985
0.046507
0.0465052
0.0465075
0.0465058
0.0465108
0.0465101
0.0465134
0.0465137
0.0487931
0.0465507
0.0464567
0.046517
0.0464921
0.0465044
0.0464955
0.0465019
0.0464974
0.0464993
0.0464972
0.0464975
0.0464971
0.0499624
0.046644
0.0464755
0.0465119
0.0465069
0.0464993
0.0465074
0.0465021
0.046507
0.0465045
0.0465078
0.046507
0.0465087
0.0465089
0.0495853
0.0465099
0.0464848
0.0464878
0.0465039
0.046493
0.0465041
0.0464972
0.0465035
0.0464999
0.0465031
0.0465015
0.0465028
0.0465027
0.0467201
0.046399
0.0465552
0.0464722
0.0465214
0.046491
0.0465111
0.0464994
0.0465079
0.0465038
0.0465077
0.0465064
0.0465081
0.0465081
0.0465281
0.0464463
0.0465274
0.0464715
0.046515
0.0464889
0.0465085
0.0464973
0.0465062
0.0465017
0.0465059
0.0465042
0.046506
0.0465059
0.0505066
0.0466459
0.0464053
0.0465626
0.0464573
0.046528
0.0464862
0.0465142
0.0464978
0.0465092
0.0465034
0.0465083
0.0465064
0.0465084
0.0465083
0.0493294
0.0466191
0.0464121
0.046558
0.0464619
0.0465272
0.0464866
0.0465138
0.0464979
0.046509
0.0465032
0.0465081
0.0465062
0.0465082
0.0465079
0.0494479
0.0482668
0.0488981
0.0485218
0.045657
0.045466
0.0455812
0.0455531
0.0493773
0.047728
0.0455795
0.0454461
0.0453359
0.0453806
0.0453342
0.0453423
0.0495313
0.0455868
0.0454859
0.0454108
0.045421
0.0454902
0.0454653
0.0454982
0.0454929
0.0456736
0.0454466
0.0454026
0.0453912
0.0454464
0.0454231
0.0454077
0.0454054
0.0453999
0.0453937
0.0456731
0.0452908
0.0454564
0.0454424
0.045452
0.045441
0.0454395
0.0454548
0.0454517
0.0454618
0.0454611
0.0495343
0.045446
0.0454559
0.0454429
0.045432
0.0454258
0.0454331
0.045427
0.0454243
0.0454214
0.0454189
0.045418
0.049377
0.045586
0.045402
0.0454421
0.045432
0.0454408
0.0454385
0.0454408
0.0454388
0.0454439
0.0454431
0.0454464
0.0454468
0.0477268
0.0454846
0.0453902
0.0454509
0.0454256
0.0454379
0.0454288
0.0454348
0.0454302
0.0454318
0.0454296
0.0454297
0.0454294
0.0488962
0.0455777
0.0454094
0.0454455
0.0454405
0.0454327
0.0454408
0.045435
0.0454399
0.0454372
0.0454403
0.0454395
0.045441
0.0454413
0.0485194
0.0454439
0.045419
0.0454217
0.045438
0.0454264
0.0454376
0.0454301
0.0454364
0.0454323
0.0454355
0.0454335
0.0454347
0.0454345
0.0456542
0.0453329
0.0454891
0.0454062
0.0454551
0.0454242
0.0454442
0.045432
0.0454405
0.0454359
0.0454395
0.045438
0.0454395
0.0454395
0.045462
0.0453779
0.0454627
0.0454064
0.0454502
0.045422
0.045442
0.0454298
0.0454389
0.0454336
0.0454377
0.0454356
0.0454372
0.045437
0.0494428
0.0455777
0.045329
0.0454974
0.0454007
0.0454638
0.0454194
0.0454473
0.0454301
0.0454415
0.0454351
0.0454398
0.0454376
0.0454393
0.0454391
0.0482639
0.0455513
0.045343
0.0454933
0.0453959
0.045462
0.0454195
0.0454471
0.0454301
0.0454414
0.0454349
0.0454396
0.0454373
0.045439
0.0454386
0.0483813
0.0472002
0.0478315
0.0474553
0.044591
0.0444004
0.0445174
0.0444881
0.0483107
0.0466613
0.0445128
0.0443795
0.0442692
0.0443154
0.0442783
0.0442766
0.048465
0.0445202
0.0444193
0.0443443
0.0443545
0.0444237
0.0443986
0.0444286
0.0444257
0.0446067
0.0443801
0.044336
0.0443245
0.0443797
0.0443564
0.0443406
0.0443372
0.0443243
0.0443257
0.0446075
0.0442245
0.04439
0.0443761
0.0443856
0.0443746
0.0443729
0.0443882
0.0443848
0.0443933
0.0443941
0.0484681
0.0443798
0.0443896
0.0443767
0.0443655
0.044359
0.0443663
0.04436
0.0443572
0.044354
0.0443513
0.0443503
0.0483106
0.0445196
0.0443356
0.0443758
0.0443654
0.0443745
0.0443717
0.0443743
0.0443719
0.0443771
0.0443762
0.0443795
0.0443798
0.0466604
0.0444183
0.0443238
0.0443847
0.044359
0.0443713
0.0443619
0.0443678
0.0443627
0.0443645
0.0443618
0.0443619
0.0443614
0.04783
0.0445114
0.0443433
0.044379
0.0443742
0.0443659
0.0443742
0.0443678
0.044373
0.0443698
0.0443731
0.0443719
0.0443734
0.0443736
0.0474535
0.0443778
0.0443531
0.0443554
0.0443719
0.0443596
0.0443712
0.0443628
0.0443695
0.0443644
0.0443677
0.0443652
0.0443664
0.044366
0.0445885
0.044267
0.044423
0.0443399
0.0443885
0.0443572
0.0443774
0.0443644
0.0443732
0.0443679
0.0443717
0.0443697
0.0443711
0.0443711
0.0443967
0.0443116
0.0443974
0.0443394
0.0443845
0.0443548
0.0443756
0.0443621
0.0443716
0.0443653
0.0443696
0.044367
0.0443685
0.0443682
0.0483782
0.0445119
0.044263
0.0444316
0.0443343
0.0443971
0.0443522
0.0443802
0.0443622
0.0443739
0.0443666
0.0443715
0.0443687
0.0443703
0.0443701
0.0471984
0.0444855
0.0442757
0.0444272
0.0443287
0.0443956
0.0443519
0.0443803
0.0443621
0.044374
0.0443664
0.0443714
0.0443684
0.0443702
0.0443696
0.0473151
0.0461338
0.046765
0.0463889
0.0435244
0.0433336
0.0434489
0.0434205
0.047244
0.0455946
0.0434461
0.0433129
0.0432027
0.0432475
0.043202
0.043209
0.0473985
0.0434537
0.0433528
0.0432778
0.043288
0.0433574
0.0433327
0.0433651
0.0433601
0.0435407
0.0433137
0.0432694
0.0432578
0.043313
0.0432899
0.0432738
0.0432714
0.0432652
0.0432597
0.0435407
0.0431581
0.0433235
0.0433097
0.0433191
0.0433082
0.0433062
0.0433218
0.0433186
0.0433283
0.043328
0.0474018
0.0433134
0.0433232
0.0433105
0.043299
0.043292
0.0432995
0.0432929
0.0432901
0.0432867
0.0432839
0.0432829
0.0472442
0.0434533
0.0432691
0.0433095
0.0432988
0.0433082
0.0433049
0.0433078
0.043305
0.0433105
0.0433092
0.0433125
0.0433128
0.045594
0.043352
0.0432573
0.0433185
0.0432921
0.0433047
0.0432947
0.0433008
0.0432951
0.043297
0.0432939
0.0432939
0.0432933
0.046764
0.0434452
0.0432771
0.0433126
0.0433079
0.0432992
0.0433078
0.0433007
0.0433063
0.0433024
0.043306
0.0433044
0.043306
0.0433062
0.0463876
0.0433117
0.0432871
0.0432889
0.0433057
0.0432928
0.0433047
0.0432952
0.0433023
0.0432962
0.0432998
0.0432967
0.043298
0.0432974
0.0435232
0.0432012
0.0433566
0.0432733
0.0433218
0.04329
0.0433106
0.0432969
0.043306
0.0432999
0.0433041
0.0433016
0.0433031
0.043303
0.0433325
0.0432479
0.0433311
0.0432705
0.0433178
0.0432872
0.043309
0.0432942
0.0433044
0.0432968
0.0433016
0.0432981
0.0432999
0.0432995
0.0473134
0.04345
0.0432115
0.0433611
0.0432568
0.0433274
0.0432843
0.0433131
0.0432942
0.0433064
0.0432981
0.0433033
0.0433
0.0433018
0.0433015
0.0461331
0.0434215
0.0432105
0.0433596
0.04326
0.0433282
0.0432839
0.0433134
0.0432939
0.0433066
0.0432977
0.0433034
0.0432996
0.0433017
0.0433011
0.0462489
0.0450675
0.0456985
0.0453224
0.0424582
0.042268
0.0423851
0.0423554
0.0461775
0.044528
0.0423795
0.0422464
0.0421362
0.0421824
0.0421448
0.0421434
0.0463319
0.0423872
0.0422863
0.0422114
0.0422214
0.0422909
0.042266
0.0422969
0.0422927
0.042474
0.0422471
0.0422029
0.0421912
0.0422463
0.0422233
0.0422068
0.0422033
0.0421899
0.042192
0.0424745
0.0420916
0.042257
0.0422432
0.0422527
0.0422418
0.0422396
0.0422551
0.0422512
0.0422594
0.0422607
0.0463353
0.0422469
0.0422568
0.042244
0.0422323
0.0422251
0.0422328
0.0422257
0.042223
0.0422191
0.0422161
0.0422152
0.0461778
0.042387
0.0422027
0.0422432
0.0422323
0.0422419
0.0422381
0.0422414
0.0422381
0.0422438
0.0422421
0.0422456
0.0422458
0.0445277
0.0422858
0.0421908
0.0422521
0.0422251
0.042238
0.0422274
0.0422338
0.0422273
0.0422294
0.0422259
0.0422261
0.0422253
0.0456978
0.0423789
0.0422109
0.0422461
0.0422416
0.0422325
0.0422414
0.0422337
0.0422395
0.042235
0.0422389
0.0422369
0.0422388
0.0422388
0.0453215
0.0422456
0.0422209
0.0422226
0.0422393
0.0422258
0.0422381
0.0422274
0.042235
0.042228
0.042232
0.0422283
0.0422298
0.042229
0.042457
0.0421353
0.0422905
0.0422069
0.0422552
0.0422229
0.0422438
0.0422294
0.0422389
0.042232
0.0422365
0.0422335
0.0422353
0.042235
0.0422662
0.0421802
0.0422657
0.0422047
0.0422518
0.0422197
0.0422423
0.0422262
0.0422371
0.0422285
0.0422336
0.0422295
0.0422315
0.0422308
0.0462479
0.0423817
0.0421343
0.0422987
0.0421983
0.042262
0.0422169
0.0422458
0.0422262
0.0422389
0.0422298
0.0422353
0.0422315
0.0422335
0.0422329
0.0450672
0.0423543
0.042143
0.042294
0.0421937
0.0422618
0.0422162
0.0422464
0.0422258
0.0422393
0.0422293
0.0422354
0.0422309
0.0422332
0.0422325
0.0451826
0.0440012
0.0446318
0.0442557
0.0413917
0.0412016
0.0413186
0.0412891
0.0451108
0.0434613
0.0413129
0.0411798
0.0410697
0.0411159
0.0410782
0.0410769
0.0452653
0.0413208
0.0412198
0.0411449
0.0411549
0.0412244
0.0411994
0.0412303
0.0412262
0.0414077
0.0411806
0.0411364
0.0411245
0.0411797
0.0411567
0.0411399
0.0411363
0.041123
0.0411249
0.0414077
0.0410252
0.0411906
0.0411769
0.0411861
0.0411752
0.0411729
0.0411884
0.0411844
0.0411925
0.0411939
0.0452687
0.0411803
0.0411903
0.0411774
0.0411657
0.041158
0.0411661
0.0411584
0.0411558
0.0411516
0.0411488
0.0411478
0.0451114
0.0413207
0.0411362
0.0411764
0.0411656
0.0411756
0.0411713
0.0411748
0.0411713
0.0411771
0.0411752
0.0411788
0.041179
0.0434612
0.0412195
0.0411243
0.0411862
0.0411581
0.0411713
0.04116
0.0411668
0.0411596
0.0411618
0.0411579
0.0411583
0.0411574
0.0446314
0.0413126
0.0411446
0.0411796
0.0411752
0.0411659
0.0411749
0.0411667
0.0411727
0.0411677
0.0411718
0.0411695
0.0411715
0.0411714
0.0442552
0.0411793
0.0411546
0.0411563
0.0411728
0.0411586
0.0411713
0.0411597
0.0411678
0.04116
0.0411642
0.04116
0.0411616
0.0411607
0.0413911
0.0410691
0.0412241
0.0411401
0.0411885
0.0411559
0.0411771
0.0411618
0.0411719
0.0411642
0.0411689
0.0411655
0.0411674
0.041167
0.0412008
0.0411153
0.0411991
0.0411367
0.0411849
0.0411521
0.0411756
0.0411581
0.0411697
0.0411602
0.0411656
0.041161
0.0411631
0.0411622
0.045182
0.0413179
0.0410781
0.0412291
0.0411237
0.0411935
0.0411494
0.0411789
0.0411584
0.0411715
0.0411617
0.0411675
0.0411631
0.0411652
0.0411644
0.0440011
0.0412892
0.0410773
0.0412267
0.0411257
0.0411946
0.0411486
0.0411796
0.0411579
0.041172
0.041161
0.0411674
0.0411624
0.0411646
0.0411635
0.044116
0.0429347
0.0435654
0.0431891
0.0403248
0.0401343
0.0402496
0.0402214
0.0440446
0.042395
0.0402464
0.0401133
0.040003
0.0400478
0.0400025
0.0400094
0.044199
0.0402545
0.0401534
0.0400784
0.0400882
0.0401577
0.040133
0.0401653
0.0401604
0.0403405
0.0401139
0.0400698
0.0400578
0.0401131
0.04009
0.0400731
0.0400707
0.0400644
0.040059
0.0403418
0.0399588
0.0401241
0.0401101
0.0401199
0.0401085
0.0401062
0.0401217
0.0401182
0.0401277
0.0401276
0.0442025
0.0401139
0.0401241
0.0401107
0.0400991
0.040091
0.0400993
0.0400911
0.0400888
0.0400844
0.0400819
0.0400806
0.0440453
0.0402546
0.0400699
0.0401106
0.0400992
0.0401091
0.0401047
0.0401081
0.0401044
0.0401103
0.0401083
0.0401119
0.040112
0.0423952
0.0401533
0.0400577
0.0401193
0.040091
0.0401047
0.0400926
0.0400994
0.0400919
0.0400943
0.0400899
0.0400903
0.0400893
0.0435653
0.0402463
0.0400783
0.0401131
0.0401085
0.0400993
0.0401082
0.0400999
0.0401058
0.0401004
0.0401046
0.0401019
0.040104
0.0401038
0.0431889
0.0401131
0.0400881
0.0400899
0.0401062
0.0400912
0.0401044
0.0400921
0.0401005
0.040092
0.0400963
0.0400917
0.0400934
0.0400924
0.0403246
0.0400028
0.0401577
0.0400733
0.0401218
0.0400889
0.0401104
0.0400943
0.0401046
0.0400962
0.0401012
0.0400975
0.0400995
0.040099
0.040134
0.0400477
0.0401329
0.0400709
0.0401185
0.0400848
0.0401086
0.0400902
0.0401022
0.0400919
0.0400976
0.0400925
0.0400947
0.0400936
0.0441158
0.0402495
0.0400023
0.0401654
0.0400646
0.0401281
0.0400821
0.040112
0.0400904
0.0401041
0.0400935
0.0400996
0.0400947
0.0400969
0.0400958
0.0429349
0.0402217
0.0400099
0.0401608
0.0400597
0.0401282
0.0400812
0.0401127
0.0400897
0.0401044
0.0400926
0.0400993
0.0400938
0.040096
0.0400946
0.0430495
0.0418684
0.0424991
0.0421226
0.0392582
0.0390683
0.0391854
0.0391562
0.0429786
0.041329
0.0391799
0.0390467
0.0389365
0.0389827
0.0389454
0.0389441
0.0431329
0.0391883
0.0390869
0.0390118
0.0390215
0.0390909
0.039066
0.039097
0.0390927
0.039276
0.0390475
0.0390033
0.038991
0.0390464
0.0390233
0.0390061
0.0390027
0.0389891
0.0389912
0.039273
0.0388924
0.0390577
0.039044
0.0390529
0.0390415
0.0390395
0.0390547
0.0390507
0.0390587
0.03906
0.0431365
0.0390472
0.0390575
0.0390439
0.0390324
0.0390237
0.0390325
0.0390237
0.0390217
0.039017
0.0390143
0.039013
0.0429795
0.0391885
0.0390033
0.0390434
0.0390324
0.0390425
0.0390379
0.0390415
0.0390374
0.0390433
0.0390411
0.0390449
0.0390448
0.0413293
0.039087
0.0389911
0.0390535
0.0390238
0.0390379
0.0390251
0.0390334
0.0390244
0.0390267
0.0390221
0.0390225
0.0390212
0.0424993
0.0391801
0.039012
0.0390466
0.0390417
0.0390326
0.0390412
0.0390317
0.0390387
0.039033
0.0390372
0.0390344
0.0390365
0.0390361
0.0421227
0.0390468
0.0390216
0.0390233
0.0390396
0.0390239
0.0390374
0.0390241
0.0390329
0.0390241
0.0390285
0.0390237
0.0390253
0.039024
0.0392583
0.0389365
0.039091
0.0390064
0.0390549
0.0390219
0.0390434
0.0390267
0.0390373
0.0390284
0.0390337
0.0390295
0.0390316
0.0390308
0.0390683
0.0389829
0.0390661
0.0390029
0.039051
0.0390173
0.0390414
0.0390223
0.0390346
0.0390238
0.0390297
0.0390241
0.0390264
0.0390249
0.0430496
0.0391855
0.0389455
0.0390971
0.0389893
0.0390589
0.0390145
0.039045
0.0390226
0.0390367
0.0390254
0.0390317
0.0390263
0.0390286
0.0390273
0.0418687
0.0391566
0.0389446
0.0390932
0.0389917
0.0390606
0.0390136
0.0390454
0.0390216
0.0390365
0.0390243
0.0390311
0.0390251
0.0390274
0.039026
0.0419828
0.0408021
0.0414327
0.0410559
0.0381913
0.0380014
0.0381184
0.0380894
0.0419123
0.0402626
0.0381136
0.0379802
0.03787
0.0379163
0.037879
0.0378778
0.0420665
0.0381219
0.0380204
0.0379452
0.0379548
0.038024
0.037999
0.0380299
0.0380257
0.0382032
0.0379801
0.0379365
0.0379241
0.0379798
0.0379565
0.0379394
0.037936
0.0379222
0.0379244
0.0382136
0.037826
0.0379909
0.0379767
0.0379869
0.0379745
0.0379727
0.0379877
0.0379836
0.0379915
0.0379928
0.0420704
0.0379812
0.0379914
0.0379769
0.0379655
0.0379563
0.0379658
0.0379562
0.0379546
0.0379497
0.0379471
0.0379457
0.0419134
0.0381224
0.037937
0.0379776
0.0379657
0.0379757
0.0379709
0.0379742
0.0379702
0.0379762
0.0379738
0.0379776
0.0379775
0.0402633
0.0380207
0.0379243
0.0379864
0.0379564
0.037971
0.0379572
0.037965
0.0379564
0.0379592
0.0379544
0.0379549
0.0379536
0.0414331
0.0381139
0.0379455
0.0379802
0.0379746
0.0379659
0.0379745
0.037966
0.0379715
0.0379655
0.0379699
0.0379669
0.0379691
0.0379686
0.0410563
0.0379805
0.037955
0.0379567
0.037973
0.0379565
0.0379704
0.0379567
0.0379656
0.0379563
0.0379609
0.0379557
0.0379574
0.037956
0.0381915
0.0378703
0.0380243
0.0379397
0.0379879
0.0379549
0.0379763
0.0379594
0.03797
0.0379609
0.0379662
0.0379617
0.0379638
0.0379628
0.0380016
0.0379165
0.0379993
0.0379362
0.037984
0.03795
0.0379741
0.0379546
0.0379671
0.0379559
0.0379618
0.0379561
0.0379583
0.0379567
0.0419831
0.0381187
0.0378793
0.0380302
0.0379225
0.0379917
0.0379474
0.0379778
0.0379551
0.0379692
0.0379575
0.0379639
0.0379583
0.0379606
0.0379591
0.0408025
0.0380898
0.0378782
0.0380261
0.0379248
0.0379933
0.0379461
0.037978
0.0379539
0.037969
0.0379562
0.0379631
0.0379568
0.0379593
0.0379577
0.040916
0.0397353
0.0403663
0.0399893
0.0371238
0.0369335
0.0370486
0.0370207
0.040846
0.0391964
0.0370474
0.0369137
0.0368035
0.0368483
0.0368029
0.0368102
0.0410004
0.0370559
0.036954
0.0368785
0.0368879
0.0369569
0.0369319
0.0369638
0.0369591
0.0371526
0.0369149
0.03687
0.036857
0.0369132
0.0368897
0.0368728
0.0368706
0.0368647
0.0368589
0.0371294
0.0367592
0.0369252
0.0369108
0.0369197
0.0369072
0.0369059
0.0369207
0.036917
0.0369265
0.036926
0.0410039
0.0369127
0.0369243
0.0369096
0.0368988
0.0368887
0.0368989
0.0368888
0.0368876
0.0368826
0.0368805
0.0368788
0.0408474
0.0370565
0.0368702
0.0369101
0.0368988
0.0369089
0.0369039
0.0369071
0.036903
0.036909
0.0369065
0.0369103
0.0369101
0.0391973
0.0369546
0.0368576
0.0369208
0.0368891
0.036904
0.0368898
0.0368982
0.0368889
0.0368919
0.0368868
0.0368874
0.036886
0.040367
0.037048
0.0368791
0.0369138
0.0369077
0.0368993
0.0369074
0.0368984
0.0369044
0.0368982
0.0369027
0.0368994
0.0369017
0.0369011
0.0399899
0.0369142
0.0368884
0.0368901
0.0369062
0.0368891
0.0369033
0.0368891
0.0368984
0.0368888
0.0368934
0.036888
0.0368897
0.0368882
0.0371243
0.0368039
0.0369573
0.0368732
0.036921
0.036888
0.0369092
0.0368921
0.0369028
0.0368934
0.0368988
0.0368942
0.0368963
0.0368951
0.0369339
0.0368487
0.0369323
0.036871
0.0369174
0.036883
0.0369068
0.036887
0.0368996
0.0368881
0.0368943
0.0368882
0.0368905
0.0368888
0.0409163
0.0370489
0.0368032
0.0369641
0.0368651
0.0369268
0.0368808
0.0369105
0.0368876
0.0369019
0.0368898
0.0368964
0.0368905
0.0368928
0.0368913
0.0397357
0.0370211
0.0368105
0.0369595
0.0368592
0.0369265
0.0368792
0.0369105
0.0368862
0.0369014
0.0368884
0.0368954
0.0368889
0.0368914
0.0368894
0.0398494
0.0386688
0.0393003
0.0389228
0.0360565
0.0358668
0.0359832
0.0359544
0.0397802
0.0381306
0.0359817
0.0358474
0.0357372
0.0357836
0.0357462
0.0357451
0.0399337
0.0359904
0.0358879
0.0358118
0.0358209
0.0358893
0.0358641
0.0358943
0.0358906
0.0360522
0.0358442
0.0358026
0.03579
0.0358466
0.0358229
0.0358058
0.0358029
0.0357893
0.0357913
0.0361007
0.0356937
0.0358577
0.0358431
0.0358542
0.03584
0.0358388
0.0358532
0.035849
0.0358571
0.0358579
0.0399392
0.03585
0.0358598
0.0358421
0.0358317
0.0358212
0.0358321
0.0358214
0.0358206
0.0358154
0.0358132
0.0358116
0.0397821
0.0359917
0.0358042
0.035845
0.0358323
0.0358422
0.0358369
0.03584
0.0358358
0.0358416
0.035839
0.0358428
0.0358425
0.0381319
0.0358888
0.0357905
0.0358537
0.0358214
0.0358371
0.0358223
0.0358311
0.0358215
0.0358246
0.0358192
0.0358199
0.0358184
0.0393014
0.0359827
0.0358126
0.0358473
0.0358405
0.0358325
0.0358403
0.0358313
0.0358373
0.0358309
0.0358353
0.0358319
0.0358343
0.0358335
0.0389237
0.0358482
0.0358215
0.0358234
0.0358393
0.0358218
0.0358361
0.0358217
0.035831
0.0358212
0.0358259
0.0358204
0.0358221
0.0358205
0.0360571
0.0357378
0.0358898
0.0358064
0.0358536
0.035821
0.0358419
0.0358248
0.0358355
0.0358259
0.0358314
0.0358266
0.0358288
0.0358274
0.0358673
0.035784
0.0358646
0.0358033
0.0358494
0.0358157
0.0358393
0.0358195
0.0358321
0.0358206
0.0358267
0.0358204
0.0358227
0.0358208
0.0398498
0.0359836
0.0357466
0.0358946
0.0357897
0.0358573
0.0358135
0.0358431
0.0358201
0.0358345
0.0358223
0.0358289
0.0358227
0.0358251
0.0358232
0.0386692
0.0359547
0.0357455
0.035891
0.0357916
0.0358583
0.0358119
0.0358429
0.0358187
0.0358338
0.0358208
0.0358276
0.0358209
0.0358234
0.0358212
0.0387836
0.0376032
0.0382359
0.0378573
0.0349883
0.0347987
0.0349133
0.0348858
0.0387162
0.0370666
0.0349171
0.0347814
0.034671
0.034717
0.0346736
0.0346785
0.0388706
0.0349267
0.0348223
0.0347451
0.0347537
0.0348211
0.034796
0.0348262
0.0348223
0.0350455
0.0347837
0.0347362
0.0347225
0.0347799
0.0347559
0.0347391
0.0347371
0.034729
0.0347256
0.034966
0.0346266
0.0347943
0.0347779
0.0347868
0.0347723
0.0347714
0.0347855
0.0347813
0.0347905
0.03479
0.0388739
0.0347757
0.0347914
0.0347736
0.0347649
0.034753
0.0347649
0.0347538
0.0347535
0.0347483
0.0347464
0.0347446
0.0387187
0.0349281
0.0347366
0.0347774
0.0347651
0.0347752
0.0347698
0.0347726
0.0347684
0.0347741
0.0347713
0.0347752
0.0347748
0.0370685
0.0348236
0.0347233
0.0347881
0.0347537
0.03477
0.0347547
0.0347638
0.0347538
0.0347573
0.0347517
0.0347524
0.0347509
0.0382374
0.0349186
0.034746
0.0347807
0.0347732
0.034766
0.0347731
0.0347641
0.03477
0.0347634
0.0347679
0.0347643
0.0347667
0.0347658
0.0378586
0.0347825
0.0347545
0.0347565
0.034772
0.0347544
0.0347688
0.0347542
0.0347636
0.0347537
0.0347583
0.0347527
0.0347543
0.0347527
0.0349891
0.0346717
0.0348217
0.0347396
0.034786
0.034754
0.0347745
0.0347575
0.0347681
0.0347584
0.0347639
0.0347588
0.034761
0.0347595
0.0347993
0.0347175
0.0347965
0.0347376
0.0347818
0.0347487
0.0347717
0.034752
0.0347646
0.0347528
0.0347589
0.0347525
0.0347547
0.0347527
0.0387841
0.0349137
0.034674
0.0348266
0.0347295
0.0347908
0.0347467
0.0347755
0.0347527
0.0347669
0.0347545
0.0347611
0.0347547
0.0347571
0.0347551
0.0376036
0.0348861
0.0346789
0.0348227
0.0347259
0.0347904
0.0347449
0.0347751
0.0347512
0.0347661
0.034753
0.0347598
0.0347528
0.0347552
0.0347531
0.0377209
0.0365415
0.0371761
0.0367959
0.0339188
0.0337304
0.0338438
0.0338171
0.037657
0.0360075
0.0338533
0.0337155
0.0336047
0.0336524
0.0336099
0.0336135
0.0378091
0.0338642
0.0337575
0.033679
0.0336867
0.0337515
0.0337267
0.0337557
0.0337527
0.0338797
0.0337049
0.033667
0.0336541
0.0337128
0.0336882
0.0336721
0.0336706
0.0336613
0.0336596
0.0340062
0.0335631
0.0337245
0.0337096
0.03372
0.0337046
0.0337037
0.0337174
0.0337131
0.0337221
0.0337216
0.0378182
0.0337206
0.0337304
0.0337037
0.033697
0.0336854
0.0336979
0.0336862
0.0336864
0.0336813
0.0336796
0.0336779