/*--------------------------------*- C++ -*----------------------------------*\
| =========                 |                                                 |
| \\      /  F ield         | OpenFOAM: The Open Source CFD Toolbox           |
|  \\    /   O peration     | Version:  2.1.1                                 |
|   \\  /    A nd           | Web:      www.OpenFOAM.org                      |
|    \\/     M anipulation  |                                                 |
\*---------------------------------------------------------------------------*/
FoamFile
{
    version     2.0;
    format      ascii;
    class       volVectorField;
    location    "0.005";
    object      U;
}
// * * * * * * * * * * * * * * * * * * * * * * * * * * * * * * * * * * * * * //

dimensions      [0 1 -1 0 0 0 0];

internalField   nonuniform List<vector> 
10300
(
(0.00465301 -0.00157006 0.0169933)
(0.00052834 -0.00386987 0.014613)
(0.000178535 -0.0049088 0.0213276)
(0.000617174 -0.00166013 0.0143367)
(-0.0036344 -0.00433556 0.0215709)
(-0.000342179 -0.000494371 0.0751804)
(0.000115896 -0.000172923 0.0937049)
(-9.43084e-05 -0.000268501 0.0888442)
(3.54243e-05 -0.000260967 0.0881826)
(0.000944533 -0.0028518 0.0145815)
(-0.00432849 -0.00493724 0.0264476)
(-0.000391844 -0.000335579 0.0720146)
(0.00018856 -0.000277616 0.0885588)
(0.000149839 0.000385364 0.1134)
(3.49124e-05 0.000101124 0.116118)
(5.45492e-05 0.000221192 0.113268)
(8.37564e-06 0.00018494 0.112806)
(-0.0023585 -0.00506449 0.0177346)
(-0.000401815 -0.000396348 0.0737032)
(2.88896e-05 -0.000369913 0.0875744)
(9.27438e-05 0.000267506 0.112113)
(-0.000179722 4.87427e-05 0.114019)
(-0.000129062 -0.000145245 0.114766)
(-4.02032e-05 -0.000118182 0.113489)
(-6.23637e-05 -0.000157911 0.112552)
(3.60203e-06 -0.000161656 0.112299)
(-0.000588383 -0.000467812 0.0705426)
(0.000228786 -0.000347704 0.0887159)
(0.000130969 0.0003075 0.112351)
(-0.000102004 8.79144e-05 0.113541)
(-5.50819e-05 -4.05846e-05 0.114268)
(6.50923e-05 -6.64659e-05 0.11314)
(3.29542e-05 4.63829e-05 0.11261)
(2.96018e-05 2.65157e-05 0.112312)
(1.63729e-05 7.15653e-05 0.1121)
(6.64062e-06 6.76578e-05 0.111952)
(-0.000469043 -0.000589425 0.0704999)
(0.000566709 0.000566812 0.11249)
(-0.000292628 5.3356e-05 0.113564)
(-4.61339e-06 -4.36805e-05 0.113788)
(-1.83397e-06 -9.88337e-05 0.112686)
(2.03325e-05 -8.60189e-06 0.11223)
(-2.36079e-05 -4.41006e-05 0.112194)
(-3.39149e-05 -6.10331e-05 0.112288)
(-2.18576e-05 -7.19275e-05 0.112314)
(-2.52223e-05 -8.49166e-05 0.112238)
(-1.34211e-06 -8.98627e-05 0.112157)
(-0.00506792 -0.00235672 0.0177299)
(-0.000347894 0.000229745 0.0886901)
(5.24801e-05 -0.000291802 0.113555)
(1.83922e-05 1.9026e-05 0.112649)
(4.9054e-05 -5.89589e-06 0.111791)
(-2.36247e-06 4.94278e-06 0.111819)
(-1.54411e-06 -1.55521e-05 0.112005)
(7.43219e-06 -2.48084e-05 0.112202)
(7.16648e-07 -7.68143e-06 0.112329)
(5.47661e-06 -1.1474e-05 0.112364)
(-9.54716e-08 5.52679e-07 0.112337)
(2.30505e-06 4.4629e-07 0.112308)
(-0.00285247 0.000944785 0.0145814)
(-0.000397145 -0.000400927 0.0736962)
(0.00030649 0.000132335 0.112337)
(-4.51663e-05 -2.93983e-06 0.11378)
(-6.84524e-06 4.97247e-05 0.111791)
(-2.07517e-05 -1.94419e-05 0.111675)
(-1.51071e-05 -2.1457e-05 0.111929)
(-1.50154e-05 -2.73127e-05 0.112117)
(-1.79832e-05 -3.79613e-05 0.112255)
(-2.08695e-05 -4.50723e-05 0.112344)
(-1.3716e-05 -5.20517e-05 0.112383)
(-1.35904e-05 -5.64337e-05 0.112389)
(-1.58864e-06 -5.91197e-05 0.112387)
(-0.00493816 -0.0043281 0.0264474)
(-0.000370678 3.02935e-05 0.0875678)
(8.79165e-05 -0.000101043 0.113533)
(-0.000100248 -1.95049e-06 0.11268)
(4.02357e-06 -1.82338e-06 0.111819)
(-2.21247e-05 -1.48533e-05 0.111931)
(-1.22065e-05 -1.14875e-05 0.112091)
(-1.84796e-05 -2.07633e-05 0.112205)
(-1.01508e-05 -2.34968e-05 0.112301)
(-1.31133e-05 -2.34785e-05 0.112376)
(-5.73053e-06 -2.51055e-05 0.112423)
(-7.05338e-06 -2.35417e-05 0.112444)
(-1.94919e-07 -2.3817e-05 0.112454)
(-0.00165999 0.000616629 0.0143365)
(-0.000335846 -0.000390741 0.0720159)
(0.000265549 9.41537e-05 0.112113)
(-4.35024e-05 -5.30117e-05 0.114265)
(-1.04059e-05 2.30697e-05 0.112227)
(-1.61235e-05 -5.84246e-07 0.112004)
(-2.84655e-05 -1.40625e-05 0.112118)
(-2.10197e-05 -1.79826e-05 0.112205)
(-2.68415e-05 -2.648e-05 0.112282)
(-2.05556e-05 -3.10984e-05 0.112358)
(-2.24069e-05 -3.66173e-05 0.112421)
(-1.38064e-05 -4.01962e-05 0.112468)
(-1.23447e-05 -4.30516e-05 0.112495)
(-1.86477e-06 -4.43307e-05 0.112509)
(-0.00433549 -0.00363368 0.0215707)
(-0.000278488 0.000188691 0.088561)
(4.80171e-05 -0.000182451 0.114022)
(-6.51294e-05 6.55088e-05 0.113141)
(-4.65988e-05 -2.58738e-05 0.112195)
(-2.75303e-05 7.35087e-06 0.112202)
(-3.9105e-05 -1.84051e-05 0.112256)
(-2.48163e-05 -9.75509e-06 0.112302)
(-3.15987e-05 -2.06123e-05 0.112359)
(-2.02894e-05 -1.96768e-05 0.112421)
(-2.21995e-05 -2.34546e-05 0.112477)
(-1.21554e-05 -2.38866e-05 0.112521)
(-1.11724e-05 -2.4825e-05 0.11255)
(-1.4387e-06 -2.49446e-05 0.112565)
(-0.000497062 -0.000341218 0.0751878)
(0.000380148 0.000149062 0.113409)
(-0.000147107 -0.000123694 0.114772)
(4.40581e-05 2.93279e-05 0.112614)
(-6.33002e-05 -3.33919e-05 0.112289)
(-6.42277e-06 -1.55229e-07 0.11233)
(-4.57609e-05 -2.11362e-05 0.112344)
(-2.33724e-05 -1.32704e-05 0.112376)
(-3.67673e-05 -2.26303e-05 0.112422)
(-2.33996e-05 -2.20961e-05 0.112477)
(-2.6606e-05 -2.67685e-05 0.112529)
(-1.51735e-05 -2.77484e-05 0.112572)
(-1.34004e-05 -2.97947e-05 0.112602)
(-1.97154e-06 -3.02003e-05 0.112618)
(-0.000178735 0.000118861 0.0937213)
(0.000102302 3.87425e-05 0.116136)
(-0.00012191 -4.3565e-05 0.113503)
(2.31271e-05 2.89402e-05 0.112316)
(-7.16797e-05 -2.31293e-05 0.112318)
(-1.50115e-05 5.26155e-06 0.112365)
(-5.24867e-05 -1.38764e-05 0.112385)
(-2.63894e-05 -5.2783e-06 0.112423)
(-4.04367e-05 -1.38314e-05 0.112469)
(-2.44398e-05 -1.17604e-05 0.112522)
(-2.78531e-05 -1.52089e-05 0.112574)
(-1.51842e-05 -1.48829e-05 0.11262)
(-1.36235e-05 -1.60521e-05 0.112653)
(-1.92406e-06 -1.59802e-05 0.112672)
(-0.00386928 0.000529493 0.0146194)
(-0.000274385 -9.78051e-05 0.0888657)
(0.000208127 4.40568e-05 0.113291)
(-0.000164406 -7.03124e-05 0.112561)
(7.14512e-05 1.29286e-05 0.112106)
(-8.67064e-05 -3.00452e-05 0.112239)
(2.93691e-06 -1.79636e-06 0.112338)
(-5.64485e-05 -1.50398e-05 0.112389)
(-2.32979e-05 -7.35422e-06 0.112444)
(-4.32569e-05 -1.28583e-05 0.112495)
(-2.47768e-05 -1.10911e-05 0.11255)
(-2.97272e-05 -1.36578e-05 0.112604)
(-1.6018e-05 -1.35129e-05 0.112655)
(-1.44985e-05 -1.46439e-05 0.112697)
(-1.93056e-06 -1.44253e-05 0.112722)
(-0.00490787 0.00017637 0.0213308)
(-0.00026867 3.42007e-05 0.0881901)
(0.000182833 -1.26223e-06 0.112813)
(-0.000157879 1.11955e-05 0.112305)
(6.7486e-05 4.64841e-06 0.111953)
(-8.78412e-05 3.9481e-06 0.112159)
(2.88706e-07 2.60295e-06 0.112308)
(-5.81535e-05 -2.46016e-08 0.112388)
(-2.4165e-05 2.20421e-07 0.112454)
(-4.41879e-05 -1.15014e-06 0.112509)
(-2.52403e-05 -1.04924e-06 0.112565)
(-3.02736e-05 -1.8833e-06 0.112619)
(-1.61679e-05 -1.74537e-06 0.112673)
(-1.45363e-05 -1.99447e-06 0.112722)
(-1.96505e-06 -1.87072e-06 0.112755)
(0.000528286 -0.00386999 0.0146135)
(0.000178549 -0.00490876 0.0213281)
(0.000617283 -0.00166015 0.0143373)
(-0.00363497 -0.00433554 0.0215719)
(-0.000343395 -0.000493811 0.0751845)
(0.000115608 -0.000171351 0.0937101)
(-9.45253e-05 -0.000267391 0.0888488)
(3.50128e-05 -0.000259472 0.0881872)
(0.000944636 -0.0028519 0.0145819)
(-0.00432862 -0.00493738 0.0264487)
(-0.000391646 -0.000335911 0.0720179)
(0.000189161 -0.00027737 0.0885624)
(0.00015136 0.000386624 0.113405)
(3.55997e-05 0.00010225 0.116122)
(5.504e-05 0.000223036 0.113272)
(9.41545e-06 0.000186705 0.11281)
(-0.00235859 -0.0050648 0.0177352)
(-0.000401688 -0.00039577 0.0737067)
(2.92697e-05 -0.000368969 0.087578)
(9.27878e-05 0.000269608 0.112118)
(-0.000179736 5.04753e-05 0.114024)
(-0.000129773 -0.000141186 0.11477)
(-4.01923e-05 -0.000114318 0.113494)
(-6.21142e-05 -0.000152354 0.112557)
(3.14683e-06 -0.000156656 0.112304)
(-0.000588205 -0.000467838 0.0705459)
(0.000229764 -0.000346629 0.0887191)
(0.000132444 0.000309188 0.112355)
(-0.00010015 8.95713e-05 0.113545)
(-5.45884e-05 -3.77113e-05 0.114272)
(6.75376e-05 -6.23627e-05 0.113143)
(3.6589e-05 5.01702e-05 0.112612)
(3.17942e-05 3.15936e-05 0.112313)
(1.80236e-05 7.60089e-05 0.112101)
(7.1733e-06 7.26689e-05 0.111953)
(-0.00046929 -0.000588043 0.070503)
(0.000567597 0.000567481 0.112496)
(-0.000290631 5.47312e-05 0.113568)
(-3.56979e-06 -4.14216e-05 0.113792)
(-2.03661e-08 -9.61196e-05 0.112689)
(2.28651e-05 -4.51511e-06 0.112233)
(-2.2639e-05 -3.91448e-05 0.112196)
(-3.36386e-05 -5.68456e-05 0.11229)
(-2.12176e-05 -6.7864e-05 0.112316)
(-2.50495e-05 -8.10282e-05 0.11224)
(-1.22016e-06 -8.61384e-05 0.112159)
(-0.00506824 -0.00235682 0.0177305)
(-0.000346837 0.000231064 0.0886932)
(5.38273e-05 -0.000289742 0.113559)
(2.11746e-05 2.17175e-05 0.112652)
(5.19348e-05 -2.3153e-06 0.111794)
(1.353e-06 9.6518e-06 0.111821)
(1.21085e-06 -1.00775e-05 0.112006)
(9.97599e-06 -1.8625e-05 0.112202)
(3.45671e-06 5.52186e-07 0.112329)
(7.41303e-06 -2.58834e-06 0.112363)
(1.26224e-06 1.04066e-05 0.112337)
(2.65419e-06 1.06314e-05 0.112307)
(-0.00285258 0.000944865 0.0145819)
(-0.000396633 -0.000400712 0.0736995)
(0.000308067 0.000133949 0.112341)
(-4.31279e-05 -1.73371e-06 0.113784)
(-3.32125e-06 5.28209e-05 0.111794)
(-1.76925e-05 -1.63444e-05 0.111677)
(-1.14018e-05 -1.67877e-05 0.11193)
(-1.10117e-05 -2.25634e-05 0.112118)
(-1.42582e-05 -3.14761e-05 0.112254)
(-1.78958e-05 -3.8383e-05 0.112343)
(-1.147e-05 -4.46394e-05 0.112382)
(-1.21356e-05 -4.88458e-05 0.112387)
(-1.14969e-06 -5.13338e-05 0.112385)
(-0.00493834 -0.00432827 0.0264487)
(-0.000369823 3.08987e-05 0.087571)
(8.96099e-05 -9.90961e-05 0.113537)
(-9.74634e-05 -5.02933e-08 0.112683)
(8.70163e-06 1.79612e-06 0.111822)
(-1.76715e-05 -1.11383e-05 0.111931)
(-6.84791e-06 -6.13395e-06 0.11209)
(-1.39183e-05 -1.50053e-05 0.112203)
(-5.67549e-06 -1.68796e-05 0.112299)
(-9.45925e-06 -1.64201e-05 0.112373)
(-2.8993e-06 -1.73981e-05 0.112419)
(-5.31977e-06 -1.56002e-05 0.11244)
(3.49278e-07 -1.56673e-05 0.112449)
(-0.00165997 0.000616625 0.0143372)
(-0.000336214 -0.000390387 0.0720187)
(0.000267491 9.42233e-05 0.112117)
(-4.08954e-05 -5.23329e-05 0.114268)
(-6.71726e-06 2.57373e-05 0.11223)
(-1.07816e-05 2.09952e-06 0.112004)
(-2.36642e-05 -9.90669e-06 0.112119)
(-1.52725e-05 -1.34153e-05 0.112203)
(-2.15752e-05 -2.11777e-05 0.11228)
(-1.55406e-05 -2.5046e-05 0.112354)
(-1.83521e-05 -3.01838e-05 0.112417)
(-1.06808e-05 -3.32722e-05 0.112463)
(-1.04479e-05 -3.59524e-05 0.11249)
(-1.2157e-06 -3.7073e-05 0.112503)
(-0.00433548 -0.00363438 0.0215719)
(-0.000278468 0.000189517 0.0885635)
(4.9658e-05 -0.000183214 0.114026)
(-6.08502e-05 6.81162e-05 0.113144)
(-4.18238e-05 -2.53211e-05 0.112196)
(-2.13654e-05 1.00142e-05 0.112202)
(-3.27615e-05 -1.47806e-05 0.112255)
(-1.83107e-05 -5.15518e-06 0.112299)
(-2.55524e-05 -1.56303e-05 0.112355)
(-1.46863e-05 -1.3993e-05 0.112416)
(-1.7677e-05 -1.74122e-05 0.112471)
(-8.65939e-06 -1.74074e-05 0.112514)
(-9.10469e-06 -1.81489e-05 0.112542)
(-7.36465e-07 -1.81382e-05 0.112557)
(-0.00049787 -0.000342485 0.0751901)
(0.000380476 0.000150592 0.113412)
(-0.000143093 -0.000123255 0.114775)
(4.79524e-05 3.22169e-05 0.112616)
(-5.95563e-05 -3.28659e-05 0.112291)
(1.98918e-06 2.3875e-06 0.11233)
(-3.90148e-05 -1.82512e-05 0.112343)
(-1.62572e-05 -9.64314e-06 0.112373)
(-3.04135e-05 -1.86292e-05 0.112418)
(-1.7324e-05 -1.76007e-05 0.112472)
(-2.17564e-05 -2.19509e-05 0.112522)
(-1.14151e-05 -2.26369e-05 0.112564)
(-1.11771e-05 -2.45073e-05 0.112594)
(-1.19163e-06 -2.49163e-05 0.112609)
(-0.000180161 0.000120462 0.0937234)
(0.000103972 4.03144e-05 0.116137)
(-0.000118778 -4.4732e-05 0.113504)
(2.7533e-05 3.09386e-05 0.112317)
(-6.72531e-05 -2.29512e-05 0.112319)
(-6.48707e-06 7.3702e-06 0.112364)
(-4.50459e-05 -1.19301e-05 0.112383)
(-1.87592e-05 -2.43654e-06 0.112419)
(-3.35191e-05 -1.07398e-05 0.112464)
(-1.80199e-05 -8.16745e-06 0.112515)
(-2.27141e-05 -1.14429e-05 0.112566)
(-1.12184e-05 -1.08535e-05 0.112611)
(-1.13836e-05 -1.1922e-05 0.112644)
(-1.10961e-06 -1.18671e-05 0.112662)
(-0.00386889 0.000530295 0.014619)
(-0.000277381 -9.87851e-05 0.0888674)
(0.000205794 4.30891e-05 0.113291)
(-0.000159862 -7.1015e-05 0.112564)
(7.67594e-05 1.42877e-05 0.112106)
(-8.28932e-05 -3.03098e-05 0.112241)
(1.31308e-05 -6.39395e-07 0.112338)
(-4.8965e-05 -1.37262e-05 0.112386)
(-1.50332e-05 -5.79436e-06 0.112439)
(-3.6151e-05 -1.09762e-05 0.112489)
(-1.80263e-05 -8.99885e-06 0.112543)
(-2.44408e-05 -1.14494e-05 0.112596)
(-1.18952e-05 -1.12496e-05 0.112646)
(-1.21915e-05 -1.23399e-05 0.112687)
(-1.09513e-06 -1.21823e-05 0.112711)
(-0.00490755 0.000173388 0.0213295)
(-0.00026729 3.44137e-05 0.0881923)
(0.000185607 -2.14323e-06 0.112816)
(-0.000152292 1.31067e-05 0.112308)
(7.23527e-05 4.53882e-06 0.111954)
(-8.36649e-05 5.13201e-06 0.11216)
(1.04079e-05 2.79443e-06 0.112307)
(-5.03123e-05 9.10673e-07 0.112385)
(-1.59666e-05 7.22559e-07 0.112448)
(-3.6738e-05 -3.10901e-07 0.112503)
(-1.8494e-05 -1.73257e-07 0.112557)
(-2.49641e-05 -9.59152e-07 0.11261)
(-1.2107e-05 -8.33152e-07 0.112663)
(-1.23164e-05 -1.09932e-06 0.112712)
(-1.05424e-06 -9.00647e-07 0.112744)
(0.000528259 -0.00386999 0.014614)
(0.000178354 -0.00490867 0.0213289)
(0.000617374 -0.00166014 0.0143376)
(-0.00363534 -0.00433561 0.0215723)
(-0.000344216 -0.000493364 0.0751877)
(0.00011559 -0.000170174 0.0937142)
(-9.46931e-05 -0.000266228 0.0888524)
(3.46085e-05 -0.000257818 0.0881909)
(0.000944626 -0.00285198 0.0145824)
(-0.0043285 -0.0049375 0.0264494)
(-0.000391545 -0.000336137 0.0720203)
(0.000189692 -0.000277081 0.088565)
(0.00015282 0.000387581 0.113408)
(3.65968e-05 0.000102921 0.116126)
(5.54894e-05 0.000224078 0.113275)
(9.97849e-06 0.000188088 0.112813)
(-0.00235845 -0.00506523 0.0177357)
(-0.000401725 -0.000395263 0.0737094)
(2.95809e-05 -0.000368316 0.0875809)
(9.27636e-05 0.000271273 0.112122)
(-0.000179818 5.19542e-05 0.114028)
(-0.000130341 -0.000137896 0.114774)
(-4.03088e-05 -0.000111476 0.113498)
(-6.17814e-05 -0.000148654 0.11256)
(2.98391e-06 -0.000152715 0.112308)
(-0.000587199 -0.00046758 0.0705482)
(0.000230769 -0.000345652 0.0887215)
(0.000133743 0.000310632 0.112359)
(-9.86282e-05 9.06972e-05 0.113548)
(-5.41531e-05 -3.5407e-05 0.114274)
(6.95844e-05 -5.92682e-05 0.113146)
(3.94353e-05 5.31158e-05 0.112614)
(3.32605e-05 3.55081e-05 0.112315)
(1.96038e-05 7.96889e-05 0.112102)
(8.03369e-06 7.63851e-05 0.111955)
(-0.000468921 -0.000587765 0.0705055)
(0.000568041 0.000568137 0.1125)
(-0.000289 5.58006e-05 0.113571)
(-2.8995e-06 -3.98672e-05 0.113796)
(1.38356e-06 -9.40042e-05 0.112692)
(2.4815e-05 -1.55882e-06 0.112236)
(-2.20285e-05 -3.56336e-05 0.112198)
(-3.3367e-05 -5.36748e-05 0.112292)
(-2.06213e-05 -6.48975e-05 0.112318)
(-2.49327e-05 -7.74903e-05 0.112242)
(-1.33778e-06 -8.31243e-05 0.112161)
(-0.00506867 -0.00235668 0.0177311)
(-0.000345874 0.000231919 0.0886956)
(5.48519e-05 -0.000288156 0.113562)
(2.32994e-05 2.39053e-05 0.112654)
(5.43567e-05 4.22748e-07 0.111796)
(4.28915e-06 1.32917e-05 0.111823)
(3.04233e-06 -5.78923e-06 0.112006)
(1.22286e-05 -1.35405e-05 0.112203)
(5.75094e-06 7.06739e-06 0.11233)
(9.27388e-06 4.52806e-06 0.112363)
(2.92632e-06 1.77539e-05 0.112337)
(2.97404e-06 1.83261e-05 0.112307)
(-0.00285267 0.000944849 0.0145825)
(-0.000396131 -0.000400731 0.0737019)
(0.000309438 0.000135259 0.112344)
(-4.15529e-05 -9.6079e-07 0.113787)
(-5.33235e-07 5.5419e-05 0.111797)
(-1.55751e-05 -1.4135e-05 0.111679)
(-8.45746e-06 -1.33035e-05 0.111931)
(-7.6274e-06 -1.88231e-05 0.112118)
(-1.14297e-05 -2.63477e-05 0.112254)
(-1.56027e-05 -3.33948e-05 0.112342)
(-1.00554e-05 -3.89327e-05 0.11238)
(-1.14541e-05 -4.35321e-05 0.112385)
(-8.96531e-07 -4.58857e-05 0.112382)
(-0.00493848 -0.00432819 0.0264494)
(-0.000369176 3.12094e-05 0.0875736)
(9.08295e-05 -9.75521e-05 0.11354)
(-9.52145e-05 1.41073e-06 0.112685)
(1.22667e-05 4.52471e-06 0.111823)
(-1.43637e-05 -8.17259e-06 0.111932)
(-2.39086e-06 -1.76685e-06 0.11209)
(-1.04529e-05 -1.04673e-05 0.112202)
(-2.18444e-06 -1.17662e-05 0.112297)
(-6.59666e-06 -1.08052e-05 0.11237)
(-7.1182e-07 -1.13739e-05 0.112415)
(-3.90821e-06 -8.94396e-06 0.112436)
(7.36106e-07 -8.76643e-06 0.112445)
(-0.00165997 0.000616677 0.0143377)
(-0.000336464 -0.000390225 0.0720205)
(0.000269161 9.42424e-05 0.112119)
(-3.85884e-05 -5.19654e-05 0.11427)
(-3.96277e-06 2.76547e-05 0.112232)
(-6.47965e-06 3.83324e-06 0.112005)
(-1.98996e-05 -6.31318e-06 0.112119)
(-1.07561e-05 -9.94885e-06 0.112203)
(-1.74443e-05 -1.69673e-05 0.112278)
(-1.16423e-05 -2.03325e-05 0.112352)
(-1.51524e-05 -2.51218e-05 0.112414)
(-8.22611e-06 -2.78614e-05 0.112459)
(-8.88995e-06 -3.035e-05 0.112486)
(-6.96668e-07 -3.13968e-05 0.112499)
(-0.00433559 -0.00363494 0.0215725)
(-0.000278 0.000190191 0.0885649)
(5.11035e-05 -0.000183629 0.114029)
(-5.77122e-05 7.03124e-05 0.113145)
(-3.82113e-05 -2.49121e-05 0.112197)
(-1.61177e-05 1.24735e-05 0.112202)
(-2.77119e-05 -1.22511e-05 0.112254)
(-1.32357e-05 -1.57132e-06 0.112297)
(-2.08398e-05 -1.17611e-05 0.112352)
(-1.03455e-05 -9.5916e-06 0.112412)
(-1.41192e-05 -1.26822e-05 0.112466)
(-5.93254e-06 -1.2337e-05 0.112508)
(-7.42804e-06 -1.28964e-05 0.112536)
(-2.09775e-07 -1.28485e-05 0.112551)
(-0.00049755 -0.000343559 0.0751909)
(0.000381605 0.000151788 0.113413)
(-0.000139557 -0.000123896 0.114777)
(5.10336e-05 3.46788e-05 0.112616)
(-5.65438e-05 -3.25354e-05 0.112293)
(8.41802e-06 4.41561e-06 0.11233)
(-3.41145e-05 -1.59796e-05 0.112341)
(-1.03936e-05 -6.86242e-06 0.11237)
(-2.54632e-05 -1.54881e-05 0.112415)
(-1.25647e-05 -1.40956e-05 0.112467)
(-1.78884e-05 -1.81237e-05 0.112517)
(-8.43902e-06 -1.85686e-05 0.112558)
(-9.40044e-06 -2.03006e-05 0.112587)
(-6.22449e-07 -2.07361e-05 0.112603)
(-0.000179292 0.000120256 0.093723)
(0.000105736 4.13219e-05 0.116135)
(-0.000115883 -4.52945e-05 0.113503)
(3.16311e-05 3.2475e-05 0.112317)
(-6.40792e-05 -2.26408e-05 0.112319)
(7.10356e-07 9.24863e-06 0.112363)
(-3.9233e-05 -1.06085e-05 0.112381)
(-1.2811e-05 -2.88127e-07 0.112415)
(-2.80798e-05 -8.29876e-06 0.112459)
(-1.29926e-05 -5.31823e-06 0.112509)
(-1.85929e-05 -8.45392e-06 0.11256)
(-8.11203e-06 -7.68407e-06 0.112604)
(-9.59509e-06 -8.6944e-06 0.112637)
(-5.67921e-07 -8.64886e-06 0.112654)
(-0.00386893 0.000530505 0.0146157)
(-0.000276531 -9.92148e-05 0.0888634)
(0.000207159 4.31897e-05 0.113288)
(-0.000155745 -7.07497e-05 0.112566)
(8.07265e-05 1.58033e-05 0.112105)
(-7.95776e-05 -3.04144e-05 0.112243)
(2.05827e-05 9.31675e-07 0.112338)
(-4.37963e-05 -1.33126e-05 0.112384)
(-8.04807e-06 -4.62577e-06 0.112436)
(-3.0499e-05 -9.52815e-06 0.112485)
(-1.27182e-05 -7.36429e-06 0.112537)
(-2.02526e-05 -9.69964e-06 0.112589)
(-8.68047e-06 -9.45796e-06 0.112638)
(-1.03659e-05 -1.05225e-05 0.112679)
(-5.27119e-07 -1.05519e-05 0.112703)
(-0.00490803 0.000169616 0.02133)
(-0.000264452 3.53395e-05 0.088195)
(0.000188314 -1.78549e-06 0.112818)
(-0.000148062 1.41555e-05 0.11231)
(7.60888e-05 4.83399e-06 0.111955)
(-8.047e-05 5.67539e-06 0.112161)
(1.81378e-05 2.9264e-06 0.112306)
(-4.49079e-05 1.61598e-06 0.112382)
(-8.98392e-06 1.12597e-06 0.112444)
(-3.08321e-05 2.81695e-07 0.112499)
(-1.31647e-05 4.11679e-07 0.112551)
(-2.06859e-05 -1.91954e-07 0.112603)
(-8.93328e-06 -1.47855e-07 0.112655)
(-1.0689e-05 -4.26064e-07 0.112704)
(-4.356e-07 -2.00642e-07 0.112735)
(0.000528179 -0.00386993 0.0146145)
(0.000178095 -0.00490861 0.0213296)
(0.000617229 -0.00166024 0.0143379)
(-0.00363541 -0.00433583 0.0215728)
(-0.000344509 -0.000492853 0.0751902)
(0.000115661 -0.000169356 0.0937174)
(-9.46335e-05 -0.000266145 0.0888554)
(3.44919e-05 -0.000256955 0.0881943)
(0.000944598 -0.00285208 0.0145827)
(-0.00432849 -0.00493734 0.02645)
(-0.000391132 -0.000335829 0.0720222)
(0.000190225 -0.000276389 0.088567)
(0.000154136 0.000388472 0.113411)
(3.71648e-05 0.000103409 0.116128)
(5.60046e-05 0.000224998 0.113278)
(1.0895e-05 0.000188942 0.112816)
(-0.00235855 -0.00506539 0.0177363)
(-0.000401978 -0.000394906 0.0737118)
(2.9687e-05 -0.000367654 0.0875833)
(9.27271e-05 0.000272662 0.112125)
(-0.000179846 5.31793e-05 0.114031)
(-0.000130729 -0.000135339 0.114777)
(-4.01687e-05 -0.000109168 0.113501)
(-6.14206e-05 -0.000145157 0.112564)
(2.79793e-06 -0.000149629 0.112311)
(-0.000587157 -0.000467655 0.07055)
(0.000231439 -0.000345348 0.0887235)
(0.000134708 0.000311646 0.112361)
(-9.74899e-05 9.14803e-05 0.113551)
(-5.37866e-05 -3.34235e-05 0.114276)
(7.12531e-05 -5.69502e-05 0.113148)
(4.1879e-05 5.55746e-05 0.112615)
(3.48245e-05 3.84834e-05 0.112316)
(2.09498e-05 8.24897e-05 0.112103)
(8.60732e-06 7.91017e-05 0.111955)
(-0.000469088 -0.000587219 0.0705073)
(0.000568397 0.000568321 0.112504)
(-0.000287848 5.63702e-05 0.113574)
(-2.47407e-06 -3.87793e-05 0.113798)
(2.55958e-06 -9.24928e-05 0.112694)
(2.62733e-05 4.9286e-07 0.112238)
(-2.15363e-05 -3.32062e-05 0.112199)
(-3.30854e-05 -5.09047e-05 0.112294)
(-2.01635e-05 -6.24902e-05 0.112319)
(-2.48395e-05 -7.46567e-05 0.112244)
(-1.6353e-06 -8.05731e-05 0.112162)
(-0.00506885 -0.00235679 0.0177317)
(-0.000345579 0.000232709 0.0886974)
(5.54508e-05 -0.000287172 0.113565)
(2.4961e-05 2.56081e-05 0.112656)
(5.6259e-05 2.39162e-06 0.111798)
(6.37754e-06 1.63154e-05 0.111823)
(4.31678e-06 -2.4419e-06 0.112007)
(1.46092e-05 -9.39793e-06 0.112203)
(8.16631e-06 1.18215e-05 0.11233)
(1.09208e-05 9.73653e-06 0.112363)
(4.44676e-06 2.29955e-05 0.112337)
(3.28731e-06 2.401e-05 0.112307)
(-0.0028528 0.000944834 0.0145828)
(-0.000395723 -0.000401017 0.0737039)
(0.000310413 0.000136192 0.112347)
(-4.03384e-05 -5.00139e-07 0.113789)
(1.60613e-06 5.73296e-05 0.111798)
(-1.38397e-05 -1.24014e-05 0.11168)
(-5.91096e-06 -1.05895e-05 0.111932)
(-5.0571e-06 -1.57e-05 0.112119)
(-9.53497e-06 -2.2265e-05 0.112253)
(-1.42641e-05 -2.99153e-05 0.112341)
(-9.12029e-06 -3.50175e-05 0.112378)
(-1.08964e-05 -4.00045e-05 0.112383)
(-7.26544e-07 -4.23001e-05 0.11238)
(-0.00493831 -0.00432821 0.0264501)
(-0.000368447 3.11073e-05 0.0875756)
(9.17205e-05 -9.64079e-05 0.113541)
(-9.36296e-05 2.57732e-06 0.112687)
(1.52093e-05 6.58104e-06 0.111823)
(-1.16574e-05 -5.54646e-06 0.111933)
(1.0807e-06 1.58852e-06 0.112089)
(-7.81504e-06 -6.90992e-06 0.112201)
(5.45647e-07 -7.80903e-06 0.112295)
(-4.35556e-06 -6.05984e-06 0.112368)
(9.87116e-07 -6.14808e-06 0.112412)
(-2.71058e-06 -3.16179e-06 0.112433)
(9.9104e-07 -2.82718e-06 0.112442)
(-0.00166011 0.000616588 0.014338)
(-0.000336189 -0.000389877 0.0720218)
(0.000270728 9.4175e-05 0.112121)
(-3.64101e-05 -5.17604e-05 0.114272)
(-1.82286e-06 2.88352e-05 0.112233)
(-2.8744e-06 5.09969e-06 0.112005)
(-1.68586e-05 -3.45548e-06 0.112119)
(-7.27799e-06 -7.32855e-06 0.112202)
(-1.42715e-05 -1.36182e-05 0.112277)
(-8.56404e-06 -1.663e-05 0.112349)
(-1.2547e-05 -2.10824e-05 0.112412)
(-6.25527e-06 -2.34906e-05 0.112456)
(-7.61999e-06 -2.58915e-05 0.112483)
(-3.42671e-07 -2.69436e-05 0.112496)
(-0.00433589 -0.00363516 0.0215732)
(-0.000276942 0.000190752 0.0885658)
(5.24489e-05 -0.000183461 0.114031)
(-5.55265e-05 7.22212e-05 0.113146)
(-3.55639e-05 -2.438e-05 0.112197)
(-1.14928e-05 1.48106e-05 0.112202)
(-2.36448e-05 -1.07102e-05 0.112253)
(-9.27215e-06 1.04665e-06 0.112295)
(-1.71197e-05 -8.69804e-06 0.11235)
(-6.92678e-06 -6.15058e-06 0.112408)
(-1.12124e-05 -8.90834e-06 0.112462)
(-3.81603e-06 -8.32938e-06 0.112504)
(-6.14868e-06 -8.80072e-06 0.112532)
(1.0813e-07 -8.71965e-06 0.112546)
(-0.00049584 -0.000343881 0.0751913)
(0.000383503 0.000152825 0.113414)
(-0.000136481 -0.000125134 0.114779)
(5.34867e-05 3.69369e-05 0.112616)
(-5.39838e-05 -3.22531e-05 0.112295)
(1.30382e-05 6.58195e-06 0.11233)
(-3.07831e-05 -1.47e-05 0.11234)
(-5.38847e-06 -4.77136e-06 0.112368)
(-2.14662e-05 -1.29479e-05 0.112412)
(-8.77541e-06 -1.12707e-05 0.112463)
(-1.4717e-05 -1.50136e-05 0.112513)
(-6.14698e-06 -1.5334e-05 0.112553)
(-8.00975e-06 -1.69464e-05 0.112583)
(-2.24163e-07 -1.73247e-05 0.112598)
(-0.000175902 0.000118226 0.0937216)
(0.000107002 4.18422e-05 0.116133)
(-0.000113254 -4.53626e-05 0.113502)
(3.52787e-05 3.35718e-05 0.112317)
(-6.15274e-05 -2.21747e-05 0.112319)
(6.34426e-06 1.08461e-05 0.112363)
(-3.52329e-05 -9.67962e-06 0.112378)
(-7.58542e-06 1.35371e-06 0.112412)
(-2.36229e-05 -6.36105e-06 0.112456)
(-9.00334e-06 -3.10799e-06 0.112505)
(-1.52762e-05 -6.15065e-06 0.112556)
(-5.75128e-06 -5.27601e-06 0.112598)
(-8.13903e-06 -6.19359e-06 0.112631)
(-1.92908e-07 -6.04808e-06 0.112649)
(-0.00386955 0.000530428 0.0146134)
(-0.000272429 -9.86774e-05 0.0888594)
(0.000211652 4.44641e-05 0.113285)
(-0.000152121 -6.98806e-05 0.112568)
(8.36954e-05 1.72379e-05 0.112105)
(-7.65504e-05 -3.02454e-05 0.112245)
(2.5674e-05 2.4618e-06 0.112337)
(-4.04248e-05 -1.30382e-05 0.112382)
(-2.03253e-06 -3.58905e-06 0.112432)
(-2.5932e-05 -8.44286e-06 0.112482)
(-8.56268e-06 -6.15958e-06 0.112532)
(-1.68835e-05 -8.36813e-06 0.112585)
(-6.19071e-06 -8.00867e-06 0.112633)
(-8.78223e-06 -8.96156e-06 0.112673)
(-1.04728e-07 -8.96668e-06 0.112697)
(-0.00490859 0.000172526 0.02133)
(-0.000263381 3.638e-05 0.0881975)
(0.000189033 -3.18823e-07 0.11282)
(-0.000145534 1.41482e-05 0.112312)
(7.90474e-05 5.63135e-06 0.111955)
(-7.78497e-05 5.4791e-06 0.112162)
(2.38876e-05 3.1486e-06 0.112306)
(-4.14081e-05 2.06951e-06 0.11238)
(-2.94649e-06 1.49083e-06 0.112441)
(-2.62064e-05 6.89881e-07 0.112495)
(-8.92885e-06 7.51308e-07 0.112546)
(-1.71246e-05 3.25578e-07 0.112598)
(-6.34338e-06 4.34867e-07 0.112649)
(-9.09709e-06 1.70621e-07 0.112698)
(2.56568e-08 3.81908e-07 0.112729)
(0.000528124 -0.00386988 0.0146147)
(0.000178046 -0.0049086 0.02133)
(0.000617089 -0.00166029 0.0143383)
(-0.0036355 -0.00433594 0.0215735)
(-0.000344686 -0.000492128 0.0751923)
(0.00011582 -0.000168297 0.09372)
(-9.44184e-05 -0.000265454 0.0888579)
(3.44698e-05 -0.000256577 0.088197)
(0.0009446 -0.00285207 0.0145831)
(-0.00432863 -0.00493736 0.0264508)
(-0.000390757 -0.000335707 0.0720237)
(0.000190607 -0.000275905 0.0885685)
(0.000155311 0.000389178 0.113413)
(3.81818e-05 0.000103764 0.11613)
(5.63962e-05 0.000225443 0.11328)
(1.12082e-05 0.000189226 0.112817)
(-0.00235869 -0.00506544 0.0177367)
(-0.000402332 -0.00039503 0.0737137)
(2.96625e-05 -0.0003672 0.0875852)
(9.27313e-05 0.000273635 0.112127)
(-0.000179844 5.39716e-05 0.114034)
(-0.0001311 -0.000133389 0.11478)
(-4.01936e-05 -0.000107517 0.113503)
(-6.11367e-05 -0.000143426 0.112566)
(2.75581e-06 -0.000147523 0.112314)
(-0.000587112 -0.000468086 0.0705515)
(0.000232087 -0.000345412 0.0887251)
(0.00013547 0.00031218 0.112363)
(-9.65693e-05 9.2122e-05 0.113552)
(-5.3494e-05 -3.17647e-05 0.114278)
(7.26014e-05 -5.5282e-05 0.113149)
(4.39039e-05 5.75007e-05 0.112616)
(3.56526e-05 4.06501e-05 0.112317)
(2.18382e-05 8.47112e-05 0.112103)
(9.30118e-06 8.13279e-05 0.111955)
(-0.000469433 -0.000587566 0.0705088)
(0.00056851 0.000568446 0.112506)
(-0.000287015 5.66951e-05 0.113576)
(-2.02713e-06 -3.79489e-05 0.1138)
(3.65458e-06 -9.13393e-05 0.112696)
(2.72907e-05 1.74469e-06 0.11224)
(-2.12242e-05 -3.13354e-05 0.112201)
(-3.29572e-05 -4.85738e-05 0.112296)
(-1.99258e-05 -6.04183e-05 0.11232)
(-2.45231e-05 -7.17688e-05 0.112245)
(-1.69838e-06 -7.8165e-05 0.112164)
(-0.00506892 -0.00235694 0.0177321)
(-0.000345616 0.000233231 0.0886989)
(5.58181e-05 -0.000286502 0.113567)
(2.63572e-05 2.70097e-05 0.112658)
(5.78407e-05 3.81128e-06 0.111799)
(7.71102e-06 1.86797e-05 0.111824)
(5.33016e-06 8.29924e-08 0.112007)
(1.70358e-05 -6.49036e-06 0.112203)
(1.03852e-05 1.53932e-05 0.11233)
(1.2318e-05 1.35879e-05 0.112363)
(5.69427e-06 2.70372e-05 0.112337)
(3.60507e-06 2.81167e-05 0.112306)
(-0.00285282 0.000944869 0.0145832)
(-0.000395744 -0.000401462 0.0737056)
(0.000311038 0.000136836 0.112349)
(-3.93474e-05 -2.10893e-07 0.113791)
(3.18599e-06 5.86784e-05 0.1118)
(-1.24338e-05 -1.11022e-05 0.11168)
(-3.71119e-06 -8.64418e-06 0.111932)
(-3.49618e-06 -1.31267e-05 0.112119)
(-8.17737e-06 -1.93198e-05 0.112252)
(-1.31982e-05 -2.74897e-05 0.11234)
(-8.42059e-06 -3.24597e-05 0.112377)
(-1.03307e-05 -3.77948e-05 0.112382)
(-6.70367e-07 -4.01789e-05 0.112379)
(-0.00493832 -0.00432835 0.0264509)
(-0.000367877 3.06817e-05 0.0875772)
(9.23866e-05 -9.55154e-05 0.113543)
(-9.25532e-05 3.65678e-06 0.112688)
(1.76154e-05 8.23709e-06 0.111824)
(-9.47835e-06 -3.48515e-06 0.111933)
(3.68513e-06 4.07018e-06 0.112089)
(-5.8036e-06 -4.02588e-06 0.1122)
(2.8195e-06 -4.30864e-06 0.112293)
(-2.52896e-06 -1.95771e-06 0.112367)
(2.17252e-06 -1.49978e-06 0.11241)
(-1.89309e-06 1.85005e-06 0.112431)
(1.16515e-06 2.30878e-06 0.11244)
(-0.00166022 0.000616575 0.0143385)
(-0.000336158 -0.000389661 0.0720228)
(0.000272 9.41498e-05 0.112123)
(-3.42145e-05 -5.16765e-05 0.114273)
(-6.3541e-08 2.94095e-05 0.112235)
(-3.14923e-07 6.34363e-06 0.112006)
(-1.46225e-05 -1.62208e-06 0.112119)
(-4.25414e-06 -5.41317e-06 0.112201)
(-1.16913e-05 -1.07872e-05 0.112276)
(-5.99062e-06 -1.3583e-05 0.112348)
(-1.03349e-05 -1.78014e-05 0.11241)
(-4.64642e-06 -1.99194e-05 0.112454)
(-6.56795e-06 -2.22257e-05 0.11248)
(-1.19954e-07 -2.32351e-05 0.112493)
(-0.00433606 -0.00363539 0.0215739)
(-0.000276055 0.000191096 0.0885665)
(5.3453e-05 -0.000182725 0.114032)
(-5.42516e-05 7.3654e-05 0.113147)
(-3.33348e-05 -2.3552e-05 0.112197)
(-7.82464e-06 1.6765e-05 0.112202)
(-2.07899e-05 -9.46147e-06 0.112252)
(-5.67092e-06 2.94555e-06 0.112293)
(-1.39758e-05 -6.08499e-06 0.112348)
(-4.20506e-06 -3.44321e-06 0.112406)
(-8.86471e-06 -5.95484e-06 0.11246)
(-2.24775e-06 -5.25565e-06 0.112501)
(-5.19541e-06 -5.7253e-06 0.112528)
(3.01619e-07 -5.54828e-06 0.112542)
(-0.000493905 -0.000344211 0.0751921)
(0.000385416 0.000153697 0.113414)
(-0.000134145 -0.000126857 0.114781)
(5.56722e-05 3.90838e-05 0.112616)
(-5.17104e-05 -3.20462e-05 0.112296)
(1.60252e-05 8.56205e-06 0.112329)
(-2.85948e-05 -1.37539e-05 0.112339)
(-9.97569e-07 -3.12947e-06 0.112366)
(-1.80756e-05 -1.07845e-05 0.11241)
(-5.86143e-06 -9.02177e-06 0.11246)
(-1.21391e-05 -1.25318e-05 0.11251)
(-4.41652e-06 -1.27398e-05 0.11255)
(-6.86043e-06 -1.42044e-05 0.112579)
(9.1793e-08 -1.44144e-05 0.112594)