/*--------------------------------*- C++ -*----------------------------------*\
| =========                 |                                                 |
| \\      /  F ield         | OpenFOAM: The Open Source CFD Toolbox           |
|  \\    /   O peration     | Version:  2.1.1                                 |
|   \\  /    A nd           | Web:      www.OpenFOAM.org                      |
|    \\/     M anipulation  |                                                 |
\*---------------------------------------------------------------------------*/
FoamFile
{
    version     2.0;
    format      ascii;
    class       volScalarField;
    location    "0.195";
    object      p;
}
// * * * * * * * * * * * * * * * * * * * * * * * * * * * * * * * * * * * * * //

dimensions      [0 2 -2 0 0 0 0];

internalField   nonuniform List<scalar> 
163952
(
0.0416736
0.0410973
0.0363615
0.0311667
0.0299699
0.0273585
0.0267683
0.0264447
0.0366816
0.0323395
0.027298
0.0248082
0.0235645
0.0227855
0.0224711
0.0223299
0.0337128
0.0279759
0.0244722
0.0228324
0.0219197
0.0213818
0.021043
0.0208627
0.0207771
0.0335826
0.0260837
0.0232493
0.0219026
0.0211472
0.0206683
0.0203486
0.0201369
0.0200107
0.0199471
0.0335839
0.0255417
0.022725
0.0214467
0.0207317
0.0202678
0.0199437
0.0197128
0.0195532
0.0194526
0.0194001
0.0337131
0.0260838
0.022725
0.0213032
0.0205405
0.0200516
0.0197059
0.0194519
0.0192651
0.019133
0.0190473
0.0190018
0.0366814
0.0279759
0.0232493
0.0214467
0.0205405
0.019982
0.0195935
0.0193066
0.0190908
0.0189301
0.018815
0.0187395
0.0186989
0.0323397
0.0244722
0.0219027
0.0207318
0.0200516
0.0195935
0.0192597
0.0190078
0.0188163
0.0186729
0.0185696
0.0185013
0.0184644
0.0363616
0.0272981
0.0228325
0.0211473
0.0202679
0.019706
0.0193067
0.0190078
0.0187796
0.0186051
0.0184739
0.018379
0.018316
0.0182819
0.0311669
0.0248083
0.0219199
0.0206684
0.0199438
0.0194519
0.0190909
0.0188164
0.0186051
0.0184429
0.0183205
0.0182318
0.0181727
0.0181406
0.0299701
0.0235647
0.0213819
0.0203487
0.0197129
0.0192652
0.0189302
0.018673
0.0184739
0.0183205
0.0182045
0.0181202
0.0180639
0.0180333
0.0273587
0.0227857
0.0210432
0.020137
0.0195533
0.0191331
0.0188152
0.0185697
0.0183791
0.0182318
0.0181202
0.0180389
0.0179847
0.0179551
0.0416738
0.0267686
0.0224713
0.0208629
0.0200108
0.0194527
0.0190475
0.0187396
0.0185014
0.0183161
0.0181728
0.0180639
0.0179847
0.0179317
0.0179028
0.0410976
0.0264449
0.0223301
0.0207774
0.0199473
0.0194003
0.019002
0.0186991
0.0184646
0.0182821
0.0181407
0.0180334
0.0179552
0.0179028
0.0178744
0.0234997
0.0235565
0.0224945
0.0237038
0.0224348
0.0221206
0.0220757
0.0220549
0.0225993
0.0244133
0.0221005
0.0217881
0.0215275
0.0213366
0.0212618
0.02121
0.0233775
0.0221524
0.0217343
0.0213223
0.0209814
0.0207027
0.0205178
0.0204217
0.0203722
0.022122
0.0218316
0.0213942
0.0209528
0.02056
0.0202486
0.0200123
0.0198525
0.0197603
0.019716
0.0221227
0.0217023
0.0212101
0.020706
0.0202789
0.0199363
0.0196766
0.0194852
0.0193534
0.019273
0.0192344
0.0233777
0.0218318
0.0212101
0.020626
0.020137
0.0197588
0.0194695
0.0192515
0.0190906
0.0189781
0.0189077
0.0188737
0.0225995
0.0221525
0.0213943
0.0207061
0.020137
0.0197002
0.0193706
0.01912
0.0189305
0.01879
0.0186909
0.018628
0.0185974
0.0244134
0.0217344
0.0209529
0.020279
0.0197589
0.0193706
0.0190776
0.0188542
0.0186844
0.018558
0.0184683
0.0184109
0.0183828
0.0224946
0.0221006
0.0213224
0.02056
0.0199364
0.0194695
0.0191201
0.0188542
0.0186503
0.0184946
0.0183781
0.0182951
0.0182417
0.0182156
0.0237039
0.0217883
0.0209815
0.0202488
0.0196767
0.0192515
0.0189306
0.0186845
0.0184946
0.0183489
0.0182396
0.0181614
0.018111
0.0180863
0.022435
0.0215276
0.0207028
0.0200124
0.0194854
0.0190907
0.0187901
0.0185581
0.0183782
0.0182396
0.0181353
0.0180606
0.0180124
0.0179887
0.0221208
0.0213368
0.020518
0.0198527
0.0193535
0.0189783
0.0186911
0.0184684
0.0182952
0.0181615
0.0180607
0.0179883
0.0179416
0.0179186
0.0234999
0.022076
0.021262
0.0204219
0.0197605
0.0192732
0.0189079
0.0186281
0.018411
0.0182418
0.0181111
0.0180124
0.0179416
0.0178958
0.0178733
0.0235567
0.0220551
0.0212102
0.0203724
0.0197162
0.0192347
0.0188739
0.0185976
0.018383
0.0182157
0.0180864
0.0179888
0.0179187
0.0178733
0.017851
0.019856
0.0198703
0.0199353
0.0203172
0.0205408
0.0204251
0.0203175
0.0202769
0.0199422
0.0207862
0.020336
0.0202579
0.020163
0.0201241
0.0200946
0.0200692
0.0201526
0.0203499
0.0202494
0.0201288
0.0199919
0.0198473
0.0197559
0.0197008
0.0196703
0.0204999
0.0202829
0.0201577
0.0199776
0.0197855
0.0196195
0.0194796
0.0193795
0.0193171
0.0192858
0.0205007
0.0202377
0.0200846
0.0198628
0.0196378
0.019435
0.0192687
0.0191373
0.0190425
0.0189825
0.0189529
0.0201527
0.0202831
0.0200846
0.0198249
0.0195589
0.0193251
0.0191285
0.0189701
0.0188472
0.0187587
0.018702
0.0186741
0.0199423
0.0203501
0.0201578
0.0198629
0.0195589
0.0192877
0.0190592
0.0188717
0.0187224
0.0186079
0.0185252
0.0184719
0.0184458
0.0207863
0.0202496
0.0199777
0.0196378
0.0193252
0.0190592
0.0188393
0.0186613
0.0185207
0.0184133
0.0183358
0.0182856
0.0182609
0.0199354
0.0203361
0.0201289
0.0197856
0.0194351
0.0191286
0.0188717
0.0186613
0.0184922
0.018359
0.0182574
0.0181839
0.0181363
0.0181129
0.0203173
0.020258
0.0199921
0.0196197
0.0192688
0.0189702
0.0187225
0.0185208
0.018359
0.0182318
0.0181347
0.0180645
0.0180189
0.0179964
0.020541
0.0201631
0.0198475
0.0194798
0.0191374
0.0188474
0.018608
0.0184134
0.0182574
0.0181347
0.018041
0.0179732
0.0179292
0.0179075
0.0204253
0.0201243
0.0197561
0.0193796
0.0190427
0.0187588
0.0185253
0.0183358
0.018184
0.0180645
0.0179732
0.0179072
0.0178642
0.017843
0.0198562
0.0203177
0.0200949
0.019701
0.0193173
0.0189827
0.0187021
0.0184721
0.0182857
0.0181364
0.018019
0.0179292
0.0178642
0.017822
0.0178012
0.0198706
0.0202772
0.0200695
0.0196706
0.019286
0.0189531
0.0186743
0.0184459
0.0182611
0.0181131
0.0179966
0.0179075
0.0178431
0.0178012
0.0177805
0.0185089
0.0185192
0.0186263
0.0188532
0.0191843
0.0191839
0.0191313
0.0191093
0.0186413
0.0190673
0.0191074
0.0190948
0.0190654
0.0190667
0.0190654
0.0190618
0.0187822
0.0191114
0.0190988
0.0190916
0.0190627
0.0190108
0.0189749
0.0189495
0.0189351
0.0192147
0.0191147
0.0191085
0.0190581
0.0189918
0.0189273
0.0188644
0.0188144
0.0187797
0.0187613
0.0192153
0.019095
0.0190898
0.0190266
0.0189369
0.0188434
0.0187574
0.0186827
0.0186255
0.0185872
0.0185678
0.0187822
0.0191148
0.0190898
0.0190153
0.0189063
0.0187899
0.0186794
0.0185822
0.0185016
0.018441
0.0184009
0.0183808
0.0186414
0.0191115
0.0191086
0.0190267
0.0189063
0.0187713
0.018639
0.0185193
0.0184173
0.0183351
0.0182738
0.0182334
0.0182133
0.0190673
0.0190989
0.0190582
0.018937
0.01879
0.0186391
0.0184981
0.0183745
0.0182714
0.0181895
0.0181289
0.018089
0.0180692
0.0186264
0.0191075
0.0190917
0.0189919
0.0188435
0.0186795
0.0185193
0.0183745
0.0182502
0.0181477
0.018067
0.0180074
0.0179683
0.0179489
0.0188534
0.0190949
0.0190628
0.0189275
0.0187575
0.0185823
0.0184174
0.0182714
0.0181477
0.0180465
0.0179672
0.0179088
0.0178705
0.0178515
0.0191845
0.0190656
0.019011
0.0188645
0.0186828
0.0185017
0.0183352
0.0181896
0.018067
0.0179673
0.0178892
0.0178319
0.0177942
0.0177756
0.0191841
0.0190669
0.0189751
0.0188146
0.0186257
0.0184411
0.0182739
0.018129
0.0180075
0.0179089
0.0178319
0.0177754
0.0177383
0.0177199
0.0185091
0.0191315
0.0190656
0.0189497
0.0187799
0.0185874
0.0184011
0.0182335
0.0180891
0.0179684
0.0178706
0.0177943
0.0177383
0.0177016
0.0176834
0.0185195
0.0191096
0.0190621
0.0189354
0.0187615
0.018568
0.018381
0.0182135
0.0180693
0.017949
0.0178516
0.0177757
0.01772
0.0176834
0.0176653
0.017791
0.0177991
0.0178523
0.0180008
0.0182175
0.0182608
0.0182511
0.0182495
0.0178774
0.0181099
0.0182178
0.0182368
0.0182422
0.0182544
0.0182625
0.018267
0.0179673
0.0182194
0.0182455
0.0182785
0.0182967
0.018296
0.0182928
0.0182866
0.0182823
0.0182519
0.0182414
0.0182852
0.0182983
0.0182983
0.0182905
0.018275
0.0182587
0.0182448
0.0182368
0.0182522
0.0182361
0.018292
0.0183072
0.0182945
0.0182691
0.0182374
0.0182043
0.0181764
0.0181562
0.0181456
0.0179673
0.0182415
0.018292
0.0183098
0.0182915
0.0182521
0.0182041
0.0181551
0.0181103
0.0180745
0.0180497
0.018037
0.0178775
0.0182195
0.0182853
0.0183073
0.0182916
0.018246
0.0181855
0.0181213
0.018061
0.0180091
0.0179687
0.0179412
0.0179273
0.0181099
0.0182456
0.0182984
0.0182946
0.0182522
0.0181855
0.0181095
0.0180348
0.0179677
0.0179117
0.0178687
0.0178398
0.0178252
0.0178524
0.0182179
0.0182786
0.0182984
0.0182692
0.0182042
0.0181213
0.0180348
0.0179536
0.0178825
0.0178241
0.0177799
0.0177502
0.0177354
0.018001
0.0182369
0.0182968
0.0182906
0.0182375
0.0181552
0.0180611
0.0179678
0.0178825
0.0178092
0.0177496
0.0177047
0.0176748
0.0176598
0.0182177
0.0182423
0.0182962
0.0182751
0.0182045
0.0181104
0.0180092
0.0179117
0.0178242
0.0177497
0.0176896
0.0176444
0.0176144
0.0175994
0.018261
0.0182546
0.018293
0.0182589
0.0181765
0.0180746
0.0179688
0.0178688
0.0177799
0.0177048
0.0176445
0.0175992
0.0175692
0.0175542
0.0177912
0.0182514
0.0182627
0.0182868
0.018245
0.0181564
0.0180499
0.0179414
0.0178399
0.0177503
0.0176749
0.0176144
0.0175692
0.0175392
0.0175242
0.0177994
0.0182498
0.0182672
0.0182825
0.0182371
0.0181458
0.0180372
0.0179275
0.0178254
0.0177355
0.0176599
0.0175995
0.0175543
0.0175243
0.0175093
0.017281
0.0172876
0.0173004
0.0173933
0.0175188
0.0175689
0.0175739
0.01758
0.0173228
0.0174669
0.017549
0.0175799
0.0176011
0.0176203
0.0176307
0.0176366
0.0173778
0.0175496
0.017591
0.0176349
0.0176686
0.0176891
0.0177027
0.0177083
0.01771
0.0175501
0.0175769
0.017635
0.0176733
0.0177022
0.0177217
0.0177317
0.0177357
0.0177358
0.017735
0.0175503
0.0175811
0.0176517
0.0176974
0.0177226
0.0177352
0.0177372
0.0177323
0.0177253
0.0177188
0.017715
0.0173778
0.017577
0.0176516
0.0177059
0.0177332
0.0177401
0.0177339
0.0177199
0.0177026
0.0176867
0.0176748
0.0176684
0.0173229
0.0175497
0.0176351
0.0176974
0.0177332
0.0177415
0.0177304
0.0177081
0.0176812
0.0176548
0.0176325
0.0176166
0.0176083
0.017467
0.0175911
0.0176734
0.0177227
0.0177401
0.0177304
0.0177035
0.0176687
0.0176325
0.0175995
0.0175729
0.0175543
0.0175448
0.0173005
0.0175491
0.017635
0.0177023
0.0177352
0.017734
0.0177081
0.0176687
0.0176245
0.0175818
0.0175444
0.0175149
0.0174946
0.0174842
0.0173934
0.01758
0.0176688
0.0177218
0.0177373
0.0177199
0.0176813
0.0176325
0.0175819
0.0175347
0.0174944
0.0174629
0.0174414
0.0174306
0.0175189
0.0176012
0.0176892
0.0177318
0.0177324
0.0177027
0.0176549
0.0175996
0.0175445
0.0174944
0.0174522
0.0174195
0.0173973
0.0173861
0.0175691
0.0176204
0.0177029
0.0177359
0.0177254
0.0176869
0.0176326
0.017573
0.017515
0.017463
0.0174195
0.0173861
0.0173635
0.0173521
0.0172812
0.0175742
0.0176309
0.0177085
0.017736
0.017719
0.0176749
0.0176168
0.0175544
0.0174947
0.0174415
0.0173974
0.0173635
0.0173406
0.0173291
0.0172879
0.0175802
0.0176369
0.0177103
0.0177353
0.0177153
0.0176686
0.0176085
0.017545
0.0174844
0.0174307
0.0173862
0.0173521
0.0173292
0.0173176
0.0168477
0.0168551
0.0168485
0.0169081
0.0169753
0.0170211
0.0170301
0.0170378
0.0168666
0.0169679
0.0170153
0.0170465
0.0170715
0.0170941
0.0171061
0.0171127
0.016901
0.0170156
0.017059
0.0171029
0.0171391
0.0171656
0.0171861
0.0171975
0.0172027
0.0170025
0.0170412
0.0170997
0.0171451
0.0171841
0.0172151
0.0172373
0.0172523
0.0172606
0.0172642
0.0170027
0.0170487
0.017118
0.0171729
0.0172145
0.0172462
0.0172676
0.0172802
0.0172871
0.0172901
0.0172912
0.016901
0.0170412
0.017118
0.0171829
0.0172308
0.0172633
0.0172831
0.0172925
0.017295
0.017294
0.0172919
0.0172905
0.0168666
0.0170156
0.0170997
0.0171729
0.0172308
0.017269
0.0172894
0.0172963
0.0172944
0.0172879
0.0172803
0.017274
0.0172705
0.0169679
0.0170591
0.0171452
0.0172146
0.0172633
0.0172894
0.0172971
0.0172924
0.017281
0.0172672
0.0172545
0.017245
0.0172399
0.0168486
0.0170154
0.0171029
0.0171841
0.0172463
0.0172831
0.0172964
0.0172924
0.0172781
0.0172593
0.0172401
0.0172237
0.0172118
0.0172056
0.0169082
0.0170466
0.0171392
0.0172152
0.0172676
0.0172926
0.0172945
0.017281
0.0172593
0.0172349
0.0172119
0.0171928
0.0171793
0.0171723
0.0169754
0.0170716
0.0171657
0.0172374
0.0172803
0.0172951
0.017288
0.0172673
0.0172402
0.0172119
0.0171861
0.0171652
0.0171505
0.017143
0.0170212
0.0170943
0.0171862
0.0172525
0.0172872
0.0172941
0.0172805
0.0172547
0.0172238
0.0171929
0.0171652
0.017143
0.0171276
0.0171198
0.0168479
0.0170303
0.0171063
0.0171978
0.0172608
0.0172903
0.0172921
0.0172742
0.0172452
0.017212
0.0171794
0.0171506
0.0171277
0.0171118
0.0171037
0.0168554
0.0170381
0.017113
0.017203
0.0172644
0.0172914
0.0172907
0.0172707
0.0172401
0.0172058
0.0171724
0.0171431
0.0171198
0.0171038
0.0170956
0.0164577
0.0164656
0.0164556
0.0164943
0.0165268
0.0165648
0.0165744
0.0165819
0.0164689
0.0165462
0.0165679
0.0165952
0.0166186
0.0166409
0.0166532
0.0166601
0.0164919
0.0165681
0.016608
0.016648
0.0166819
0.0167083
0.01673
0.0167435
0.0167502
0.0165497
0.0165896
0.0166434
0.0166884
0.0167287
0.016763
0.0167898
0.0168098
0.0168222
0.0168281
0.0165498
0.0165973
0.0166603
0.0167151
0.0167619
0.0168016
0.0168325
0.0168549
0.01687
0.0168791
0.0168832
0.0164919
0.0165896
0.0166603
0.0167248
0.0167798
0.0168245
0.0168586
0.0168824
0.0168977
0.016907
0.0169119
0.016914
0.0164689
0.0165681
0.0166434
0.0167151
0.0167798
0.0168322
0.0168707
0.0168964
0.0169117
0.0169196
0.016923
0.0169241
0.0169243
0.0165463
0.016608
0.0166884
0.0167619
0.0168245
0.0168707
0.0169006
0.0169171
0.0169242
0.0169254
0.0169238
0.0169217
0.0169203
0.0164556
0.0165679
0.016648
0.0167287
0.0168016
0.0168586
0.0168964
0.0169172
0.0169252
0.0169251
0.0169209
0.0169154
0.0169108
0.0169081
0.0164944
0.0165953
0.016682
0.0167631
0.0168326
0.0168825
0.0169117
0.0169242
0.0169252
0.0169195
0.0169111
0.0169026
0.0168961
0.0168925
0.0165269
0.0166187
0.0167084
0.0167899
0.0168549
0.0168978
0.0169196
0.0169254
0.016921
0.0169111
0.0168995
0.0168889
0.016881
0.0168768
0.0165649
0.0166411
0.0167302
0.01681
0.0168702
0.0169071
0.0169231
0.016924
0.0169155
0.0169027
0.016889
0.0168769
0.016868
0.0168634
0.0164579
0.0165746
0.0166534
0.0167438
0.0168224
0.0168793
0.0169121
0.0169243
0.0169219
0.0169109
0.0168962
0.0168811
0.0168681
0.0168586
0.0168537
0.0164659
0.0165822
0.0166604
0.0167505
0.0168284
0.0168835
0.0169143
0.0169245
0.0169205
0.0169083
0.0168927
0.0168769
0.0168635
0.0168538
0.0168487
0.0161025
0.0161099
0.0161025
0.0161282
0.0161403
0.0161706
0.0161793
0.0161859
0.0161124
0.0161741
0.0161787
0.0162016
0.0162218
0.0162418
0.0162531
0.0162597
0.016129
0.0161791
0.016214
0.016249
0.016279
0.016303
0.0163234
0.0163367
0.0163435
0.0161599
0.0161968
0.0162442
0.0162855
0.0163234
0.0163568
0.016384
0.0164052
0.0164189
0.0164258
0.0161599
0.0162037
0.016259
0.0163097
0.0163557
0.0163968
0.0164312
0.0164578
0.0164771
0.0164894
0.0164953
0.016129
0.0161968
0.016259
0.0163184
0.0163731
0.0164215
0.0164621
0.0164935
0.0165163
0.0165319
0.0165414
0.0165458
0.0161123
0.0161791
0.0162442
0.0163097
0.0163731
0.01643
0.0164772
0.0165134
0.0165394
0.0165569
0.016568
0.0165743
0.0165772
0.0161741
0.016214
0.0162855
0.0163556
0.0164215
0.0164772
0.0165198
0.0165498
0.0165695
0.0165816
0.0165884
0.0165919
0.0165933
0.0161025
0.0161787
0.016249
0.0163234
0.0163968
0.0164621
0.0165135
0.0165499
0.0165733
0.0165871
0.0165943
0.0165974
0.0165985
0.0165988
0.0161282
0.0162016
0.016279
0.0163568
0.0164312
0.0164935
0.0165394
0.0165696
0.0165871
0.0165958
0.016599
0.0165993
0.0165985
0.0165978
0.0161404
0.0162219
0.0163031
0.016384
0.0164579
0.0165164
0.016557
0.0165816
0.0165943
0.016599
0.0165991
0.0165972
0.016595
0.0165936
0.0161707
0.0162419
0.0163235
0.0164053
0.0164773
0.016532
0.0165681
0.0165885
0.0165975
0.0165993
0.0165972
0.0165937
0.0165905
0.0165887
0.0161026
0.0161795
0.0162533
0.0163369
0.0164191
0.0164896
0.0165415
0.0165745
0.016592
0.0165987
0.0165986
0.0165951
0.0165906
0.0165867
0.0165846
0.01611
0.0161862
0.01626
0.0163438
0.0164261
0.0164956
0.016546
0.0165774
0.0165935
0.016599
0.0165979
0.0165937
0.0165888
0.0165846
0.0165823
0.0157765
0.0157828
0.0157793
0.015797
0.0157962
0.0158201
0.0158274
0.0158328
0.0157868
0.0158375
0.0158308
0.0158496
0.0158665
0.0158835
0.0158932
0.0158989
0.0157998
0.0158315
0.0158614
0.0158913
0.0159171
0.0159379
0.0159558
0.0159678
0.0159741
0.0158134
0.0158461
0.0158871
0.0159235
0.0159573
0.0159877
0.016013
0.0160332
0.0160468
0.0160536
0.0158135
0.0158522
0.0158998
0.0159447
0.0159869
0.016026
0.0160599
0.0160873
0.0161079
0.0161214
0.0161281
0.0157997
0.0158461
0.0158998
0.0159524
0.0160029
0.0160503
0.016092
0.0161263
0.0161526
0.0161714
0.0161834
0.0161892
0.0157868
0.0158314
0.015887
0.0159447
0.0160029
0.0160586
0.0161081
0.016149
0.0161807
0.0162039
0.0162198
0.0162295
0.0162342
0.0158374
0.0158613
0.0159234
0.0159869
0.0160502
0.0161081
0.0161565
0.0161941
0.0162217
0.0162408
0.0162534
0.0162609
0.0162644
0.0157792
0.0158307
0.0158913
0.0159572
0.016026
0.016092
0.016149
0.0161941
0.0162273
0.0162504
0.0162656
0.0162752
0.0162806
0.0162831
0.0157969
0.0158496
0.0159171
0.0159877
0.0160599
0.0161263
0.0161808
0.0162217
0.0162504
0.0162694
0.0162812
0.0162882
0.0162919
0.0162935
0.0157962
0.0158665
0.0159379
0.0160131
0.0160874
0.0161526
0.0162039
0.0162409
0.0162657
0.0162813
0.0162904
0.0162953
0.0162977
0.0162986
0.0158202
0.0158836
0.0159559
0.0160333
0.0161081
0.0161716
0.0162199
0.0162535
0.0162753
0.0162882
0.0162953
0.0162988
0.0163002
0.0163006
0.0157766
0.0158276
0.0158933
0.015968
0.016047
0.0161216
0.0161836
0.0162297
0.0162611
0.0162808
0.016292
0.0162978
0.0163002
0.016301
0.0163012
0.0157829
0.0158331
0.0158992
0.0159744
0.0160539
0.0161283
0.0161895
0.0162344
0.0162646
0.0162833
0.0162937
0.0162987
0.0163007
0.0163012
0.0163013
0.015474
0.0154791
0.0154791
0.0154919
0.0154823
0.0155011
0.0155068
0.0155111
0.0154851
0.0155275
0.015513
0.0155285
0.0155423
0.0155562
0.015564
0.0155688
0.0154958
0.0155143
0.0155396
0.0155649
0.0155866
0.0156039
0.0156189
0.0156291
0.0156345
0.0154979
0.0155265
0.0155615
0.0155928
0.015622
0.0156485
0.0156708
0.0156888
0.0157011
0.0157074
0.0154979
0.0155317
0.0155724
0.0156112
0.0156483
0.0156834
0.0157147
0.0157406
0.0157606
0.0157739
0.0157805
0.0154956
0.0155264
0.0155723
0.0156177
0.0156625
0.0157059
0.0157456
0.0157795
0.0158064
0.0158263
0.0158393
0.0158456
0.015485
0.0155141
0.0155614
0.0156111
0.0156625
0.0157137
0.0157614
0.0158029
0.0158366
0.0158623
0.0158807
0.0158924
0.015898
0.0155274
0.0155394
0.0155927
0.0156482
0.0157059
0.0157614
0.0158107
0.0158513
0.0158829
0.0159062
0.0159224
0.0159324
0.0159373
0.015479
0.0155128
0.0155647
0.0156219
0.0156833
0.0157456
0.0158029
0.0158513
0.0158896
0.0159183
0.0159388
0.0159526
0.0159611
0.0159651
0.0154918
0.0155284
0.0155864
0.0156484
0.0157147
0.0157795
0.0158366
0.0158829
0.0159183
0.015944
0.0159618
0.0159736
0.0159806
0.0159839
0.0154822
0.0155423
0.0156039
0.0156708
0.0157407
0.0158064
0.0158624
0.0159063
0.0159388
0.0159619
0.0159775
0.0159875
0.0159934
0.0159961
0.0155012
0.0155563
0.015619
0.0156889
0.0157607
0.0158264
0.0158808
0.0159225
0.0159527
0.0159737
0.0159875
0.0159963
0.0160013
0.0160036
0.015474
0.0155069
0.0155641
0.0156292
0.0157013
0.0157741
0.0158394
0.0158925
0.0159326
0.0159612
0.0159807
0.0159935
0.0160014
0.0160058
0.0160078
0.0154792
0.0155114
0.0155691
0.0156348
0.0157077
0.0157808
0.0158459
0.0158983
0.0159375
0.0159653
0.0159841
0.0159962
0.0160037
0.0160079
0.0160098
0.0151898
0.0151937
0.0151968
0.0152075
0.0151908
0.0152055
0.0152094
0.0152129
0.0152019
0.0152382
0.0152183
0.0152309
0.015242
0.0152529
0.0152586
0.0152625
0.0152111
0.0152202
0.0152415
0.0152626
0.0152804
0.0152944
0.0153063
0.0153143
0.0153187
0.0152054
0.0152305
0.0152602
0.0152867
0.0153112
0.0153333
0.015352
0.0153671
0.0153775
0.0153829
0.0152054
0.0152348
0.0152695
0.0153023
0.0153339
0.0153641
0.0153915
0.0154145
0.0154325
0.0154446
0.0154508
0.0152109
0.0152304
0.0152694
0.0153079
0.0153462
0.0153841
0.0154198
0.0154511
0.0154766
0.0154958
0.0155086
0.0155149
0.0152016
0.01522
0.01526
0.0153022
0.0153461
0.0153911
0.0154345
0.0154736
0.0155065
0.0155325
0.0155516
0.015564
0.01557
0.0152379
0.0152412
0.0152864
0.0153337
0.015384
0.0154344
0.0154811
0.0155214
0.0155542
0.0155792
0.0155971
0.0156086
0.0156141
0.0151965
0.015218
0.0152623
0.0153109
0.0153639
0.0154197
0.0154735
0.0155214
0.0155613
0.0155926
0.0156159
0.0156323
0.0156427
0.0156477
0.0152072
0.0152306
0.0152802
0.0153331
0.0153913
0.015451
0.0155065
0.0155542
0.0155926
0.015622
0.0156436
0.0156585
0.0156677
0.0156722
0.0151906
0.0152418
0.0152942
0.0153519
0.0154144
0.0154766
0.0155325
0.0155792
0.015616
0.0156436
0.0156635
0.0156771
0.0156854
0.0156894
0.0152055
0.0152528
0.0153063
0.0153671
0.0154325
0.0154959
0.0155517
0.0155972
0.0156324
0.0156585
0.0156771
0.0156896
0.0156973
0.015701
0.0151897
0.0152095
0.0152587
0.0153144
0.0153777
0.0154448
0.0155088
0.0155641
0.0156087
0.0156428
0.0156679
0.0156855
0.0156974
0.0157046
0.015708
0.0151939
0.0152131
0.0152628
0.015319
0.0153832
0.0154511
0.0155152
0.0155703
0.0156144
0.0156479
0.0156724
0.0156896
0.0157011
0.0157081
0.0157113
0.0149195
0.0149226
0.0149284
0.0149377
0.0149166
0.014928
0.0149299
0.0149324
0.0149331
0.0149652
0.0149418
0.0149519
0.0149602
0.0149682
0.0149719
0.0149747
0.0149415
0.0149444
0.0149622
0.0149795
0.0149936
0.0150042
0.0150128
0.0150185
0.0150217
0.0149308
0.014953
0.0149782
0.015
0.0150198
0.0150374
0.0150521
0.0150639
0.015072
0.0150763
0.0149307
0.0149563
0.0149859
0.015013
0.0150389
0.0150637
0.0150863
0.0151056
0.0151207
0.0151311
0.0151364
0.0149412
0.0149528
0.0149858
0.0150176
0.0150492
0.0150808
0.0151112
0.0151384
0.0151612
0.0151786
0.0151903
0.0151962
0.0149326
0.0149439
0.0149779
0.0150128
0.0150491
0.0150867
0.0151242
0.0151591
0.0151893
0.0152139
0.0152322
0.0152444
0.0152504
0.0149647
0.0149617
0.0149996
0.0150387
0.0150807
0.0151241
0.015166
0.0152036
0.0152352
0.0152601
0.0152783
0.0152902
0.0152961
0.0149279
0.0149413
0.014979
0.0150194
0.0150634
0.015111
0.015159
0.0152036
0.0152422
0.0152738
0.0152982
0.0153158
0.0153271
0.0153326
0.0149372
0.0149514
0.0149932
0.0150371
0.0150861
0.0151383
0.0151893
0.0152351
0.0152738
0.0153047
0.0153281
0.0153448
0.0153554
0.0153606
0.0149162
0.0149599
0.0150038
0.0150519
0.0151054
0.0151611
0.0152139
0.0152601
0.0152982
0.0153281
0.0153505
0.0153663
0.0153763
0.0153811
0.0149278
0.014968
0.0150127
0.0150638
0.0151207
0.0151786
0.0152323
0.0152784
0.0153159
0.0153448
0.0153663
0.0153814
0.0153909
0.0153954
0.0149194
0.0149299
0.0149719
0.0150185
0.0150721
0.0151312
0.0151905
0.0152446
0.0152904
0.0153272
0.0153555
0.0153764
0.0153909
0.0154001
0.0154045
0.0149227
0.0149327
0.014975
0.015022
0.0150766
0.0151367
0.0151965
0.0152507
0.0152964
0.0153329
0.0153608
0.0153813
0.0153956
0.0154045
0.0154089
0.01466
0.0146623
0.0146715
0.0146796
0.0146566
0.0146649
0.0146642
0.0146659
0.014676
0.0147053
0.0146801
0.014688
0.0146935
0.0146983
0.0146996
0.0147014
0.014684
0.0146834
0.0146982
0.0147119
0.0147224
0.0147293
0.0147344
0.0147374
0.0147394
0.0146709
0.0146905
0.0147116
0.014729
0.014744
0.014757
0.0147673
0.0147753
0.0147807
0.0147837
0.0146708
0.0146926
0.0147178
0.0147394
0.0147594
0.0147784
0.0147957
0.0148105
0.0148222
0.0148303
0.0148345
0.0146835
0.0146902
0.0147176
0.014743
0.0147675
0.0147923
0.0148165
0.0148388
0.0148577
0.0148725
0.0148826
0.0148877
0.0146754
0.0146827
0.0147112
0.0147391
0.0147674
0.014797
0.0148275
0.0148568
0.014883
0.0149049
0.0149217
0.0149329
0.0149385
0.0147045
0.0146975
0.0147284
0.014759
0.014792
0.0148274
0.0148629
0.014896
0.0149249
0.0149484
0.014966
0.0149776
0.0149833
0.0146707
0.0146792
0.0147112
0.0147434
0.0147779
0.0148162
0.0148566
0.014896
0.0149316
0.0149618
0.0149858
0.0150035
0.015015
0.0150207
0.0146789
0.0146872
0.0147218
0.0147564
0.0147953
0.0148385
0.0148829
0.0149249
0.0149618
0.0149923
0.0150162
0.0150336
0.0150449
0.0150504
0.0146559
0.0146928
0.0147287
0.0147669
0.0148102
0.0148576
0.0149049
0.0149484
0.0149858
0.0150162
0.0150397
0.0150567
0.0150676
0.015073
0.0146644
0.0146979
0.0147341
0.0147751
0.0148221
0.0148725
0.0149217
0.014966
0.0150035
0.0150337
0.0150567
0.0150733
0.0150839
0.0150891
0.0146597
0.0146641
0.0146995
0.0147374
0.0147808
0.0148304
0.0148827
0.0149331
0.0149778
0.0150152
0.0150451
0.0150677
0.0150839
0.0150943
0.0150994
0.0146624
0.0146661
0.0147017
0.0147397
0.014784
0.0148348
0.014888
0.0149388
0.0149837
0.015021
0.0150507
0.0150732
0.0150892
0.0150995
0.0151045
0.0144085
0.0144099
0.0144237
0.0144313
0.0144093
0.0144136
0.0144096
0.0144104
0.0144283
0.0144564
0.0144311
0.0144368
0.014439
0.01444
0.0144385
0.0144392
0.0144365
0.0144352
0.0144472
0.0144571
0.0144638
0.0144665
0.0144673
0.0144672
0.0144678
0.0144237
0.0144406
0.0144578
0.0144706
0.0144804
0.0144882
0.0144937
0.0144974
0.0144998
0.0145013
0.0144235
0.0144412
0.0144621
0.014478
0.0144917
0.0145043
0.0145159
0.0145257
0.0145335
0.014539
0.0145418
0.0144357
0.0144401
0.0144619
0.0144805
0.0144974
0.0145146
0.0145321
0.0145488
0.0145634
0.014575
0.014583
0.0145872
0.0144273
0.0144343
0.0144571
0.0144775
0.0144972
0.0145181
0.0145407
0.0145636
0.0145851
0.0146036
0.0146181
0.014628
0.014633
0.0144552
0.0144461
0.0144697
0.0144911
0.0145143
0.0145406
0.0145687
0.0145965
0.0146217
0.0146429
0.0146591
0.01467
0.0146755
0.0144224
0.0144297
0.014456
0.0144795
0.0145036
0.0145317
0.0145634
0.0145964
0.0146278
0.0146555
0.0146782
0.0146953
0.0147067
0.0147123
0.0144301
0.0144355
0.0144627
0.0144874
0.0145153
0.0145484
0.0145849
0.0146216
0.0146555
0.0146846
0.014708
0.0147254
0.0147369
0.0147425
0.0144082
0.014438
0.0144656
0.014493
0.0145253
0.0145631
0.0146035
0.0146428
0.0146782
0.014708
0.0147316
0.014749
0.0147604
0.0147661
0.0144129
0.0144393
0.0144667
0.014497
0.0145333
0.0145749
0.0146181
0.0146592
0.0146954
0.0147255
0.0147491
0.0147664
0.0147777
0.0147832
0.014408
0.0144093
0.0144382
0.0144671
0.0144998
0.014539
0.0145832
0.0146282
0.0146702
0.0147069
0.014737
0.0147606
0.0147777
0.0147889
0.0147944
0.01441
0.0144106
0.0144394
0.0144681
0.0145016
0.0145422
0.0145875
0.0146334
0.0146758
0.0147126
0.0147428
0.0147663
0.0147834
0.0147945
0.0148
0.0141619
0.0141624
0.0141825
0.014191
0.0141748
0.0141731
0.0141639
0.0141637
0.0141871
0.0142168
0.0141938
0.0141971
0.014195
0.0141903
0.0141852
0.0141846
0.0141967
0.0141991
0.0142078
0.0142127
0.0142149
0.0142124
0.0142078
0.014204
0.014203
0.0141892
0.0142017
0.0142142
0.0142216
0.0142253
0.0142273
0.0142273
0.0142261
0.0142252
0.0142251
0.0141889
0.0141996
0.014216
0.0142251
0.0142316
0.0142372
0.0142425
0.0142471
0.0142507
0.0142533
0.0142549
0.0141956
0.014201
0.0142156
0.0142264
0.0142346
0.0142436
0.0142538
0.0142645
0.0142745
0.0142828
0.0142888
0.0142919
0.0141856
0.0141977
0.0142132
0.0142244
0.0142343
0.0142456
0.0142599
0.0142761
0.0142925
0.0143074
0.0143194
0.0143279
0.0143321
0.014215
0.0142061
0.0142203
0.0142307
0.0142431
0.0142597
0.01428
0.014302
0.0143233
0.0143418
0.0143565
0.0143665
0.0143716
0.0141805
0.0141918
0.0142109
0.0142239
0.0142362
0.0142532
0.0142758
0.0143019
0.0143287
0.0143534
0.0143745
0.0143907
0.0144016
0.0144071
0.0141891
0.0141951
0.0142132
0.014226
0.0142416
0.014264
0.0142922
0.0143231
0.0143534
0.0143805
0.014403
0.0144201
0.0144315
0.0144372
0.014173
0.0141934
0.0142111
0.0142263
0.0142464
0.0142741
0.0143072
0.0143418
0.0143745
0.014403
0.0144263
0.0144438
0.0144554
0.0144611
0.0141718
0.0141892
0.0142069
0.0142255
0.0142503
0.0142826
0.0143194
0.0143565
0.0143908
0.0144202
0.0144438
0.0144615
0.0144731
0.0144789
0.0141611
0.0141632
0.0141847
0.0142037
0.014225
0.0142533
0.0142889
0.014328
0.0143667
0.0144019
0.0144317
0.0144555
0.0144732
0.0144848
0.0144906
0.0141623
0.0141638
0.0141848
0.0142033
0.0142254
0.0142553
0.0142923
0.0143326
0.014372
0.0144075
0.0144375
0.0144614
0.014479
0.0144907
0.0144964
0.0139156
0.0139155
0.0139437
0.0139568
0.0139571
0.0139424
0.013925
0.013924
0.0139479
0.0139853
0.0139681
0.0139681
0.0139594
0.0139458
0.0139358
0.013934
0.0139622
0.0139751
0.0139788
0.0139753
0.0139718
0.0139628
0.013951
0.0139427
0.01394
0.013977
0.013972
0.0139771
0.0139774
0.0139732
0.0139686
0.0139626
0.0139559
0.0139514
0.0139498
0.0139765
0.0139646
0.0139747
0.0139753
0.0139734
0.0139712
0.0139701
0.0139694
0.0139689
0.013969
0.0139693
0.0139606
0.013971
0.0139741
0.0139752
0.0139731
0.0139733
0.0139762
0.0139813
0.013987
0.0139923
0.0139964
0.0139986
0.0139457
0.013973
0.0139756
0.0139744
0.0139727
0.0139738
0.0139797
0.0139896
0.0140014
0.0140131
0.014023
0.0140301
0.0140338
0.0139826
0.0139764
0.0139755
0.0139722
0.0139726
0.0139794
0.0139925
0.0140092
0.0140269
0.0140432
0.0140564
0.0140657
0.0140704
0.0139406
0.013965
0.0139728
0.0139713
0.0139699
0.0139754
0.0139892
0.0140091
0.0140317
0.0140538
0.0140733
0.0140887
0.0140993
0.0141046
0.0139537
0.013965
0.0139693
0.0139668
0.0139688
0.0139805
0.014001
0.0140267
0.0140538
0.0140791
0.0141007
0.0141174
0.0141287
0.0141344
0.0139542
0.0139568
0.0139608
0.0139611
0.0139684
0.0139864
0.0140128
0.0140431
0.0140733
0.0141007
0.0141236
0.014141
0.0141527
0.0141585
0.0139404
0.0139441
0.0139496
0.0139549
0.0139683
0.013992
0.0140229
0.0140565
0.0140889
0.0141175
0.0141411
0.0141589
0.0141708
0.0141767
0.0139143
0.0139239
0.0139349
0.0139421
0.0139511
0.0139689
0.0139965
0.0140303
0.0140659
0.0140996
0.0141289
0.0141529
0.0141709
0.0141828
0.0141888
0.0139151
0.0139239
0.0139341
0.0139403
0.0139502
0.0139697
0.0139991
0.0140343
0.0140709
0.0141051
0.0141348
0.0141588
0.0141769
0.0141889
0.0141948
0.0136602
0.0136601
0.0136964
0.0137266
0.0137734
0.0137194
0.0136892
0.0136886
0.0136995
0.0137641
0.0137532
0.0137481
0.0137281
0.0137
0.0136838
0.0136811
0.0137301
0.0137621
0.0137575
0.0137381
0.0137263
0.0137091
0.0136885
0.0136754
0.0136715
0.0138129
0.0137551
0.0137381
0.0137293
0.0137152
0.0137032
0.0136911
0.0136793
0.0136719
0.0136692
0.0138122
0.0137426
0.0137328
0.0137195
0.0137082
0.013698
0.013691
0.0136861
0.0136825
0.0136807
0.0136804
0.0137278
0.0137537
0.0137321
0.0137185
0.0137044
0.013696
0.0136926
0.0136933
0.0136962
0.0136995