/*--------------------------------*- C++ -*----------------------------------*\
| =========                 |                                                 |
| \\      /  F ield         | OpenFOAM: The Open Source CFD Toolbox           |
|  \\    /   O peration     | Version:  2.1.1                                 |
|   \\  /    A nd           | Web:      www.OpenFOAM.org                      |
|    \\/     M anipulation  |                                                 |
\*---------------------------------------------------------------------------*/
FoamFile
{
    version     2.0;
    format      ascii;
    class       volVectorField;
    location    "0.0035";
    object      U;
}
// * * * * * * * * * * * * * * * * * * * * * * * * * * * * * * * * * * * * * //

dimensions      [0 1 -1 0 0 0 0];

internalField   nonuniform List<vector> 
10343
(
(-0.0131537 0.00496613 0.0631328)
(-0.00132453 0.000561744 0.0725044)
(0.00230776 -0.00721585 0.0533664)
(-0.00454823 -0.00688558 0.0628911)
(0.0024784 -0.00536576 0.0795895)
(-0.00212686 -0.00768091 0.0804151)
(-0.00428189 0.014019 0.0813692)
(-0.00133404 0.0160802 0.080474)
(0.000959325 -0.00404326 0.0557908)
(-0.00127694 -0.00886175 0.0774778)
(0.00696749 0.00411039 0.0800566)
(0.00250174 0.0053494 0.0777876)
(0.00204692 0.0029793 0.0805666)
(-8.66366e-08 0.00202049 0.0831802)
(-0.000114061 0.0050809 0.0838954)
(6.83463e-05 0.00662462 0.0840052)
(-0.00495722 -0.000175225 0.0621041)
(0.00197519 0.00769357 0.0821436)
(0.00157462 0.00806295 0.0786318)
(0.00443239 0.0060346 0.0802491)
(0.00311315 0.00429939 0.0823381)
(0.00225286 0.00297108 0.0837396)
(0.000666167 0.00233351 0.0845144)
(0.000230235 0.00265906 0.0847606)
(6.316e-05 0.00298092 0.0847691)
(-0.00096836 0.00284609 0.0771248)
(0.00224936 0.00937448 0.081249)
(0.00317463 0.00698371 0.0808949)
(0.00308177 0.00538191 0.0825585)
(0.00291918 0.00388439 0.0834845)
(0.00187483 0.00272169 0.0839798)
(0.00122875 0.00197908 0.0842741)
(0.000454877 0.00148159 0.0845424)
(0.000198517 0.00129844 0.0846858)
(2.21888e-05 0.00126783 0.0847401)
(0.00285184 -0.000961902 0.0771112)
(0.00390841 0.00390381 0.0843243)
(0.00379195 0.0051542 0.0838244)
(0.00246118 0.00378391 0.0840703)
(0.00179943 0.0028745 0.084159)
(0.0015506 0.00217654 0.084207)
(0.00104599 0.00176457 0.0843245)
(0.000742776 0.00144905 0.0844564)
(0.000354639 0.00127493 0.0846125)
(0.000186428 0.0011542 0.0847157)
(2.94106e-05 0.00111658 0.0847916)
(-0.000171783 -0.00495603 0.0620989)
(0.00938248 0.0022548 0.081245)
(0.00514904 0.00380179 0.0838173)
(0.00236743 0.0023742 0.0845818)
(0.00159736 0.00187799 0.084315)
(0.00116022 0.00159187 0.0842895)
(0.000997705 0.00133473 0.0843442)
(0.000700674 0.00119226 0.0844536)
(0.000533026 0.00105444 0.0845883)
(0.000291223 0.000953773 0.0847141)
(0.000166752 0.000871271 0.084811)
(2.86327e-05 0.000834741 0.0848876)
(-0.00404355 0.000956718 0.0557896)
(0.00769483 0.00197263 0.0821426)
(0.00698696 0.00317348 0.0808922)
(0.00378152 0.00246514 0.0840663)
(0.00187492 0.00159966 0.0843144)
(0.00124865 0.00124978 0.0843029)
(0.000922849 0.00111852 0.0843691)
(0.000773836 0.000997301 0.0844773)
(0.000564994 0.000927238 0.0845999)
(0.000435133 0.000850211 0.0847174)
(0.00026183 0.000799547 0.0848211)
(0.000151169 0.000754117 0.0849061)
(2.76999e-05 0.00073282 0.0849808)
(-0.00886036 -0.00127816 0.0774774)
(0.00806411 0.00157359 0.078631)
(0.00538303 0.00308154 0.0825565)
(0.00287371 0.00180115 0.084157)
(0.00159129 0.00116216 0.0842892)
(0.00111801 0.000923856 0.0843687)
(0.000826161 0.000826745 0.0844892)
(0.000674084 0.000753736 0.0846122)
(0.00049848 0.000705935 0.0847213)
(0.000381528 0.000656544 0.0848215)
(0.00023982 0.000621377 0.0849104)
(0.000137907 0.000590426 0.0849896)
(2.52115e-05 0.000573856 0.085062)
(-0.00721582 0.00230813 0.0533665)
(0.0041105 0.00696702 0.0800563)
(0.00603544 0.0044314 0.0802482)
(0.00388469 0.00291886 0.0834827)
(0.00217695 0.00155091 0.0842057)
(0.00133483 0.000998262 0.0843433)
(0.000997254 0.000774178 0.0844768)
(0.000753473 0.000674269 0.084612)
(0.000608256 0.000608257 0.0847255)
(0.000456246 0.00056799 0.0848227)
(0.000347173 0.00053259 0.084912)
(0.000224744 0.000508844 0.0849933)
(0.000127923 0.000488639 0.0850677)
(2.35724e-05 0.000476967 0.0851373)
(-0.00688568 -0.00454843 0.0628911)
(0.00534954 0.00250161 0.0777877)
(0.00429983 0.00311287 0.0823374)
(0.00272211 0.00187493 0.0839789)
(0.00176502 0.00104638 0.0843237)
(0.00119249 0.000701079 0.0844528)
(0.000927307 0.000565301 0.0845994)
(0.00070575 0.000498679 0.0847211)
(0.000567966 0.000456135 0.0848226)
(0.000428845 0.000428745 0.0849112)
(0.000324661 0.000405402 0.0849935)
(0.000213351 0.000388382 0.085069)
(0.000119991 0.000373862 0.0851391)
(2.21342e-05 0.000364862 0.085206)
(-0.00536594 0.00247852 0.0795894)
(0.0029797 0.00204685 0.0805664)
(0.00297142 0.00225251 0.0837389)
(0.00197942 0.00122856 0.0842734)
(0.00144941 0.000742707 0.0844558)
(0.00105462 0.000533027 0.0845877)
(0.000850318 0.000435154 0.084717)
(0.000656406 0.000381598 0.0848212)
(0.000532415 0.000347354 0.0849118)
(0.000405264 0.000324258 0.0849933)
(0.000306302 0.000305522 0.0850693)
(0.000203514 0.000292947 0.08514)
(0.000114023 0.000282851 0.0852072)
(2.06091e-05 0.00027654 0.0852714)
(-0.00768096 -0.00212707 0.0804151)
(0.00202087 -1.46833e-07 0.08318)
(0.0023338 0.000666061 0.084514)
(0.00148181 0.000454768 0.084542)
(0.00127519 0.00035456 0.0846121)
(0.000953918 0.000291259 0.0847137)
(0.000799641 0.000261922 0.0848208)
(0.000621346 0.000239969 0.0849102)
(0.000508751 0.000224888 0.0849932)
(0.000388131 0.000213667 0.0850687)
(0.000293049 0.00020361 0.0851397)
(0.000195499 0.00019518 0.0852067)
(0.000109459 0.00018858 0.085271)
(1.99661e-05 0.000184186 0.0853338)
(0.00496611 -0.0131538 0.0631328)
(0.014019 -0.0042821 0.0813692)
(0.00508128 -0.000114274 0.0838953)
(0.00265936 0.000229996 0.0847603)
(0.00129862 0.000198295 0.0846856)
(0.00115437 0.000186279 0.0847155)
(0.000871379 0.000166632 0.0848107)
(0.000754189 0.000151096 0.0849058)
(0.000590409 0.00013788 0.0849894)
(0.000488593 0.000127944 0.0850674)
(0.000373786 0.000120119 0.085139)
(0.000282951 0.000114193 0.0852071)
(0.000188765 0.000109545 0.085271)
(0.000105003 0.000105234 0.0853333)
(1.894e-05 0.00010205 0.0853946)
(0.000561727 -0.00132454 0.0725045)
(0.0160801 -0.00133409 0.0804741)
(0.00662503 6.81872e-05 0.084005)
(0.0029813 6.30075e-05 0.0847691)
(0.00126809 2.20735e-05 0.08474)
(0.00111674 2.93657e-05 0.0847915)
(0.000834803 2.86021e-05 0.0848874)
(0.00073286 2.76963e-05 0.0849806)
(0.000573827 2.52566e-05 0.0850618)
(0.000476929 2.36676e-05 0.0851371)
(0.000364822 2.22685e-05 0.0852058)
(0.000276574 2.07403e-05 0.0852713)
(0.000184185 2.00457e-05 0.0853337)
(0.000101977 1.898e-05 0.0853946)
(1.66234e-05 1.66669e-05 0.0854551)
(-0.00588725 -0.00476339 0.0402491)
(-0.00215596 -0.00593378 0.0572104)
(0.00247368 -0.00505881 0.0343901)
(-0.0054386 -0.0058286 0.0588829)
(0.0214341 0.0246154 0.116531)
(0.00446416 0.0384755 0.136323)
(-0.000893338 0.0468458 0.123306)
(-0.000738938 0.0517928 0.121802)
(-0.000779906 -0.00662962 0.0369093)
(-0.00455646 -0.0100699 0.078595)
(0.0258187 0.0366543 0.105915)
(0.0132951 0.0341737 0.122267)
(0.0111599 0.021699 0.152393)
(-0.000606899 0.0189345 0.152516)
(-0.000399095 0.0204692 0.146381)
(-0.000513991 0.0229169 0.144339)
(-0.0113785 -0.00248793 0.053565)
(0.0233678 0.0406849 0.113377)
(0.0121546 0.0387909 0.122966)
(0.0160484 0.0293143 0.149786)
(0.00896413 0.0226702 0.148675)
(0.00754841 0.0132061 0.147324)
(0.00224775 0.0143042 0.142978)
(0.00138074 0.0149089 0.140765)
(-1.85038e-05 0.0158505 0.139737)
(0.0199824 0.0248167 0.118886)
(0.00842726 0.0362252 0.124054)
(0.015234 0.0298603 0.151179)
(0.00862141 0.0243865 0.14868)
(0.00910693 0.0151199 0.146314)
(0.00606108 0.0133499 0.140713)
(0.00470107 0.00955691 0.137577)
(0.00199291 0.00966983 0.135507)
(0.00148124 0.00925737 0.135138)
(0.000176629 0.00951026 0.134737)
(0.0247981 0.0199661 0.11881)
(0.0167049 0.0166731 0.15481)
(0.0090114 0.0208575 0.149295)
(0.00891111 0.0141275 0.146059)
(0.00681728 0.0135217 0.140813)
(0.00628525 0.010005 0.137295)
(0.00465315 0.00986535 0.135313)
(0.00382728 0.00809589 0.134801)
(0.0022162 0.00833386 0.134442)
(0.00148045 0.00790493 0.134495)
(0.000304119 0.00796765 0.13434)
(-0.00249034 -0.0113779 0.0535538)
(0.0361975 0.00845061 0.124007)
(0.0208253 0.00901711 0.149272)
(0.01107 0.0110827 0.142813)
(0.00833998 0.0089871 0.137546)
(0.00613941 0.00919223 0.135235)
(0.00518796 0.00756346 0.134446)
(0.00385343 0.00741435 0.134037)
(0.00300659 0.00631477 0.134086)
(0.00183197 0.00616505 0.133875)
(0.00119233 0.00574203 0.133874)
(0.000283514 0.00570369 0.133761)
(-0.00663008 -0.000777025 0.0369092)
(0.0406774 0.0233471 0.11336)
(0.0298466 0.0152165 0.151146)
(0.0141097 0.00890963 0.14604)
(0.00897947 0.00834577 0.137538)
(0.00686575 0.00686825 0.134818)
(0.00535994 0.00689901 0.134183)
(0.00435774 0.00591983 0.134072)
(0.0032835 0.00572569 0.133891)
(0.0025412 0.0050569 0.1339)
(0.00165677 0.00496257 0.133776)
(0.00104694 0.00469858 0.133782)
(0.000283933 0.00467126 0.13373)
(-0.0100698 -0.00455627 0.0785943)
(0.0387886 0.0121466 0.122956)
(0.0243764 0.00861539 0.148665)
(0.0135099 0.00681689 0.140805)
(0.00918508 0.00614395 0.135231)
(0.00689391 0.00536242 0.134182)
(0.00512916 0.00513293 0.133887)
(0.00397334 0.00450419 0.133812)
(0.0029571 0.00430697 0.133645)
(0.00223019 0.003893 0.133637)
(0.00147663 0.00378028 0.133545)
(0.000910747 0.00359205 0.133546)
(0.000263345 0.00355567 0.133513)
(-0.0050592 0.00247454 0.0343904)
(0.0366536 0.0258135 0.105911)
(0.0293135 0.0160383 0.149778)
(0.0151156 0.00909931 0.146306)
(0.00999954 0.00628194 0.137289)
(0.00755941 0.00518779 0.134442)
(0.00591684 0.00435797 0.13407)
(0.00450175 0.00397515 0.133811)
(0.00352331 0.00352464 0.133716)
(0.00266253 0.00335046 0.133582)
(0.00201034 0.00308926 0.133572)
(0.00135839 0.00300776 0.133515)
(0.000827385 0.00288947 0.133517)
(0.000251266 0.00286408 0.133499)
(-0.00582871 -0.00543848 0.0588833)
(0.0341749 0.0132929 0.122265)
(0.0226699 0.00895961 0.148672)
(0.0133473 0.00605792 0.14071)
(0.00986149 0.00465158 0.13531)
(0.00741102 0.00385386 0.134035)
(0.00572269 0.00328398 0.13389)
(0.00430438 0.00295849 0.133645)
(0.00334868 0.00266358 0.133583)
(0.00251907 0.00252019 0.133483)
(0.00188625 0.00234915 0.133477)
(0.00127819 0.00227996 0.133434)
(0.000769241 0.00219924 0.133435)
(0.000239489 0.00217718 0.133422)
(0.024615 0.0214338 0.116531)
(0.0216994 0.0111573 0.152391)
(0.0132058 0.00754499 0.147321)
(0.00955548 0.00469832 0.137574)
(0.0080937 0.00382558 0.134798)
(0.00631273 0.00300616 0.134083)
(0.00505495 0.00254115 0.133899)
(0.00389123 0.00223094 0.133636)
(0.00308777 0.00201109 0.133572)
(0.00234808 0.00188716 0.133477)
(0.00177007 0.00177065 0.133467)
(0.00120962 0.00171743 0.133429)
(0.000725976 0.00166528 0.133428)
(0.000229895 0.00164961 0.133418)
(0.0384754 0.00446378 0.136323)
(0.0189344 -0.000607679 0.152514)
(0.0143041 0.00224639 0.142977)
(0.00966871 0.00199184 0.135506)
(0.00833225 0.00221549 0.134441)
(0.00616331 0.00183191 0.133874)
(0.00496075 0.00165683 0.133776)
(0.00377853 0.00147716 0.133544)
(0.0030062 0.00135888 0.133515)
(0.00227867 0.00127902 0.133434)
(0.00171654 0.00121015 0.13343)
(0.00117326 0.00117391 0.133398)
(0.00070206 0.00114169 0.133398)
(0.000223894 0.00113078 0.13339)
(-0.00476343 -0.00588737 0.0402492)
(0.0468453 -0.000893758 0.123306)
(0.0204689 -0.000399285 0.146379)
(0.0149084 0.00138019 0.140763)
(0.0092565 0.0014808 0.135136)
(0.00790369 0.00148021 0.134493)
(0.00574073 0.00119245 0.133872)
(0.0046972 0.00104714 0.133781)
(0.00359071 0.00091124 0.133545)
(0.00288827 0.000827863 0.133517)
(0.00219824 0.000769924 0.133434)
(0.00166455 0.000726525 0.133427)
(0.00114116 0.000702668 0.133397)
(0.000683145 0.000683597 0.133396)
(0.000219158 0.000675707 0.13339)
(-0.00593378 -0.00215614 0.0572105)
(0.0517927 -0.000738505 0.121803)
(0.0229166 -0.000513756 0.144339)
(0.0158502 -1.84259e-05 0.139737)
(0.00950948 0.000176598 0.134736)
(0.00796652 0.000304004 0.13434)
(0.00570235 0.000283503 0.133761)
(0.00466979 0.000283822 0.13373)
(0.00355419 0.000263376 0.133513)
(0.00286271 0.00025121 0.133499)
(0.00217599 0.000239608 0.133422)
(0.00164863 0.000229894 0.133418)
(0.00113002 0.000224094 0.13339)
(0.000675091 0.000219206 0.13339)
(0.000216901 0.00021729 0.133383)
(-0.00046286 -0.00580407 0.0187996)
(-0.000783542 -0.0058593 0.0293741)
(0.00146604 -0.00384211 0.0180475)
(-0.00574921 -0.0056739 0.0287342)
(0.00401634 0.0057222 0.0810369)
(0.00187624 0.0107131 0.102628)
(0.0021397 0.010146 0.0926264)
(-8.16772e-05 0.0113933 0.0929815)
(0.000286612 -0.00472204 0.0187377)
(-0.00586945 -0.00664281 0.0381934)
(0.00714443 0.00970932 0.0790949)
(-0.00137467 0.00646136 0.0994105)
(0.000196555 0.00397887 0.126326)
(-0.000996814 0.00451079 0.130364)
(0.0011483 0.0027496 0.124812)
(-0.000365101 0.00357285 0.124661)
(-0.00578346 -0.00576039 0.0245414)
(0.0078948 0.0106994 0.0827689)
(-0.000331992 0.00762633 0.0999911)
(0.00394913 0.00595083 0.126274)
(0.003163 0.00653731 0.124848)
(0.00374185 0.00612136 0.116387)
(0.00275719 0.00894991 0.11145)
(0.00246079 0.00850847 0.108453)
(0.000293467 0.00912286 0.108291)
(0.00766928 0.00476347 0.0781222)
(-0.000194468 0.00787314 0.0998637)
(0.00419285 0.00676007 0.126564)
(0.00396745 0.00645544 0.125475)
(0.00493184 0.00633532 0.117116)
(0.00421533 0.00776039 0.110043)
(0.00339415 0.00744616 0.103158)
(0.00210646 0.00802229 0.101273)
(0.00174462 0.00714441 0.100344)
(0.000248167 0.00719683 0.100221)
(0.0047448 0.00764559 0.0780972)
(0.00448194 0.00446068 0.127494)
(0.00494646 0.00595928 0.124343)
(0.00577127 0.00634145 0.116493)
(0.00567101 0.00769331 0.109986)
(0.00506293 0.00753173 0.102918)
(0.00412934 0.00816464 0.100433)
(0.00339668 0.00754422 0.0980661)
(0.00234203 0.00796262 0.0975563)
(0.00165264 0.00750866 0.0969894)
(0.000366374 0.00759685 0.096794)
(-0.00576238 -0.00578332 0.0245388)
(0.00784638 -0.000175914 0.0998159)
(0.00593979 0.00495487 0.124315)
(0.00686092 0.0068607 0.114219)
(0.00633336 0.00697063 0.104292)
(0.0055879 0.00741968 0.10097)
(0.00476006 0.00694648 0.098094)
(0.00379323 0.00702584 0.0972039)
(0.00299701 0.00646733 0.0960576)
(0.00201238 0.00646273 0.0955963)
(0.00134997 0.00609157 0.0951099)
(0.000335612 0.00608063 0.0949125)
(-0.00472237 0.000288488 0.0187382)
(0.0106935 0.0078846 0.0827569)
(0.00675071 0.00419071 0.126535)
(0.00632539 0.00578216 0.116471)
(0.00696563 0.00634033 0.10428)
(0.00624134 0.00624337 0.0990984)
(0.0053913 0.00642657 0.0976569)
(0.0045058 0.00603074 0.0961373)
(0.00360204 0.00603877 0.0953677)
(0.00284612 0.00567221 0.0945027)
(0.00196829 0.00570622 0.0940586)
(0.00126292 0.00550537 0.09369)
(0.000355612 0.0055118 0.0935441)
(-0.00664364 -0.00586959 0.0381934)
(0.00762567 -0.000334574 0.0999734)
(0.00644892 0.00396606 0.125455)
(0.00768359 0.00567384 0.109974)
(0.00741211 0.00559357 0.100963)
(0.00642006 0.00539422 0.0976556)
(0.0053027 0.00530738 0.0962061)
(0.00437343 0.00500593 0.0948633)
(0.00345373 0.0049465 0.0940635)
(0.00267931 0.00469176 0.0933935)
(0.00184565 0.00465173 0.0930194)
(0.00115158 0.0045 0.0927539)
(0.000341639 0.00448121 0.0926425)
(-0.00384244 0.00146687 0.0180479)
(0.00970915 0.00714069 0.0790937)
(0.00595158 0.00394203 0.126265)
(0.00633274 0.00492606 0.117108)
(0.00752643 0.0050606 0.102912)
(0.00694166 0.00475989 0.0980899)
(0.00602668 0.0045063 0.0961358)
(0.00500259 0.00437589 0.0948626)
(0.00415462 0.00415665 0.0937922)
(0.00329502 0.00409075 0.0931285)
(0.00255413 0.00391991 0.0926287)
(0.00177526 0.00388749 0.0923311)
(0.00109079 0.00379274 0.0921309)
(0.000337258 0.00377997 0.0920429)
(-0.00567407 -0.00574939 0.0287345)
(0.006463 -0.00137639 0.0994071)
(0.00653818 0.00315922 0.124842)
(0.00775847 0.00421259 0.110039)
(0.00816074 0.00412795 0.10043)
(0.00702177 0.00379369 0.0972016)
(0.0060347 0.00360261 0.0953667)
(0.00494309 0.00345551 0.0940631)
(0.00408822 0.00329653 0.0931286)
(0.00321702 0.00321889 0.0925405)
(0.00247553 0.00309658 0.0921297)
(0.00171721 0.00305354 0.0918717)
(0.00104308 0.00298499 0.0917087)
(0.000328982 0.00296959 0.0916341)
(0.00572205 0.00401542 0.0810361)
(0.00397984 0.000194343 0.126323)
(0.00612131 0.00373854 0.116383)
(0.00744516 0.00339141 0.103155)
(0.00754188 0.00339489 0.0980638)
(0.00646476 0.00299641 0.0960559)
(0.00566955 0.00284606 0.0945017)
(0.00468932 0.00268024 0.0933929)
(0.00391792 0.00255509 0.0926285)
(0.00309504 0.00247689 0.0921297)
(0.00238862 0.00238974 0.0917872)
(0.00166319 0.00235309 0.0915649)
(0.00100643 0.00230775 0.0914286)
(0.000321819 0.00229597 0.0913649)
(0.0107136 0.00187572 0.102626)
(0.00451137 -0.000997786 0.130363)
(0.00894969 0.00275601 0.111448)
(0.00802141 0.00210545 0.101272)
(0.00796081 0.00234125 0.0975551)
(0.00646052 0.00201227 0.0955955)
(0.00570375 0.00196833 0.0940582)
(0.00464934 0.00184629 0.0930192)
(0.00388538 0.00177588 0.0923311)
(0.00305181 0.00171817 0.0918718)
(0.00235173 0.00166394 0.0915651)
(0.00163498 0.00163595 0.0913635)
(0.000985767 0.001607 0.0912426)
(0.000316964 0.00159786 0.0911858)
(-0.00580414 -0.000463052 0.0187999)
(0.0101456 0.00213975 0.0926249)
(0.00274981 0.00114813 0.12481)
(0.00850804 0.00246062 0.108451)
(0.00714371 0.00174449 0.100342)
(0.0075073 0.00165259 0.0969881)
(0.0060899 0.00135023 0.095109)
(0.00550349 0.00126323 0.0936894)
(0.00449815 0.00115225 0.0927535)
(0.00379106 0.0010914 0.0921307)
(0.00298358 0.00104391 0.0917086)
(0.00230664 0.00100708 0.0914285)
(0.00160625 0.000986582 0.0912426)
(0.000968317 0.000968884 0.0911322)
(0.000312592 0.000961804 0.09108)
(-0.00585935 -0.000783631 0.0293743)
(0.0113936 -8.10786e-05 0.0929812)
(0.00357312 -0.000364654 0.12466)
(0.00912268 0.000293812 0.108291)
(0.0071961 0.000248416 0.100221)
(0.00759547 0.00036645 0.0967937)
(0.00607882 0.000335762 0.0949123)
(0.00550974 0.000355587 0.093544)
(0.00447913 0.000341763 0.0926425)
(0.00377803 0.000337231 0.0920431)
(0.00296789 0.000329151 0.0916342)
(0.00229459 0.000321821 0.091365)
(0.00159681 0.000317254 0.0911858)
(0.000960989 0.000312673 0.0910801)
(0.000310421 0.00031093 0.0910294)
(0.000174771 -0.00397222 0.0150799)
(-1.71623e-05 -0.00509553 0.0224913)
(0.000947038 -0.00201792 0.0147085)
(-0.00414373 -0.00417603 0.0230975)
(-0.0023265 -0.00165731 0.0757399)
(0.000990212 -0.00148076 0.0965501)
(0.00127755 -0.00220833 0.0892468)
(-0.000317596 -0.0023069 0.0892115)
(0.00092724 -0.00315367 0.0149453)
(-0.0048403 -0.00526307 0.029399)
(-0.00134236 -0.0010384 0.0732309)
(-0.00107392 -0.00215246 0.0931005)
(-0.000148553 0.00145789 0.118861)
(0.000616613 0.00273642 0.123098)
(0.00144716 0.00181528 0.118762)
(-0.000179971 0.00232672 0.11915)
(-0.00307271 -0.00506841 0.0188903)
(-0.00125805 -0.00115834 0.0757173)
(-0.000126264 -0.00201356 0.0920817)
(0.0020666 0.0011389 0.118559)
(0.00315676 0.0041116 0.119033)
(0.0030895 0.00597709 0.115094)
(0.00275079 0.00777823 0.112535)
(0.00192593 0.00732042 0.110322)
(0.000199259 0.00766298 0.110306)
(-0.000545591 -0.00155679 0.0724803)
(0.000321085 -0.00162625 0.0926418)
(0.00190746 0.00166271 0.119141)
(0.00376235 0.00357366 0.119186)
(0.00380984 0.00575203 0.115593)
(0.00384325 0.00679807 0.11246)
(0.00292275 0.00707409 0.109626)
(0.00189547 0.00711618 0.109353)
(0.00133546 0.00648262 0.108772)
(0.000164443 0.00655864 0.108711)
(-0.00156091 -0.000545835 0.0724528)
(0.00207322 0.00207735 0.120262)
(0.00392371 0.00296486 0.118759)
(0.00452185 0.00539563 0.115476)
(0.00490808 0.00644061 0.112145)
(0.00423275 0.00699209 0.109232)
(0.00358709 0.00710087 0.10876)
(0.0028184 0.00660353 0.108012)
(0.00196192 0.00672244 0.107982)
(0.00130425 0.0064079 0.107461)
(0.000282697 0.00651244 0.107264)
(-0.00507148 -0.00307063 0.0188857)
(-0.00162694 0.000332302 0.0926155)
(0.00295095 0.00392784 0.11875)
(0.00530845 0.00530746 0.113748)
(0.00515339 0.00612853 0.10982)
(0.00468207 0.0063036 0.108977)
(0.00393151 0.0060761 0.108)
(0.00323366 0.00592793 0.107831)
(0.00252754 0.00554054 0.10724)
(0.00171335 0.00550063 0.106988)
(0.00112328 0.0052591 0.106572)
(0.000275593 0.00527431 0.106421)
(-0.00315424 0.000928052 0.0149463)
(-0.00115929 -0.00125925 0.0757099)
(0.00165946 0.00190729 0.119125)
(0.00537939 0.00452339 0.115464)
(0.00612499 0.00515532 0.109814)
(0.005328 0.00532186 0.108355)
(0.00456739 0.00535773 0.108029)
(0.00382713 0.00515189 0.107248)
(0.00310932 0.0051252 0.106769)
(0.0024495 0.0048798 0.106165)
(0.00170176 0.0049107 0.105853)
(0.00108193 0.00477044 0.105551)
(0.000302856 0.00478703 0.105443)
(-0.00526373 -0.00484032 0.0293994)
(-0.00201171 -0.000126692 0.0920684)
(0.00357217 0.00376132 0.119173)
(0.00643388 0.00491084 0.112136)
(0.00629783 0.00469191 0.108971)
(0.00535443 0.00456893 0.108026)
(0.00448117 0.00448484 0.107324)
(0.00373588 0.00430182 0.106428)
(0.00298776 0.00424656 0.105879)
(0.0023207 0.0040615 0.105393)
(0.00160174 0.00402933 0.105131)
(0.000997575 0.0039129 0.104922)
(0.00029353 0.00390201 0.104839)
(-0.00201818 0.000947451 0.0147089)
(-0.00103833 -0.00134383 0.0732288)
(0.00114 0.00206296 0.118551)
(0.00575072 0.00380614 0.115587)
(0.00698758 0.0042309 0.109226)
(0.00607291 0.00393271 0.107996)
(0.00514981 0.00382671 0.107245)
(0.00429958 0.00373763 0.106427)
(0.00359646 0.00359767 0.105664)
(0.00286691 0.00354386 0.105195)
(0.00222687 0.00341272 0.104817)
(0.00154938 0.00339009 0.104592)
(0.000953265 0.00331622 0.104425)
(0.000293069 0.00330982 0.104354)
(-0.00417614 -0.00414384 0.023098)
(-0.00215117 -0.00107526 0.0930969)
(0.00411256 0.00315417 0.119027)
(0.00679693 0.0038414 0.112455)
(0.00709763 0.00358632 0.108755)
(0.00592519 0.00323503 0.107828)
(0.00512247 0.0031097 0.106767)
(0.00424409 0.0029893 0.105878)
(0.00354199 0.00286798 0.105195)
(0.00279968 0.00280118 0.104764)
(0.00216408 0.00270392 0.104435)
(0.00150354 0.00267224 0.104226)
(0.000916544 0.00261895 0.104084)
(0.000287761 0.00260909 0.104019)
(-0.00165777 -0.00232727 0.0757382)
(0.00145849 -0.000149991 0.118858)
(0.00597718 0.0030875 0.11509)
(0.0070737 0.00292088 0.109622)
(0.00660172 0.00281734 0.108009)
(0.00553905 0.00252758 0.107237)
(0.00487818 0.00244951 0.106163)
(0.00405991 0.00232156 0.105392)
(0.00341139 0.0022276 0.104817)
(0.00270283 0.00216523 0.104434)
(0.00209747 0.00209834 0.104146)
(0.00146391 0.00207373 0.103955)
(0.000889773 0.00203966 0.103831)
(0.0002836 0.00203258 0.103772)
(-0.00148037 0.000989872 0.0965479)
(0.00273692 0.000616226 0.123095)
(0.00777811 0.00275047 0.112532)
(0.00711572 0.00189489 0.10935)
(0.00672111 0.00196159 0.107979)
(0.00549916 0.0017136 0.106986)
(0.00490895 0.00170187 0.105851)
(0.00402759 0.00160235 0.10513)
(0.00338848 0.00154983 0.104592)
(0.00267086 0.00150431 0.104226)
(0.00207257 0.00146444 0.103955)
(0.00144465 0.00144546 0.103775)
(0.000875209 0.00142371 0.10366)
(0.000280754 0.00141788 0.103605)
(-0.00397225 0.000174459 0.0150801)
(-0.00220884 0.00127828 0.0892447)
(0.00181565 0.00144759 0.118759)
(0.00732013 0.00192647 0.110319)
(0.00648229 0.0013358 0.10877)
(0.00640701 0.00130464 0.107458)
(0.00525809 0.00112389 0.10657)
(0.00476922 0.00108244 0.105549)
(0.00391165 0.00099834 0.10492)
(0.00331504 0.000953857 0.104425)
(0.00261793 0.000917326 0.104084)
(0.00203882 0.000890313 0.10383)
(0.00142318 0.000875953 0.10366)
(0.00086214 0.000862576 0.103552)
(0.000277485 0.000858021 0.1035)
(-0.00509543 -1.72579e-05 0.0224914)
(-0.00230641 -0.000316773 0.0892106)
(0.0023269 -0.000179411 0.119148)
(0.00766285 0.000199695 0.110305)
(0.00655813 0.000164722 0.10871)
(0.00651141 0.000282797 0.107263)
(0.00527296 0.000275779 0.106421)
(0.00478544 0.000302815 0.105442)
(0.00390035 0.000293645 0.104838)
(0.00330822 0.000292977 0.104353)
(0.00260765 0.000287886 0.104019)
(0.00203138 0.000283512 0.103772)
(0.00141696 0.000280997 0.103605)
(0.000857276 0.000277463 0.1035)
(0.000277058 0.000277531 0.103449)
(0.000581871 -0.0040453 0.0150284)
(0.000134376 -0.00515934 0.0220538)
(0.000788394 -0.00173035 0.014863)
(-0.00393207 -0.00445587 0.0224727)
(-0.000921617 -0.000785276 0.0789039)
(0.000835629 -0.000747189 0.0989433)
(0.000483616 -0.000680338 0.0927979)
(-0.000209156 -0.000791969 0.0925528)
(0.00097985 -0.00293291 0.0150499)
(-0.00463169 -0.00515682 0.0278052)
(-0.000702528 -0.000492802 0.0759693)
(0.000548641 -0.000530904 0.0946343)
(0.000694072 0.00216055 0.119707)
(0.000690931 0.00276939 0.122733)
(0.0007911 0.00274738 0.118783)
(-0.000123308 0.00312146 0.118691)
(-0.00254381 -0.00525687 0.0184367)
(-0.000792272 -0.000675387 0.078318)
(0.000986596 -0.000554718 0.0932027)
(0.00171463 0.00187909 0.118719)
(0.00211453 0.003296 0.119447)
(0.00176735 0.00398125 0.118132)
(0.00150795 0.00470378 0.116128)
(0.000902109 0.00455841 0.114247)
(4.98932e-05 0.00478038 0.114004)
(-0.000672791 -0.00077169 0.075013)
(0.00107723 -0.000603467 0.0942338)
(0.00159403 0.00207159 0.119392)
(0.00245812 0.00296707 0.119241)
(0.00210099 0.00401691 0.118026)
(0.00221043 0.00416796 0.116035)
(0.00159512 0.00423067 0.114423)
(0.00100731 0.0041595 0.114045)
(0.000700041 0.00397165 0.113291)
(6.01359e-05 0.00408873 0.113035)
(-0.000769727 -0.000683178 0.0749664)
(0.00200292 0.00200907 0.119773)
(0.0022213 0.00221009 0.119203)
(0.00260377 0.00358675 0.117925)
(0.00281369 0.00388584 0.115525)
(0.00242481 0.0042303 0.113783)
(0.00211041 0.00422306 0.113228)
(0.00169258 0.00403854 0.112456)
(0.001242 0.00422723 0.112072)
(0.000835742 0.00417925 0.111369)
(0.000185983 0.00430518 0.111081)
(-0.00526545 -0.00253988 0.0184314)
(-0.00060255 0.00107851 0.0942053)
(0.00220542 0.00222291 0.119191)
(0.00303414 0.00303441 0.116413)
(0.00295469 0.00356939 0.114152)
(0.00275307 0.00369129 0.113349)
(0.00241637 0.00372746 0.112367)
(0.00213395 0.00378598 0.111807)
(0.00172934 0.00377033 0.110984)
(0.0012177 0.003862 0.110529)
(0.000807095 0.00380018 0.110034)
(0.000200122 0.00384004 0.109857)
(-0.00293323 0.000980434 0.0150501)
(-0.000676234 -0.00079162 0.0783075)
(0.00206833 0.0015941 0.119376)
(0.00358078 0.0026043 0.117918)
(0.0035679 0.00295533 0.114157)
(0.00317937 0.00317524 0.112881)
(0.00293203 0.003354 0.112057)
(0.00262356 0.00346881 0.110977)
(0.00223379 0.00360875 0.110237)
(0.00180391 0.0035831 0.109504)
(0.00128321 0.00367551 0.109105)
(0.000820664 0.00362596 0.108758)
(0.000231933 0.00365591 0.108632)
(-0.00515762 -0.00463146 0.0278053)
(-0.000554116 0.000986356 0.0931897)
(0.00296596 0.00245755 0.119227)
(0.00388333 0.00281636 0.115515)
(0.0036875 0.00275796 0.113346)
(0.00335136 0.00293227 0.112054)
(0.00306854 0.00306953 0.110908)
(0.00270223 0.00311424 0.109809)
(0.00224641 0.0031723 0.109139)
(0.00178293 0.0031271 0.108573)
(0.00125349 0.00314669 0.108258)
(0.000786754 0.00309456 0.108008)
(0.00023207 0.00309947 0.107909)
(-0.0017306 0.00078868 0.0148635)
(-0.000493032 -0.000703044 0.075966)
(0.00187912 0.00171346 0.118711)
(0.00401552 0.00209896 0.118018)
(0.00422755 0.00242443 0.113776)
(0.00372581 0.00241696 0.112363)
(0.00346788 0.00262439 0.110975)
(0.00311344 0.0027035 0.109808)
(0.0027228 0.00272351 0.108888)
(0.00223401 0.00275079 0.108325)
(0.00176902 0.00271062 0.107868)
(0.00124788 0.00272521 0.107593)
(0.000773523 0.00269133 0.107388)
(0.000238134 0.00269633 0.107301)
(-0.0044561 -0.00393212 0.0224733)
(-0.000530118 0.000548039 0.0946299)
(0.00329568 0.00211337 0.119441)
(0.00416681 0.00220938 0.116028)
(0.00422149 0.00211054 0.113222)
(0.00378454 0.00213531 0.111803)
(0.00360715 0.00223445 0.110234)
(0.0031709 0.00224755 0.109138)
(0.00274945 0.00223466 0.108324)
(0.00222986 0.00223096 0.107809)
(0.00175521 0.0021947 0.107405)
(0.00123368 0.00219111 0.107153)
(0.000757833 0.00216408 0.106977)
(0.000237671 0.0021624 0.106899)
(-0.000785852 -0.000922001 0.0789017)
(0.00216097 0.000693454 0.119703)
(0.00398071 0.0017666 0.118127)
(0.00423036 0.00159481 0.114418)
(0.0040378 0.00169262 0.112452)
(0.00376947 0.00172988 0.110981)
(0.00358223 0.00180429 0.109501)
(0.00312626 0.00178375 0.108571)
(0.0027098 0.00176957 0.107867)
(0.00219402 0.00175616 0.107405)
(0.00172895 0.00172956 0.107045)
(0.00121709 0.00172428 0.106813)
(0.000744703 0.00170602 0.106657)
(0.000236833 0.00170428 0.106585)
(-0.000746738 0.000835579 0.0989404)
(0.00276983 0.000690712 0.122729)
(0.00470352 0.00150784 0.116125)
(0.00415927 0.00100739 0.114042)
(0.00422659 0.00124184 0.112069)
(0.00386105 0.00121811 0.110526)
(0.00367431 0.00128341 0.109103)
(0.00314548 0.00125405 0.108257)
(0.00272398 0.00124818 0.107592)
(0.00219005 0.0012343 0.107153)
(0.00172332 0.00121742 0.106813)
(0.00121003 0.0012107 0.106593)
(0.000737745 0.00119837 0.106446)
(0.00023608 0.00119624 0.106378)
(-0.00404535 0.000581444 0.0150287)
(-0.000680915 0.000484889 0.092795)
(0.0027476 0.000792407 0.118779)
(0.00455822 0.000903469 0.114243)
(0.00397152 0.000701349 0.113287)
(0.00417882 0.000836694 0.111366)
(0.00379963 0.000808148 0.110031)
(0.00362526 0.000821447 0.108756)
(0.00309381 0.000787656 0.108006)
(0.00269057 0.000774137 0.107387)
(0.00216342 0.000758611 0.106976)
(0.00170545 0.000745175 0.106656)
(0.00119803 0.000738446 0.106446)
(0.000730225 0.000730561 0.106307)
(0.000234422 0.000728441 0.106242)
(-0.00515927 0.000134289 0.0220539)
(-0.000791218 -0.000208058 0.0925516)
(0.00312178 -0.000122377 0.11869)
(0.00478018 5.0573e-05 0.114003)
(0.00408822 6.06906e-05 0.113033)
(0.00430427 0.00018618 0.11108)
(0.00383888 0.000200389 0.109855)
(0.00365456 0.000231912 0.108631)
(0.00309809 0.000232191 0.107908)
(0.00269497 0.000237999 0.107301)
(0.00216119 0.000237773 0.106898)
(0.00170324 0.000236679 0.106585)
(0.00119543 0.000236303 0.106378)
(0.000727737 0.000234322 0.106242)
(0.000234863 0.000235317 0.106178)
(0.000616409 -0.00398292 0.0149966)
(0.000173228 -0.00502866 0.0218946)
(0.000665265 -0.00171851 0.0147159)
(-0.00378996 -0.00435594 0.0222065)
(-0.000487142 -0.000659775 0.0772904)
(0.000535928 -0.000378432 0.0966311)
(0.000245216 -0.000319623 0.0910964)
(-6.37073e-05 -0.00040216 0.0905825)
(0.000944574 -0.00292019 0.0149253)
(-0.00446414 -0.00502744 0.0272624)
(-0.000515457 -0.000413571 0.0743798)
(0.000376992 -0.000326599 0.0919113)