/*--------------------------------*- C++ -*----------------------------------*\
| =========                 |                                                 |
| \\      /  F ield         | OpenFOAM: The Open Source CFD Toolbox           |
|  \\    /   O peration     | Version:  2.1.1                                 |
|   \\  /    A nd           | Web:      www.OpenFOAM.org                      |
|    \\/     M anipulation  |                                                 |
\*---------------------------------------------------------------------------*/
FoamFile
{
    version     2.0;
    format      ascii;
    class       volScalarField;
    location    "0.1";
    object      p;
}
// * * * * * * * * * * * * * * * * * * * * * * * * * * * * * * * * * * * * * //

dimensions      [0 2 -2 0 0 0 0];

internalField   nonuniform List<scalar> 
163952
(
0.0416876
0.0411114
0.0363753
0.0311805
0.0299838
0.0273724
0.0267824
0.0264587
0.0366953
0.0323532
0.0273118
0.0248221
0.0235785
0.0227996
0.0224853
0.0223441
0.0337265
0.0279896
0.0244859
0.0228463
0.0219338
0.021396
0.0210573
0.0208771
0.0207916
0.0335962
0.0260974
0.0232631
0.0219166
0.0211613
0.0206826
0.020363
0.0201514
0.0200253
0.0199618
0.0335975
0.0255554
0.0227389
0.0214607
0.0207459
0.0202822
0.0199582
0.0197275
0.019568
0.0194675
0.0194151
0.0337267
0.0260975
0.0227388
0.0213172
0.0205547
0.020066
0.0197205
0.0194666
0.0192801
0.0191481
0.0190625
0.0190171
0.0366951
0.0279896
0.0232631
0.0214607
0.0205547
0.0199963
0.0196081
0.0193215
0.0191059
0.0189453
0.0188305
0.018755
0.0187145
0.0323534
0.024486
0.0219166
0.0207459
0.020066
0.0196081
0.0192746
0.0190229
0.0188317
0.0186884
0.0185853
0.0185171
0.0184803
0.0363754
0.0273119
0.0228464
0.0211614
0.0202822
0.0197206
0.0193215
0.0190229
0.0187949
0.0186207
0.0184897
0.018395
0.0183321
0.0182981
0.0311807
0.0248222
0.0219339
0.0206827
0.0199583
0.0194667
0.0191059
0.0188317
0.0186207
0.0184587
0.0183366
0.018248
0.0181891
0.0181571
0.0299839
0.0235786
0.021396
0.0203631
0.0197275
0.0192801
0.0189454
0.0186885
0.0184897
0.0183366
0.0182207
0.0181366
0.0180805
0.01805
0.0273725
0.0227997
0.0210574
0.0201515
0.0195681
0.0191481
0.0188305
0.0185853
0.018395
0.018248
0.0181366
0.0180556
0.0180014
0.017972
0.0416877
0.0267825
0.0224854
0.0208771
0.0200254
0.0194675
0.0190626
0.018755
0.0185171
0.0183322
0.0181891
0.0180805
0.0180014
0.0179485
0.0179198
0.0411115
0.0264588
0.0223442
0.0207916
0.0199619
0.0194151
0.0190172
0.0187146
0.0184804
0.0182981
0.0181571
0.01805
0.017972
0.0179198
0.0178914
0.0235137
0.0235705
0.0225083
0.0237176
0.0224487
0.0221346
0.0220898
0.0220689
0.022613
0.024427
0.0221142
0.021802
0.0215415
0.0213507
0.021276
0.0212243
0.0233912
0.022166
0.0217482
0.0213363
0.0209956
0.020717
0.0205323
0.0204362
0.0203867
0.0221356
0.0218453
0.0214081
0.0209669
0.0205742
0.0202631
0.0200269
0.0198672
0.0197751
0.0197308
0.0221363
0.0217161
0.021224
0.0207202
0.0202933
0.0199508
0.0196913
0.0195001
0.0193684
0.0192881
0.0192496
0.0233914
0.0218455
0.021224
0.0206402
0.0201513
0.0197734
0.0194843
0.0192665
0.0191057
0.0189935
0.0189231
0.0188892
0.0226132
0.0221662
0.0214082
0.0207202
0.0201513
0.0197148
0.0193855
0.0191351
0.0189458
0.0188055
0.0187066
0.0186437
0.0186131
0.0244271
0.0217483
0.020967
0.0202933
0.0197735
0.0193855
0.0190927
0.0188695
0.0187
0.0185738
0.0184842
0.0184269
0.0183989
0.0225084
0.0221143
0.0213364
0.0205743
0.0199509
0.0194843
0.0191351
0.0188695
0.0186659
0.0185104
0.0183942
0.0183113
0.018258
0.018232
0.0237177
0.0218021
0.0209957
0.0202631
0.0196914
0.0192665
0.0189459
0.0187
0.0185104
0.018365
0.0182559
0.0181778
0.0181276
0.0181029
0.0224488
0.0215416
0.0207171
0.020027
0.0195002
0.0191058
0.0188056
0.0185738
0.0183942
0.0182559
0.0181518
0.0180773
0.0180291
0.0180055
0.0221347
0.0213508
0.0205323
0.0198673
0.0193684
0.0189935
0.0187066
0.0184843
0.0183113
0.0181779
0.0180773
0.0180051
0.0179585
0.0179355
0.0235138
0.0220899
0.0212761
0.0204363
0.0197752
0.0192882
0.0189232
0.0186437
0.0184269
0.018258
0.0181276
0.0180291
0.0179585
0.0179127
0.0178903
0.0235706
0.022069
0.0212244
0.0203868
0.0197309
0.0192496
0.0188892
0.0186132
0.0183989
0.018232
0.0181029
0.0180055
0.0179355
0.0178903
0.0178681
0.01987
0.0198843
0.0199491
0.020331
0.0205545
0.0204389
0.0203314
0.0202908
0.0199558
0.0207998
0.0203496
0.0202716
0.0201768
0.0201381
0.0201087
0.0200834
0.0201662
0.0203634
0.020263
0.0201425
0.0200059
0.0198615
0.0197702
0.0197152
0.0196848
0.0205133
0.0202964
0.0201714
0.0199915
0.0197996
0.0196339
0.0194941
0.0193941
0.0193318
0.0193006
0.0205141
0.0202512
0.0200983
0.0198768
0.019652
0.0194494
0.0192834
0.0191521
0.0190575
0.0189976
0.018968
0.0201663
0.0202966
0.0200983
0.0198389
0.0195731
0.0193397
0.0191433
0.0189851
0.0188624
0.018774
0.0187174
0.0186897
0.019956
0.0203635
0.0201715
0.0198769
0.0195732
0.0193022
0.019074
0.0188867
0.0187378
0.0186234
0.0185409
0.0184877
0.0184616
0.0207998
0.0202631
0.0199916
0.019652
0.0193397
0.019074
0.0188544
0.0186767
0.0185364
0.0184292
0.0183518
0.0183017
0.0182771
0.0199492
0.0203497
0.0201426
0.0197997
0.0194495
0.0191433
0.0188868
0.0186767
0.0185079
0.018375
0.0182735
0.0182003
0.0181528
0.0181294
0.0203311
0.0202717
0.020006
0.019634
0.0192834
0.0189851
0.0187378
0.0185364
0.018375
0.018248
0.0181511
0.0180811
0.0180356
0.0180132
0.0205547
0.0201769
0.0198616
0.0194942
0.0191522
0.0188625
0.0186234
0.0184292
0.0182736
0.0181511
0.0180576
0.01799
0.0179461
0.0179245
0.020439
0.0201382
0.0197703
0.0193942
0.0190576
0.0187741
0.018541
0.0183518
0.0182003
0.0180811
0.01799
0.0179242
0.0178813
0.0178602
0.0198701
0.0203315
0.0201088
0.0197153
0.0193319
0.0189977
0.0187175
0.0184878
0.0183018
0.0181528
0.0180356
0.0179461
0.0178813
0.0178392
0.0178185
0.0198844
0.0202909
0.0200835
0.0196849
0.0193007
0.0189681
0.0186897
0.0184617
0.0182772
0.0181295
0.0180133
0.0179245
0.0178602
0.0178184
0.0177979
0.0185228
0.0185331
0.0186399
0.0188669
0.0191978
0.0191975
0.019145
0.0191231
0.0186548
0.0190807
0.0191207
0.0191083
0.019079
0.0190805
0.0190793
0.0190758
0.0187956
0.0191246
0.0191121
0.0191051
0.0190765
0.0190248
0.0189891
0.0189637
0.0189495
0.0192279
0.0191279
0.0191219
0.0190718
0.0190056
0.0189415
0.0188788
0.018829
0.0187944
0.0187761
0.0192285
0.0191083
0.0191033
0.0190403
0.018951
0.0188577
0.018772
0.0186975
0.0186405
0.0186024
0.018583
0.0187957
0.0191281
0.0191032
0.019029
0.0189204
0.0188043
0.0186941
0.0185972
0.0185169
0.0184564
0.0184165
0.0183965
0.0186549
0.0191247
0.019122
0.0190404
0.0189204
0.0187857
0.0186538
0.0185344
0.0184327
0.0183508
0.0182897
0.0182494
0.0182293
0.0190808
0.0191122
0.0190719
0.018951
0.0188044
0.0186539
0.0185133
0.01839
0.0182872
0.0182056
0.0181451
0.0181054
0.0180856
0.01864
0.0191208
0.0191052
0.0190058
0.0188578
0.0186942
0.0185344
0.01839
0.018266
0.0181638
0.0180834
0.0180241
0.017985
0.0179657
0.0188671
0.0191084
0.0190766
0.0189416
0.0187721
0.0185972
0.0184328
0.0182872
0.0181639
0.018063
0.0179839
0.0179258
0.0178876
0.0178686
0.019198
0.0190792
0.0190249
0.0188789
0.0186976
0.0185169
0.0183508
0.0182056
0.0180834
0.017984
0.0179062
0.0178491
0.0178116
0.017793
0.0191976
0.0190806
0.0189892
0.0188291
0.0186406
0.0184565
0.0182897
0.0181452
0.0180241
0.0179258
0.0178491
0.0177928
0.0177558
0.0177375
0.0185229
0.0191452
0.0190794
0.0189638
0.0187945
0.0186025
0.0184165
0.0182494
0.0181054
0.0179851
0.0178876
0.0178116
0.0177558
0.0177192
0.0177011
0.0185332
0.0191232
0.0190759
0.0189496
0.0187762
0.0185831
0.0183965
0.0182294
0.0180857
0.0179657
0.0178686
0.017793
0.0177375
0.0177011
0.0176831
0.0178048
0.0178129
0.0178657
0.0180143
0.0182308
0.0182743
0.0182647
0.0182631
0.0178906
0.018123
0.0182309
0.01825
0.0182555
0.0182679
0.0182762
0.0182808
0.0179805
0.0182323
0.0182586
0.0182917
0.0183102
0.0183097
0.0183068
0.0183008
0.0182965
0.0182648
0.0182543
0.0182983
0.0183117
0.018312
0.0183045
0.0182892
0.0182732
0.0182595
0.0182516
0.0182652
0.0182491
0.0183051
0.0183207
0.0183083
0.0182833
0.0182519
0.0182191
0.0181914
0.0181714
0.0181609
0.0179806
0.0182544
0.0183051
0.0183233
0.0183054
0.0182664
0.0182188
0.0181701
0.0181257
0.01809
0.0180654
0.0180528
0.0178908
0.0182324
0.0182984
0.0183207
0.0183055
0.0182604
0.0182002
0.0181365
0.0180766
0.018025
0.0179848
0.0179575
0.0179437
0.0181232
0.0182587
0.0183118
0.0183084
0.0182665
0.0182003
0.0181248
0.0180505
0.0179837
0.017928
0.0178853
0.0178565
0.0178421
0.0178658
0.0182311
0.0182919
0.0183121
0.0182834
0.0182189
0.0181365
0.0180505
0.0179697
0.0178989
0.0178409
0.0177969
0.0177674
0.0177526
0.0180145
0.0182502
0.0183103
0.0183046
0.018252
0.0181702
0.0180766
0.0179838
0.017899
0.017826
0.0177668
0.0177221
0.0176923
0.0176774
0.0182309
0.0182557
0.0183099
0.0182893
0.0182192
0.0181257
0.018025
0.017928
0.0178409
0.0177668
0.017707
0.0176621
0.0176322
0.0176173
0.0182745
0.0182681
0.0183069
0.0182733
0.0181915
0.0180901
0.0179848
0.0178853
0.0177969
0.0177222
0.0176621
0.0176172
0.0175873
0.0175724
0.0178049
0.0182648
0.0182763
0.0183009
0.0182596
0.0181715
0.0180655
0.0179575
0.0178566
0.0177674
0.0176924
0.0176323
0.0175873
0.0175575
0.0175426
0.0178131
0.0182632
0.0182809
0.0182966
0.0182517
0.018161
0.0180529
0.0179437
0.0178421
0.0177526
0.0176775
0.0176173
0.0175724
0.0175426
0.0175277
0.0172946
0.0173013
0.0173137
0.0174066
0.0175318
0.0175821
0.0175873
0.0175934
0.0173358
0.0174798
0.0175618
0.0175928
0.0176142
0.0176336
0.0176442
0.0176502
0.0173907
0.0175621
0.0176037
0.0176478
0.0176818
0.0177026
0.0177165
0.0177223
0.0177241
0.0175627
0.0175895
0.0176477
0.0176863
0.0177156
0.0177355
0.0177457
0.0177501
0.0177504
0.0177497
0.0175629
0.0175938
0.0176645
0.0177105
0.0177361
0.0177491
0.0177516
0.017747
0.0177403
0.0177341
0.0177304
0.0173908
0.0175896
0.0176644
0.017719
0.0177468
0.0177542
0.0177485
0.0177349
0.0177181
0.0177025
0.0176907
0.0176845
0.017336
0.0175623
0.0176478
0.0177106
0.0177469
0.0177557
0.0177451
0.0177233
0.017697
0.0176709
0.0176489
0.0176333
0.0176251
0.01748
0.0176038
0.0176865
0.0177362
0.0177543
0.0177451
0.0177189
0.0176845
0.0176488
0.0176163
0.0175899
0.0175715
0.0175621
0.0173139
0.0175619
0.017648
0.0177157
0.0177493
0.0177486
0.0177234
0.0176846
0.017641
0.0175987
0.0175617
0.0175325
0.0175123
0.0175021
0.0174068
0.017593
0.017682
0.0177356
0.0177517
0.017735
0.017697
0.0176489
0.0175987
0.017552
0.0175121
0.017481
0.0174597
0.0174489
0.017532
0.0176144
0.0177027
0.0177459
0.0177472
0.0177182
0.017671
0.0176163
0.0175618
0.0175121
0.0174703
0.0174379
0.0174159
0.0174049
0.0175823
0.0176338
0.0177167
0.0177503
0.0177405
0.0177026
0.017649
0.01759
0.0175325
0.017481
0.0174379
0.0174048
0.0173824
0.0173711
0.0172948
0.0175875
0.0176444
0.0177224
0.0177506
0.0177342
0.0176908
0.0176333
0.0175716
0.0175124
0.0174597
0.017416
0.0173824
0.0173597
0.0173483
0.0173015
0.0175936
0.0176504
0.0177243
0.0177499
0.0177306
0.0176845
0.0176252
0.0175622
0.0175022
0.017449
0.0174049
0.0173711
0.0173483
0.0173369
0.0168611
0.0168687
0.0168613
0.0169211
0.016988
0.0170341
0.0170432
0.017051
0.0168792
0.0169804
0.0170276
0.017059
0.0170843
0.0171072
0.0171194
0.0171261
0.0169136
0.0170277
0.0170712
0.0171153
0.0171519
0.0171788
0.0171996
0.0172114
0.0172167
0.0170148
0.0170533
0.0171119
0.0171577
0.017197
0.0172286
0.0172512
0.0172666
0.0172752
0.0172789
0.017015
0.0170609
0.0171303
0.0171855
0.0172277
0.01726
0.0172818
0.0172949
0.0173022
0.0173056
0.0173068
0.0169137
0.0170534
0.0171303
0.0171956
0.0172441
0.0172772
0.0172976
0.0173077
0.0173106
0.0173101
0.0173083
0.017307
0.0168794
0.0170278
0.017112
0.0171856
0.0172441
0.017283
0.0173041
0.0173117
0.0173105
0.0173044
0.0172972
0.0172912
0.0172878
0.0169806
0.0170714
0.0171579
0.0172278
0.0172773
0.0173042
0.0173126
0.0173086
0.0172978
0.0172845
0.0172722
0.017263
0.017258
0.0168615
0.0170279
0.0171156
0.0171972
0.0172601
0.0172977
0.0173118
0.0173086
0.017295
0.0172768
0.0172581
0.0172421
0.0172304
0.0172244
0.0169214
0.0170593
0.0171521
0.0172288
0.017282
0.0173078
0.0173105
0.0172978
0.0172768
0.017253
0.0172305
0.0172117
0.0171985
0.0171916
0.0169883
0.0170845
0.017179
0.0172514
0.0172951
0.0173108
0.0173045
0.0172846
0.0172582
0.0172305
0.0172052
0.0171846
0.0171702
0.0171628
0.0170343
0.0171074
0.0171998
0.0172668
0.0173024
0.0173102
0.0172973
0.0172723
0.0172421
0.0172118
0.0171846
0.0171628
0.0171476
0.0171399
0.0168614
0.0170435
0.0171196
0.0172116
0.0172754
0.0173058
0.0173084
0.0172913
0.017263
0.0172305
0.0171985
0.0171702
0.0171476
0.017132
0.0171241
0.0168689
0.0170513
0.0171263
0.0172169
0.0172791
0.0173069
0.0173071
0.0172879
0.0172581
0.0172244
0.0171917
0.0171628
0.0171399
0.0171241
0.017116
0.016471
0.0164791
0.0164678
0.0165071
0.0165391
0.0165775
0.0165873
0.016595
0.0164811
0.0165583
0.0165797
0.0166073
0.0166309
0.0166537
0.0166663
0.0166733
0.0165041
0.0165796
0.0166197
0.0166599
0.0166943
0.0167211
0.0167433
0.0167572
0.0167641
0.0165615
0.0166011
0.016655
0.0167004
0.0167412
0.0167762
0.0168035
0.016824
0.0168368
0.0168429
0.0165617
0.0166089
0.0166721
0.0167273
0.0167747
0.0168151
0.0168467
0.0168696
0.0168854
0.0168948
0.0168992
0.0165043
0.0166013
0.0166721
0.0167371
0.0167927
0.0168382
0.0168731
0.0168977
0.0169137
0.0169235
0.0169288
0.0169311
0.0164814
0.0165798
0.0166552
0.0167274
0.0167928
0.0168461
0.0168855
0.016912
0.0169281
0.0169366
0.0169406
0.016942
0.0169424
0.0165586
0.01662
0.0167006
0.0167749
0.0168383
0.0168856
0.0169164
0.0169338
0.0169416
0.0169434
0.0169424
0.0169406
0.0169394
0.0164681
0.01658
0.0166602
0.0167415
0.0168152
0.0168732
0.0169121
0.0169338
0.0169427
0.0169435
0.0169398
0.0169349
0.0169305
0.016928
0.0165074
0.0166076
0.0166946
0.0167764
0.0168469
0.0168979
0.0169282
0.0169416
0.0169435
0.0169386
0.0169307
0.0169228
0.0169165
0.0169131
0.0165394
0.0166313
0.0167214
0.0168038
0.0168699
0.0169139
0.0169367
0.0169435
0.0169399
0.0169308
0.0169198
0.0169097
0.0169021
0.016898
0.0165778
0.016654
0.0167436
0.0168243
0.0168856
0.0169236
0.0169407
0.0169425
0.0169349
0.0169228
0.0169097
0.016898
0.0168895
0.016885
0.0164713
0.0165876
0.0166666
0.0167575
0.016837
0.016895
0.0169289
0.0169421
0.0169407
0.0169306
0.0169166
0.0169021
0.0168895
0.0168804
0.0168756
0.0164793
0.0165953
0.0166736
0.0167643
0.0168431
0.0168993
0.0169312
0.0169425
0.0169394
0.0169281
0.0169132
0.016898
0.016885
0.0168756
0.0168707
0.0161156
0.0161232
0.0161143
0.0161408
0.0161522
0.016183
0.016192
0.0161988
0.0161241
0.0161857
0.0161899
0.0162131
0.0162337
0.0162542
0.016266
0.0162727
0.0161408
0.0161899
0.016225
0.0162603
0.0162909
0.0163154
0.0163364
0.0163502
0.0163573
0.0161712
0.0162077
0.0162552
0.0162969
0.0163354
0.0163695
0.0163974
0.0164193
0.0164336
0.0164408
0.0161714
0.0162148
0.0162702
0.0163213
0.016368
0.01641
0.0164452
0.0164727
0.0164927
0.0165055
0.0165117
0.016141
0.0162079
0.0162702
0.0163301
0.0163856
0.016435
0.0164766
0.016509
0.0165327
0.0165489
0.0165589
0.0165636
0.0161244
0.0161902
0.0162554
0.0163214
0.0163857
0.0164437
0.016492
0.0165294
0.0165564
0.0165747
0.0165864
0.0165933
0.0165964
0.016186
0.0162254
0.0162972
0.0163682
0.0164352
0.0164921
0.0165359
0.0165671
0.0165878
0.0166006
0.0166081
0.016612
0.0166137
0.0161147
0.0161904
0.0162607
0.0163357
0.0164102
0.0164768
0.0165295
0.0165672
0.0165918
0.0166065
0.0166145
0.0166183
0.0166198
0.0166202
0.0161412
0.0162136
0.0162913
0.0163698
0.0164455
0.0165092
0.0165565
0.0165879
0.0166066
0.0166162
0.0166201
0.016621
0.0166206
0.0166201
0.0161526
0.0162341
0.0163158
0.0163978
0.0164729
0.0165329
0.0165748
0.0166007
0.0166145
0.0166202
0.016621
0.0166196
0.0166178
0.0166166
0.0161834
0.0162546
0.0163368
0.0164196
0.016493
0.0165492
0.0165866
0.0166082
0.0166183
0.016621
0.0166197
0.0166167
0.0166139
0.0166122
0.0161159
0.0161924
0.0162663
0.0163505
0.0164339
0.0165057
0.0165591
0.0165934
0.0166121
0.0166198
0.0166206
0.0166178
0.0166139
0.0166104
0.0166084
0.0161234
0.0161991
0.016273
0.0163576
0.016441
0.0165119
0.0165638
0.0165965
0.0166138
0.0166203
0.0166201
0.0166167
0.0166122
0.0166084
0.0166063
0.0157895
0.0157961
0.0157905
0.0158088
0.0158076
0.0158321
0.0158399
0.0158455
0.015798
0.0158483
0.0158412
0.0158605
0.0158778
0.0158955
0.0159058
0.0159118
0.0158111
0.0158414
0.0158715
0.0159019
0.0159283
0.0159498
0.0159686
0.0159812
0.0159879
0.0158242
0.0158563
0.0158972
0.0159341
0.0159687
0.016
0.0160263
0.0160474
0.0160617
0.0160689
0.0158243
0.0158625
0.0159102
0.0159556
0.0159987
0.0160388
0.0160739
0.0161024
0.0161239
0.0161381
0.0161451
0.0158114
0.0158565
0.0159103
0.0159634
0.016015
0.0160635
0.0161066
0.0161421
0.0161696
0.0161893
0.016202
0.0162081
0.0157985
0.0158418
0.0158976
0.0159558
0.0160151
0.0160721
0.0161231
0.0161655
0.0161984
0.0162227
0.0162394
0.0162498
0.0162548
0.0158488
0.015872
0.0159345
0.015999
0.0160637
0.0161232
0.0161732
0.0162122
0.0162411
0.0162613
0.0162747
0.0162828
0.0162865
0.015791
0.0158418
0.0159024
0.0159691
0.0160392
0.0161068
0.0161656
0.0162123
0.016247
0.0162713
0.0162876
0.0162979
0.0163038
0.0163065
0.0158093
0.015861
0.0159288
0.0160004
0.0160743
0.0161424
0.0161986
0.0162412
0.0162713
0.0162915
0.0163043
0.016312
0.0163162
0.016318
0.0158081
0.0158784
0.0159503
0.0160267
0.0161027
0.0161698
0.0162229
0.0162615
0.0162876
0.0163043
0.0163144
0.01632
0.0163228
0.016324
0.0158327
0.015896
0.0159691
0.0160478
0.0161243
0.0161896
0.0162396
0.0162749
0.0162979
0.016312
0.01632
0.0163241
0.016326
0.0163267
0.0157898
0.0158403
0.0159062
0.0159816
0.016062
0.0161384
0.0162022
0.01625
0.0162829
0.0163039
0.0163163
0.0163229
0.016326
0.0163272
0.0163276
0.0157963
0.0158459
0.0159122
0.0159882
0.0160692
0.0161454
0.0162083
0.0162549
0.0162867
0.0163066
0.0163181
0.016324
0.0163267
0.0163276
0.0163278
0.0154869
0.0154924
0.0154896
0.015503
0.015493
0.0155127
0.0155191
0.0155236
0.0154957
0.0155375
0.0155224
0.0155384
0.015553
0.0155678
0.0155764
0.0155816
0.0155065
0.0155231
0.0155486
0.0155744
0.0155969
0.0156153
0.0156315
0.0156425
0.0156484
0.015508
0.0155358
0.0155707
0.0156025
0.0156326
0.0156602
0.0156838
0.0157031
0.0157163
0.0157231
0.0155082
0.0155413
0.0155819
0.0156212
0.0156594
0.0156959
0.0157286
0.015756
0.0157772
0.0157914
0.0157985
0.0155069
0.0155361
0.015582
0.0156281
0.0156741
0.015719
0.0157604
0.0157958
0.0158242
0.0158453
0.0158591
0.015866
0.0154963
0.0155237
0.0155711
0.0156215
0.0156742
0.0157271
0.0157767
0.01582
0.0158554
0.0158825
0.015902
0.0159145
0.0159206
0.0155382
0.0155493
0.0156031
0.0156598
0.0157192
0.0157768
0.0158281
0.0158707
0.0159039
0.0159286
0.0159458
0.0159565
0.0159617
0.0154904
0.0155232
0.0155751
0.0156332
0.0156963
0.0157607
0.0158202
0.0158707
0.0159109
0.0159412
0.0159629
0.0159777
0.0159868
0.0159911
0.0155038
0.0155392
0.0155976
0.0156608
0.0157291
0.0157962
0.0158556
0.0159041
0.0159412
0.0159684
0.0159874
0.0160001
0.0160077
0.0160113
0.0154937
0.0155537
0.015616
0.0156844
0.0157565
0.0158246
0.0158828
0.0159287
0.015963
0.0159875
0.0160042
0.0160151
0.0160215
0.0160245
0.0155134
0.0155685
0.0156321
0.0157036
0.0157776
0.0158457
0.0159023
0.0159459
0.0159778
0.0160001
0.0160151
0.0160247
0.0160302
0.0160328
0.0154873
0.0155197
0.015577
0.015643
0.0157168
0.0157918
0.0158595
0.0159147
0.0159567
0.0159869
0.0160078
0.0160216
0.0160302
0.0160352
0.0160375
0.0154928
0.0155241
0.0155821
0.0156488
0.0157235
0.0157989
0.0158662
0.0159208
0.0159619
0.0159912
0.0160114
0.0160246
0.0160328
0.0160375
0.0160396
0.0152027
0.0152074
0.0152066
0.0152172
0.0152006
0.0152167
0.0152217
0.0152255
0.0152117
0.0152472
0.0152264
0.0152397
0.0152518
0.0152641
0.015271
0.0152754
0.0152211
0.0152277
0.0152492
0.0152709
0.0152898
0.0153052
0.0153187
0.0153279
0.0153329
0.0152147
0.0152387
0.0152682
0.0152952
0.0153209
0.0153445
0.0153649
0.0153817
0.0153934
0.0153995
0.015215
0.0152435
0.015278
0.0153114
0.0153443
0.0153762
0.0154055
0.0154304
0.01545
0.0154634
0.0154702
0.0152217
0.0152391
0.0152782
0.0153174
0.0153572
0.0153971
0.0154349
0.0154682
0.0154957
0.0155165
0.0155304
0.0155373
0.0152126
0.0152285
0.0152689
0.0153118
0.0153574
0.0154045
0.0154503
0.0154918
0.0155269
0.0155547
0.0155752
0.0155885
0.0155951
0.0152481
0.0152501
0.015296
0.0153449
0.0153974
0.0154505
0.0154998
0.0155425
0.0155773
0.015604
0.0156233
0.0156356
0.0156416
0.0152076
0.0152275
0.0152719
0.0153217
0.0153768
0.0154353
0.015492
0.0155426
0.0155848
0.0156181
0.015643
0.0156606
0.0156717
0.0156771
0.0152182
0.0152408
0.0152907
0.0153453
0.0154061
0.0154687
0.0155272
0.0155775
0.0156181
0.0156495
0.0156725
0.0156884
0.0156984
0.0157032
0.0152016
0.0152527
0.015306
0.0153656
0.015431
0.0154961
0.015555
0.0156042
0.0156431
0.0156725
0.0156938
0.0157083
0.0157174
0.0157217
0.0152176
0.0152649
0.0153194
0.0153824
0.0154506
0.0155169
0.0155755
0.0156235
0.0156607
0.0156885
0.0157084
0.0157219
0.0157302
0.0157341
0.0152034
0.0152224
0.0152717
0.0153286
0.015394
0.0154639
0.0155308
0.0155888
0.0156358
0.0156719
0.0156985
0.0157174
0.0157302
0.015738
0.0157417
0.0152078
0.0152261
0.015276
0.0153335
0.0153999
0.0154706
0.0155376
0.0155954
0.0156418
0.0156772
0.0157033
0.0157217
0.0157341
0.0157417
0.0157453
0.0149328
0.0149368
0.0149375
0.0149469
0.0149253
0.0149385
0.0149421
0.0149454
0.0149423
0.0149729
0.0149481
0.0149592
0.014969
0.014979
0.0149843
0.014988
0.0149509
0.01495
0.0149681
0.0149862
0.0150018
0.0150142
0.0150251
0.0150325
0.0150367
0.0149392
0.0149598
0.0149847
0.0150072
0.0150284
0.0150481
0.015065
0.0150791
0.015089
0.0150942
0.0149396
0.0149642
0.0149933
0.0150212
0.0150487
0.0150756
0.0151007
0.0151224
0.0151397
0.0151517
0.0151579
0.0149518
0.0149605
0.0149936
0.0150264
0.0150598
0.0150939
0.015127
0.0151569
0.0151821
0.0152016
0.0152148
0.0152214
0.0149435
0.0149512
0.0149856
0.0150217
0.0150601
0.0151005
0.015141
0.0151789
0.0152119
0.0152387
0.0152589
0.0152723
0.015279
0.0149742
0.0149694
0.0150082
0.0150494
0.0150944
0.0151412
0.0151864
0.015227
0.0152612
0.0152883
0.0153082
0.0153211
0.0153275
0.0149389
0.0149496
0.0149875
0.0150295
0.0150764
0.0151275
0.0151792
0.0152272
0.0152688
0.0153028
0.0153291
0.0153481
0.0153604
0.0153664
0.0149482
0.0149606
0.015003
0.0150491
0.0151015
0.0151575
0.0152123
0.0152615
0.0153029
0.0153361
0.0153612
0.0153792
0.0153906
0.0153962
0.0149267
0.0149703
0.0150154
0.015066
0.0151232
0.0151827
0.0152391
0.0152885
0.0153293
0.0153613
0.0153853
0.0154022
0.015413
0.0154182
0.0149396
0.0149801
0.0150261
0.01508
0.0151404
0.0152021
0.0152593
0.0153084
0.0153483
0.0153793
0.0154022
0.0154184
0.0154286
0.0154335
0.0149337
0.0149431
0.0149852
0.0150333
0.0150897
0.0151523
0.0152152
0.0152726
0.0153214
0.0153606
0.0153907
0.015413
0.0154286
0.0154384
0.0154432
0.0149374
0.0149461
0.0149887
0.0150373
0.0150947
0.0151583
0.0152218
0.0152793
0.0153277
0.0153665
0.0153963
0.0154182
0.0154335
0.0154432
0.0154478
0.0146738
0.0146775
0.0146795
0.014688
0.0146636
0.0146745
0.0146766
0.0146795
0.0146844
0.0147114
0.0146842
0.0146932
0.0147009
0.0147087
0.0147125
0.0147155
0.0146926
0.0146868
0.0147018
0.0147166
0.014729
0.0147386
0.0147468
0.0147524
0.0147557
0.0146782
0.0146958
0.0147164
0.0147346
0.0147515
0.014767
0.0147805
0.0147916
0.0147995
0.0148037
0.0146787
0.0146998
0.014724
0.0147465
0.0147685
0.0147903
0.0148108
0.0148289
0.0148435
0.0148537
0.014859
0.0146939
0.0146967
0.0147244
0.0147511
0.014778
0.0148059
0.0148336
0.0148594
0.0148814
0.0148988
0.0149108
0.0149168
0.0146861
0.0146885
0.0147177
0.0147473
0.0147784
0.0148117
0.014846
0.0148791
0.0149088
0.0149335
0.0149525
0.0149653
0.0149717
0.0147133
0.0147036
0.014736
0.0147695
0.0148065
0.0148462
0.014886
0.0149229
0.014955
0.0149811
0.0150006
0.0150135
0.01502
0.0146815
0.0146863
0.0147184
0.014753
0.0147914
0.0148344
0.0148795
0.0149231
0.0149624
0.0149955
0.0150217
0.0150411
0.0150538
0.0150601
0.0146899
0.0146951
0.0147307
0.0147685
0.0148119
0.0148601
0.0149093
0.0149553
0.0149956
0.0150288
0.0150547
0.0150736
0.0150859
0.0150919
0.0146654
0.0147026
0.0147401
0.0147817
0.0148299
0.0148822
0.014934
0.0149814
0.0150219
0.0150548
0.0150801
0.0150984
0.0151102
0.015116
0.0146759
0.0147101
0.0147481
0.0147927
0.0148444
0.0148995
0.014953
0.0150009
0.0150413
0.0150737
0.0150984
0.0151162
0.0151276
0.0151332
0.014675
0.0146778
0.0147136
0.0147534
0.0148003
0.0148544
0.0149113
0.0149657
0.0150138
0.015054
0.015086
0.0151102
0.0151276
0.0151387
0.0151442
0.0146784
0.0146804
0.0147163
0.0147564
0.0148044
0.0148596
0.0149173
0.014972
0.0150202
0.0150602
0.015092
0.015116
0.0151332
0.0151442
0.0151495
0.0144233
0.0144269
0.0144305
0.0144385
0.0144136
0.0144221
0.0144224
0.0144252
0.0144355
0.0144604
0.0144321
0.0144392
0.0144447
0.0144502
0.0144523
0.0144548
0.0144441
0.0144356
0.0144476
0.0144592
0.0144684
0.014475
0.0144805
0.014484
0.0144865
0.01443
0.014444
0.0144605
0.0144743
0.0144868
0.0144981
0.0145078
0.0145158
0.0145216
0.0145248
0.0144307
0.0144479
0.0144672
0.0144843
0.0145006
0.0145169
0.0145326
0.0145467
0.0145583
0.0145666
0.0145709
0.014446
0.0144454
0.0144678
0.0144882
0.0145084
0.0145298
0.0145517
0.0145727
0.0145912
0.0146061
0.0146164
0.0146218
0.014438
0.014438
0.0144623
0.0144854
0.0145089
0.0145346
0.0145622
0.0145898
0.0146155
0.0146375
0.0146547
0.0146664
0.0146724
0.0144632
0.0144502
0.0144763
0.014502
0.0145306
0.0145625
0.014596
0.0146284
0.0146574
0.0146816
0.0147001
0.0147125
0.0147188
0.0144334
0.0144351
0.0144618
0.0144888
0.0145184
0.0145527
0.0145904
0.0146286
0.0146643
0.0146954
0.0147207
0.0147397
0.0147523
0.0147586
0.0144412
0.0144419
0.0144708
0.0145
0.0145341
0.0145737
0.0146161
0.0146577
0.0146955
0.0147277
0.0147533
0.0147724
0.0147849
0.0147911
0.014416
0.0144469
0.0144769
0.0145094
0.014548
0.0145921
0.0146381
0.014682
0.0147209
0.0147534
0.0147791
0.0147979
0.0148102
0.0148163
0.014424
0.0144519
0.014482
0.0145171
0.0145594
0.0146069
0.0146552
0.0147005
0.0147399
0.0147725
0.0147979
0.0148165
0.0148286
0.0148346
0.0144248
0.0144239
0.0144537
0.0144853
0.0145226
0.0145674
0.0146171
0.0146669
0.0147129
0.0147526
0.014785
0.0148103
0.0148286
0.0148406
0.0148464
0.014428
0.0144263
0.0144558
0.0144874
0.0145255
0.0145716
0.0146223
0.0146728
0.014719
0.0147588
0.0147912
0.0148164
0.0148346
0.0148464
0.0148523
0.0141788
0.0141826
0.0141884
0.0141969
0.0141743
0.0141798
0.0141778
0.0141807
0.0141937
0.0142179
0.0141904
0.0141955
0.0141981
0.0142007
0.0142011
0.0142033
0.0142032
0.0141949
0.0142037
0.0142117
0.0142174
0.0142204
0.0142227
0.0142242
0.0142258
0.0141951
0.0142026
0.0142147
0.0142236
0.0142311
0.0142379
0.0142435
0.0142482
0.0142517
0.0142539
0.0141961
0.0142062
0.0142202
0.0142313
0.0142415
0.014252
0.0142627
0.0142726
0.014281
0.0142872
0.0142906
0.014206
0.0142045
0.014221
0.0142345
0.0142475
0.0142619
0.0142778
0.0142939
0.0143086
0.0143208
0.0143295
0.0143341
0.0141975
0.0141985
0.0142173
0.0142328
0.0142481
0.0142659
0.0142864
0.0143083
0.0143297
0.0143486
0.0143638
0.0143743
0.0143797
0.0142222
0.0142076
0.0142264
0.0142433
0.014263
0.0142868
0.0143137
0.0143411
0.0143667
0.0143886
0.0144058
0.0144175
0.0144234
0.0141927
0.0141948
0.0142154
0.0142339
0.0142539
0.014279
0.014309
0.0143413
0.014373
0.0144016
0.0144254
0.0144436
0.0144559
0.0144621
0.0142006
0.0141992
0.0142206
0.0142404
0.0142644
0.0142951
0.0143304
0.0143671
0.0144017
0.0144321
0.014457
0.0144757
0.0144882
0.0144944
0.0141775
0.0142011
0.014223
0.0142455
0.0142741
0.0143097
0.0143493
0.014389
0.0144256
0.0144571
0.0144824
0.0145013
0.0145138
0.01452
0.0141821
0.014203
0.0142247
0.0142498
0.0142823
0.0143217
0.0143644
0.0144062
0.0144439
0.0144758
0.0145013
0.0145202
0.0145327
0.0145388
0.0141806
0.0141795
0.0142027
0.0142256
0.0142529
0.0142882
0.0143302
0.0143748
0.0144178
0.0144561
0.0144883
0.0145139
0.0145327
0.0145451
0.0145512
0.0141839
0.014182
0.0142044
0.0142268
0.0142548
0.0142914
0.0143346
0.0143801
0.0144236
0.0144623
0.0144945
0.0145201
0.0145389
0.0145512
0.0145573
0.0139363
0.0139409
0.0139501
0.0139614
0.0139471
0.0139466
0.0139411
0.013945
0.0139557
0.0139824
0.0139587
0.0139608
0.0139593
0.0139577
0.0139559
0.0139579
0.0139678
0.0139642
0.0139683
0.0139713
0.0139727
0.0139714
0.0139697
0.0139688
0.0139696
0.0139839
0.0139694
0.0139762
0.0139788
0.0139805
0.0139821
0.0139833
0.0139846
0.0139859
0.0139872
0.0139854
0.0139723
0.0139791
0.0139836
0.0139867
0.0139911
0.0139967
0.0140025
0.0140079
0.0140122
0.0140148
0.0139721
0.0139722
0.0139803
0.0139857
0.0139907
0.013998
0.0140079
0.0140193
0.0140305
0.0140402
0.0140474
0.0140512
0.0139618
0.0139697
0.0139799
0.0139856
0.0139915
0.014001
0.0140147
0.0140312
0.0140485
0.0140646
0.0140778
0.0140872
0.0140921
0.0139895
0.0139742
0.0139828
0.0139892
0.0139993
0.0140152
0.0140358
0.0140585
0.0140809
0.0141006
0.0141164
0.0141273
0.0141329
0.0139567
0.0139654
0.0139767
0.0139843
0.0139936
0.0140094
0.014032
0.0140588
0.0140867
0.0141127
0.014135
0.0141524
0.0141642
0.0141701
0.0139667
0.013966
0.013977
0.0139853
0.0139988
0.0140207
0.0140494
0.0140813
0.0141129
0.0141414
0.0141653
0.0141836
0.0141958
0.014202
0.0139514
0.0139632
0.0139746
0.0139858
0.0140042
0.0140317
0.0140654
0.0141011
0.0141352
0.0141654
0.0141901
0.0142088
0.0142214
0.0142276
0.0139495
0.0139604
0.013972
0.0139864
0.0140093
0.0140412
0.0140785
0.0141168
0.0141526
0.0141837
0.0142089
0.0142278
0.0142404
0.0142467
0.0139385
0.0139431
0.0139577
0.0139704
0.0139872
0.0140132
0.0140481
0.0140878
0.0141277
0.0141644
0.014196
0.0142214
0.0142404
0.014253
0.0142593
0.0139423
0.0139464
0.0139592
0.0139707
0.0139881
0.0140155
0.0140518
0.0140925
0.0141332
0.0141703
0.0142021
0.0142276
0.0142467
0.0142593
0.0142655
0.0136883
0.0136952
0.0137084
0.0137298
0.013739
0.0137211
0.0137097
0.0137165
0.0137148
0.0137536
0.0137372
0.013734
0.0137255
0.013717
0.0137119
0.0137144
0.0137356
0.0137435
0.0137385
0.0137337
0.0137288
0.0137217
0.0137157
0.0137122
0.0137125
0.0138229
0.0137468
0.0137398
0.0137339
0.0137288
0.0137248
0.0137215
0.0137196
0.013719
0.0137196
0.0138249
0.0137524
0.01374
0.0137347
0.0137302
0.0137286
0.0137295
0.0137318
0.0137348
0.0137377
0.0137396
0.0137422
0.0137505
0.0137414
0.0137356
0.013732
0.0137326
0.0137375
0.013745
0.0137535
0.0137613
0.0137674