/*--------------------------------*- C++ -*----------------------------------*\
| =========                 |                                                 |
| \\      /  F ield         | OpenFOAM: The Open Source CFD Toolbox           |
|  \\    /   O peration     | Version:  2.1.1                                 |
|   \\  /    A nd           | Web:      www.OpenFOAM.org                      |
|    \\/     M anipulation  |                                                 |
\*---------------------------------------------------------------------------*/
FoamFile
{
    version     2.0;
    format      ascii;
    class       volScalarField;
    location    "0.005";
    object      p;
}
// * * * * * * * * * * * * * * * * * * * * * * * * * * * * * * * * * * * * * //

dimensions      [0 2 -2 0 0 0 0];

internalField   nonuniform List<scalar> 
10266
(
0.0544633
0.0548673
0.0562414
0.0519485
0.0519782
0.0518621
0.052054
0.0604829
0.0548546
0.0517436
0.051738
0.0517825
0.0517358
0.0518458
0.0519793
0.0624487
0.0550036
0.051887
0.051894
0.0518602
0.0518872
0.0518186
0.0518089
0.0518844
0.0519857
0.0602854
0.0571092
0.051797
0.0517995
0.0518078
0.0518102
0.0518227
0.0518476
0.0517922
0.0518031
0.0518477
0.0520802
0.0728126
0.0518574
0.0518587
0.0518491
0.0518533
0.0518391
0.0518406
0.0518505
0.0518421
0.0518564
0.0516903
0.0520685
0.070486
0.0518229
0.0518244
0.0518254
0.0518288
0.0518287
0.0518352
0.0518278
0.0518331
0.0518434
0.0518561
0.0518469
0.0645462
0.0518492
0.0518496
0.051846
0.0518471
0.0518415
0.0518432
0.0518398
0.0518417
0.0518333
0.0518424
0.0518033
0.0519863
0.0618811
0.0518366
0.0518375
0.0518363
0.0518384
0.051835
0.0518392
0.0518322
0.0518399
0.0518281
0.051851
0.0517927
0.0518851
0.0630134
0.0549662
0.0518501
0.0518504
0.0518478
0.0518484
0.0518436
0.0518455
0.0518394
0.0518435
0.0518357
0.0518413
0.0518483
0.0518097
0.0519802
0.0600618
0.0518459
0.0518465
0.0518442
0.0518455
0.0518406
0.0518437
0.0518354
0.0518419
0.0518293
0.0518398
0.0518236
0.0518196
0.0518467
0.0624062
0.0518533
0.0518536
0.0518508
0.0518516
0.0518458
0.0518488
0.0518391
0.0518478
0.0518298
0.0518543
0.0518112
0.0518883
0.0517367
0.0520551
0.067936
0.0518522
0.0518526
0.0518498
0.051851
0.0518448
0.0518484
0.0518372
0.0518469
0.0518266
0.0518503
0.0518091
0.0518615
0.0517836
0.0518632
0.0637682
0.0518556
0.051856
0.0518529
0.0518541
0.0518473
0.0518514
0.0518388
0.0518508
0.0518258
0.0518601
0.0518009
0.0518955
0.0517391
0.0519794
0.063545
0.0518554
0.0518559
0.0518528
0.0518542
0.0518472
0.0518515
0.0518382
0.0518506
0.0518246
0.0518591
0.0517987
0.0518887
0.0517451
0.0519502
0.0628875
0.0533969
0.0538012
0.0551754
0.0508839
0.0509141
0.0507971
0.0509885
0.0594175
0.0537888
0.0506774
0.0506774
0.0507166
0.0506696
0.0507796
0.0509133
0.061383
0.0539376
0.0508213
0.0508246
0.0507947
0.0508217
0.0507531
0.0507433
0.0508188
0.05092
0.0592199
0.0560436
0.0507289
0.0507293
0.0507404
0.0507434
0.0507568
0.0507812
0.050726
0.050737
0.0507807
0.0510049
0.0716809
0.0507916
0.0507926
0.0507833
0.0507876
0.050773
0.0507748
0.0507849
0.0507762
0.0507902
0.0506245
0.0510109
0.0694193
0.0507556
0.0507572
0.0507584
0.0507619
0.0507622
0.0507686
0.0507614
0.0507671
0.0507774
0.0507906
0.0507817
0.063481
0.0507819
0.0507824
0.0507789
0.0507801
0.0507747
0.0507766
0.0507736
0.0507753
0.0507672
0.0507766
0.0507374
0.0509206
0.0608157
0.0507686
0.0507696
0.0507685
0.0507708
0.0507677
0.0507722
0.0507653
0.0507737
0.0507617
0.0507854
0.0507265
0.0508194
0.0619478
0.0539003
0.0507818
0.0507821
0.0507796
0.0507805
0.050776
0.0507782
0.0507724
0.0507769
0.0507692
0.0507755
0.050782
0.0507441
0.0509141
0.0589962
0.0507768
0.0507775
0.0507754
0.0507771
0.0507726
0.0507761
0.0507682
0.0507751
0.050763
0.0507738
0.0507578
0.0507541
0.0507806
0.0613408
0.0507838
0.0507842
0.0507817
0.0507828
0.0507775
0.050781
0.0507716
0.0507809
0.050763
0.0507888
0.0507444
0.0508229
0.0506706
0.0509896
0.0668707
0.0507823
0.0507829
0.0507803
0.0507819
0.0507761
0.0507803
0.0507696
0.0507799
0.0507599
0.0507847
0.0507418
0.0507961
0.0507179
0.0507984
0.0627029
0.0507855
0.050786
0.0507832
0.0507848
0.0507785
0.0507831
0.0507709
0.0507838
0.0507587
0.0507942
0.0507307
0.0508261
0.0506788
0.0509155
0.0624795
0.0507852
0.0507858
0.050783
0.0507847
0.0507781
0.0507831
0.0507703
0.0507836
0.0507575
0.0507936
0.0507309
0.0508233
0.0506791
0.0508856
0.0618219
0.0523307
0.052735
0.0541092
0.0498174
0.0498462
0.0497309
0.0499225
0.058352
0.052723
0.0496096
0.0496022
0.0496485
0.0496031
0.0497133
0.0498471
0.0603172
0.0528716
0.0497568
0.0497638
0.0497299
0.0497561
0.0496874
0.0496775
0.0497529
0.0498541
0.0581541
0.0549775
0.0496626
0.0496677
0.0496743
0.0496766
0.0496906
0.0497149
0.0496596
0.0496709
0.049715
0.0499439
0.0706508
0.0497263
0.0497278
0.0497177
0.0497218
0.0497068
0.0497088
0.0497191
0.0497101
0.0497244
0.0495586
0.0499403
0.0683546
0.0496883
0.0496899
0.0496916
0.0496949
0.0496958
0.049702
0.0496949
0.0497008
0.0497112
0.0497243
0.049715
0.0624152
0.0497151
0.0497155
0.0497119
0.0497131
0.0497079
0.0497099
0.0497073
0.0497089
0.049701
0.0497104
0.0496711
0.0498546
0.0597498
0.0497008
0.0497017
0.0497008
0.0497033
0.0497005
0.0497052
0.0496984
0.0497074
0.0496953
0.0497197
0.04966
0.0497535
0.0608819
0.0528341
0.0497135
0.0497139
0.0497116
0.0497126
0.0497086
0.049711
0.0497055
0.0497102
0.0497024
0.0497096
0.0497157
0.0496782
0.0498479
0.0579303
0.049708
0.0497088
0.049707
0.049709
0.0497048
0.0497087
0.0497011
0.0497083
0.0496966
0.0497078
0.0496916
0.0496883
0.0497143
0.0602752
0.0497146
0.0497151
0.0497129
0.0497143
0.0497094
0.0497132
0.0497042
0.0497141
0.049696
0.049723
0.0496776
0.0497572
0.0496041
0.0499238
0.0658052
0.0497128
0.0497135
0.0497112
0.0497131
0.0497077
0.0497124
0.049702
0.049713
0.049693
0.0497191
0.0496756
0.0497313
0.0496498
0.0497322
0.0616371
0.0497158
0.0497165
0.0497139
0.0497157
0.0497098
0.0497148
0.0497031
0.0497168
0.0496914
0.0497293
0.0496691
0.0497652
0.0496035
0.0498476
0.0614135
0.0497155
0.0497162
0.0497136
0.0497155
0.0497094
0.0497147
0.0497024
0.0497166
0.0496902
0.0497283
0.0496644
0.0497586
0.0496111
0.0498189
0.0607556
0.0512647
0.0516688
0.0530429
0.0487527
0.0487825
0.0486655
0.0488566
0.0572862
0.0516569
0.0485438
0.048546
0.0485831
0.0485366
0.0486469
0.0487806
0.0592511
0.0518053
0.0486906
0.0486943
0.0486639
0.0486901
0.0486213
0.0486114
0.0486868
0.0487879
0.057088
0.0539114
0.0485944
0.0485928
0.0486064
0.0486097
0.0486243
0.0486483
0.0485931
0.0486045
0.0486483
0.0488743
0.0695633
0.0486602
0.0486602
0.0486514
0.0486556
0.0486406
0.0486425
0.0486531
0.048644
0.0486581
0.0484925
0.0488769
0.0672884
0.0486208
0.0486224
0.0486245
0.0486277
0.0486294
0.0486355
0.0486286
0.0486346
0.048645
0.0486583
0.048649
0.0613493
0.0486481
0.0486484
0.048645
0.0486463
0.0486411
0.0486433
0.0486413
0.0486427
0.0486346
0.0486443
0.0486048
0.0487885
0.0586838
0.0486329
0.0486339
0.0486333
0.048636
0.0486336
0.0486383
0.0486314
0.048641
0.0486287
0.0486537
0.0485936
0.0486874
0.0598158
0.051768
0.0486451
0.0486456
0.0486437
0.0486449
0.0486412
0.0486437
0.0486386
0.0486435
0.0486361
0.0486431
0.0486491
0.0486121
0.0487815
0.0568644
0.0486393
0.0486403
0.0486388
0.0486409
0.0486371
0.0486412
0.0486341
0.0486416
0.0486301
0.0486415
0.0486251
0.0486222
0.0486478
0.0592095
0.0486455
0.0486462
0.0486442
0.0486458
0.0486413
0.0486453
0.0486368
0.0486473
0.0486288
0.0486567
0.0486106
0.0486911
0.0485376
0.048858
0.0647395
0.0486436
0.0486445
0.0486424
0.0486444
0.0486394
0.0486444
0.0486345
0.0486461
0.0486258
0.0486528
0.0486075
0.0486653
0.0485844
0.048667
0.0605711
0.0486466
0.0486472
0.0486449
0.0486468
0.0486413
0.0486466
0.0486353
0.0486498
0.0486238
0.0486616
0.0485937
0.0486958
0.0485476
0.048784
0.0603473
0.0486462
0.0486469
0.0486445
0.0486466
0.0486408
0.0486465
0.0486345
0.0486496
0.0486225
0.048662
0.0485961
0.0486924
0.0485454
0.0487542
0.0596895
0.0501984
0.0506023
0.0519766
0.0476847
0.0477127
0.0475982
0.0477901
0.0562199
0.0505904
0.0474752
0.0474659
0.0475139
0.0474698
0.0475803
0.0477141
0.0581847
0.050739
0.0476256
0.047631
0.0475984
0.047624
0.0475551
0.0475451
0.0476206
0.0477217
0.0560219
0.0528454
0.0475288
0.0475377
0.0475413
0.0475431
0.0475579
0.0475817
0.0475265
0.0475382
0.0475823
0.0478105
0.0685128
0.0475948
0.047597
0.0475861
0.0475895
0.0475742
0.047576
0.0475868
0.047578
0.047592
0.0474266
0.0478083
0.0662227
0.0475535
0.0475555
0.0475576
0.0475606
0.0475628
0.047569
0.0475619
0.0475682
0.0475788
0.0475921
0.0475824
0.0602833
0.0475809
0.0475813
0.0475782
0.0475794
0.0475744
0.0475765
0.0475745
0.0475765
0.0475683
0.0475782
0.0475384
0.0477224
0.0576177
0.047565
0.0475663
0.047566
0.0475687
0.0475666
0.0475714
0.0475651
0.0475747
0.0475622
0.0475876
0.0475271
0.0476213
0.0587495
0.0507017
0.0475768
0.0475774
0.0475758
0.047577
0.0475737
0.0475764
0.0475719
0.0475769
0.0475695
0.0475767
0.0475824
0.047546
0.047715
0.0557982
0.0475709
0.047572
0.0475707
0.047573
0.0475695
0.0475738
0.0475671
0.047575
0.0475634
0.0475752
0.0475587
0.0475561
0.0475814
0.0581434
0.0475767
0.0475775
0.0475757
0.0475774
0.0475733
0.0475775
0.0475694
0.0475803
0.0475616
0.0475906
0.0475441
0.0476252
0.0474709
0.0477915
0.0636732
0.0475748
0.0475756
0.0475736
0.0475759
0.0475713
0.0475765
0.047567
0.0475793
0.0475588
0.0475876
0.0475425
0.0476
0.0475153
0.0475998
0.0595046
0.0475775
0.0475781
0.047576
0.047578
0.0475729
0.0475784
0.0475675
0.0475828
0.0475569
0.0475986
0.0475388
0.0476322
0.0474678
0.0477143
0.0592806
0.0475773
0.0475779
0.0475756
0.0475778
0.0475723
0.0475782
0.0475667
0.0475828
0.0475555
0.047597
0.0475308
0.0476277
0.0474768
0.0476863
0.0586226
0.0491319
0.0495358
0.0509102
0.0466188
0.0466469
0.0465323
0.0467239
0.0551536
0.0495239
0.0464086
0.0464004
0.0464474
0.0464033
0.0465138
0.0466476
0.0571185
0.049673
0.0465594
0.0465642
0.0465323
0.0465578
0.0464888
0.0464789
0.0465543
0.0466556
0.0549561
0.0517795
0.0464613
0.0464697
0.046474
0.0464761
0.0464915
0.0465152
0.0464601
0.0464718
0.0465158
0.0467424
0.0674353
0.0465281
0.0465302
0.0465196
0.0465231
0.0465078
0.0465097
0.0465208
0.0465116
0.0465257
0.0463604
0.0467437
0.0651569
0.0464857
0.0464879
0.0464903
0.0464935
0.0464961
0.0465024
0.0464953
0.0465018
0.0465126
0.0465259
0.0465163
0.0592174
0.0465137
0.0465143
0.0465112
0.0465125
0.0465076
0.0465099
0.0465079
0.0465102
0.0465018
0.0465119
0.046472
0.0466562
0.0565516
0.0464971
0.0464986
0.0464984
0.0465013
0.0464995
0.0465047
0.0464984
0.0465082
0.0464956
0.0465214
0.0464606
0.0465551
0.0576833
0.0496355
0.0465088
0.0465096
0.0465079
0.0465093
0.0465063
0.0465093
0.0465048
0.0465103
0.0465027
0.0465103
0.0465159
0.0464799
0.0466486
0.0547321
0.0465027
0.0465039
0.0465025
0.0465051
0.0465019
0.0465067
0.0465
0.0465084
0.0464967
0.0465089
0.0464924
0.04649
0.046515
0.0570773
0.046508
0.0465088
0.0465071
0.0465091
0.0465053
0.04651
0.0465018
0.0465135
0.0464944
0.0465244
0.0464773
0.0465592
0.0464044
0.0467254
0.0626069
0.0465059
0.0465068
0.046505
0.0465075
0.0465032
0.0465089
0.0464994
0.0465126
0.0464917
0.0465216
0.0464756
0.0465341
0.0464487
0.0465338
0.0584381
0.0465084
0.0465091
0.046507
0.0465093
0.0465045
0.0465106
0.0464996
0.046516
0.0464896
0.0465323
0.0464713
0.0465656
0.0464024
0.0466485
0.0582142
0.0465083
0.0465089
0.0465067
0.0465091
0.0465039
0.0465105
0.0464989
0.0465161
0.0464882
0.046531
0.0464637
0.0465619
0.0464103
0.0466205
0.0575562
0.0480652
0.0484696
0.0498442
0.0455546
0.0455847
0.0454676
0.0456581
0.0540875
0.0484576
0.0453435
0.0453464
0.0453832
0.045337
0.0454473
0.0455811
0.0560522
0.0486064
0.0454919
0.0454961
0.0454656
0.0454914
0.0454224
0.0454127
0.045488
0.0455893
0.0538898
0.0507131
0.0453926
0.0453908
0.0454049
0.0454089
0.045425
0.0454486
0.0453936
0.0454054
0.0454496
0.0456774
0.0663777
0.0454606
0.0454603
0.045452
0.0454564
0.0454412
0.0454434
0.0454544
0.0454454
0.0454593
0.0452941
0.0456761
0.0640908
0.0454177
0.0454196
0.0454224
0.0454263
0.045429
0.0454357
0.0454285
0.0454352
0.0454463
0.0454595
0.0454497
0.0581512
0.0454466
0.0454474
0.045444
0.0454457
0.0454406
0.0454434
0.045441
0.0454439
0.0454351
0.0454456
0.0454055
0.04559
0.0554853
0.0454292
0.0454308
0.0454305
0.0454339
0.045432
0.0454377
0.0454314
0.0454415
0.0454288
0.0454551
0.0453941
0.0454888
0.0566169
0.048569
0.045441
0.0454419
0.0454401
0.045442
0.0454388
0.0454424
0.0454375
0.0454438
0.0454359
0.0454441
0.0454493
0.0454137
0.0455822
0.0536658
0.0454344
0.0454357
0.0454342
0.0454375
0.0454339
0.0454396
0.0454326
0.0454417
0.0454299
0.0454426
0.045426
0.0454238
0.0454486
0.0560111
0.0454392
0.0454404
0.0454385
0.0454412
0.0454372
0.0454427
0.0454342
0.0454469
0.0454272
0.0454581
0.0454104
0.0454929
0.045338
0.0456595
0.0615408
0.0454369
0.0454382
0.0454362
0.0454395
0.0454348
0.0454416
0.0454317
0.045446
0.0454243
0.0454548
0.0454071
0.0454677
0.045384
0.0454687
0.0573719
0.0454391
0.0454402
0.0454379
0.045441
0.0454359
0.0454431
0.0454317
0.0454492
0.0454217
0.0454634
0.0453941
0.0454973
0.0453472
0.0455855
0.0571482
0.0454392
0.04544
0.0454376
0.0454408
0.0454354
0.0454431
0.045431
0.0454493
0.0454204
0.0454638
0.0453952
0.0454947
0.0453452
0.0455564
0.0564905
0.0469987
0.0474032
0.0487778
0.0444883
0.0445182
0.0444013
0.0445918
0.0530212
0.0473913
0.0442768
0.0442791
0.0443164
0.0442704
0.0443808
0.0445146
0.0549857
0.0475396
0.0444256
0.0444302
0.0443994
0.0444251
0.044356
0.0443463
0.0444216
0.0445228
0.0528232
0.0496464
0.0443257
0.0443241
0.044338
0.044342
0.0443585
0.0443819
0.0443269
0.0443388
0.0443828
0.0446099
0.0653049
0.044394
0.0443937
0.0443855
0.0443899
0.0443745
0.044377
0.044388
0.0443789
0.0443927
0.0442276
0.0446105
0.0630243
0.0443501
0.0443521
0.0443549
0.0443591
0.0443618
0.0443689
0.0443614
0.0443686
0.0443799
0.0443931
0.0443833
0.0570848
0.0443796
0.0443805
0.0443769
0.044379
0.0443735
0.0443769
0.044374
0.0443776
0.0443684
0.0443793
0.044339
0.0445236
0.0544187
0.0443612
0.0443629
0.0443625
0.0443664
0.0443643
0.0443707
0.0443643
0.0443748
0.0443619
0.0443889
0.0443275
0.0444225
0.0555503
0.0475023
0.0443733
0.0443745
0.0443725
0.0443749
0.0443713
0.0443758
0.0443703
0.0443775
0.0443691
0.0443779
0.0443827
0.0443474
0.0445156
0.0525992
0.0443657
0.0443674
0.0443658
0.0443697
0.0443657
0.0443724
0.0443649
0.0443751
0.0443629
0.0443762
0.0443593
0.0443576
0.044382
0.0549447
0.0443707
0.0443723
0.0443703
0.0443736
0.0443691
0.0443757
0.0443666
0.0443804
0.0443602
0.0443918
0.0443436
0.0444268
0.0442714
0.0445929
0.0604743
0.0443679
0.0443697
0.0443674
0.0443715
0.0443662
0.0443743
0.0443637
0.0443793
0.044357
0.0443889
0.0443414
0.0444019
0.0443157
0.0444017
0.0563055
0.0443699
0.0443715
0.044369
0.0443729
0.0443674
0.0443759
0.0443637
0.0443824
0.0443543
0.0443989
0.0443358
0.0444332
0.0442705
0.0445167
0.0560818
0.04437
0.0443714
0.0443687
0.0443728
0.0443668
0.044376
0.044363
0.0443825
0.0443527
0.0443975
0.0443287
0.0444294
0.0442775
0.0444889
0.055424
0.0459321
0.0463363
0.0477108
0.0434202
0.0434486
0.0433337
0.043525
0.051955
0.0463251
0.0432087
0.0432021
0.0432476
0.0432036
0.0433143
0.043448
0.0539191
0.0464733
0.0433603
0.0433649
0.0433334
0.0433588
0.0432895
0.0432799
0.043355
0.0434563
0.0517566
0.0485799
0.0432597
0.0432671
0.0432728
0.0432753
0.0432919
0.0433152
0.0432602
0.0432721
0.0433162
0.043544
0.0642431
0.0433281
0.04333
0.0433198
0.0433235
0.0433079
0.0433105
0.0433214
0.0433124
0.0433262
0.0431612
0.0435432
0.061958
0.0432828
0.0432853
0.0432878
0.043292
0.0432945
0.0433022
0.0432943
0.0433019
0.0433134
0.0433266
0.0433167
0.0560184
0.0433125
0.0433136
0.0433099
0.0433123
0.0433066
0.0433105
0.0433071
0.0433114
0.0433017
0.043313
0.0432724
0.0434572
0.0533524
0.043293
0.043295
0.0432945
0.0432989
0.0432965
0.0433036
0.0432969
0.0433081
0.0432949
0.0433225
0.0432609
0.0433561
0.0544837
0.0464359
0.0433059
0.0433072
0.0433051
0.043308
0.0433039
0.0433091
0.0433031
0.0433112
0.0433023
0.0433116
0.043316
0.0432811
0.043449
0.0515329
0.0432972
0.0432991
0.0432973
0.0433018
0.0432974
0.043305
0.043297
0.0433082
0.0432956
0.0433096
0.0432928
0.0432911
0.0433155
0.0538785
0.0433027
0.0433044
0.0433022
0.043306
0.0433011
0.0433087
0.0432989
0.0433138
0.0432928
0.0433253
0.0432766
0.0433604
0.0432049
0.0435266
0.0594079
0.043299
0.043301
0.0432986
0.0433034
0.0432976
0.0433069
0.0432955
0.0433123
0.0432894
0.0433223
0.0432743
0.0433355
0.0432492
0.0433356
0.0552392
0.043301
0.0433029
0.0433003
0.043305
0.043299
0.0433086
0.0432957
0.0433156
0.0432867
0.0433323
0.0432684
0.0433665
0.0432044
0.0434507
0.0550155
0.0433009
0.0433027
0.0432999
0.0433048
0.0432983
0.0433086
0.0432948
0.0433157
0.0432851
0.043331
0.0432617
0.0433631
0.0432107
0.0434227
0.0543574
0.0448655
0.0452697
0.0466442
0.0423538
0.042382
0.0422671
0.0424584
0.0508885
0.0452586
0.0421421
0.0421355
0.0421809
0.042137
0.0422477
0.0423814
0.0528526
0.045407
0.0422939
0.0422983
0.0422668
0.0422923
0.0422229
0.0422134
0.0422885
0.0423898
0.0506901
0.0475135
0.0421927
0.0422002
0.0422059
0.0422084
0.0422252
0.0422484
0.0421934
0.0422055
0.0422495
0.0424768
0.063173
0.0422613
0.0422634
0.0422532
0.042257
0.0422412
0.042244
0.0422548
0.0422459
0.0422596
0.0420948
0.0424771
0.0608917
0.0422154
0.0422181
0.0422204
0.042225
0.0422272
0.0422353
0.0422272
0.0422353
0.0422468
0.0422602
0.0422502
0.0549521
0.0422456
0.0422468
0.0422431
0.0422458
0.0422398
0.042244
0.0422402
0.0422451
0.042235
0.0422465
0.0422058
0.0423908
0.0522859
0.0422251
0.0422272
0.0422266
0.0422314
0.0422287
0.0422364
0.0422295
0.0422412
0.0422277
0.042256
0.0421941
0.0422897
0.0534172
0.0453695
0.0422386
0.04224
0.0422377
0.0422409
0.0422366
0.0422422
0.0422359
0.0422446
0.0422353
0.042245
0.0422492
0.0422147
0.0423825
0.0504665
0.0422289
0.0422309
0.042229
0.0422338
0.0422292
0.0422376
0.0422291
0.0422413
0.042228
0.0422429
0.0422261
0.0422246
0.042249
0.0528122
0.0422348
0.0422365
0.0422341
0.0422384
0.0422331
0.0422415
0.042231
0.0422472
0.0422254
0.0422586
0.0422094
0.0422939
0.0421383
0.0424607
0.0583418
0.0422305
0.0422325
0.0422299
0.0422353
0.0422292
0.0422394
0.0422273
0.0422455
0.0422216
0.0422552
0.0422061
0.0422689
0.042184
0.0422702
0.0541732
0.0422325
0.0422345
0.0422318
0.0422371
0.0422307
0.0422414
0.0422277
0.042249
0.0422189
0.0422637
0.0421937
0.042299
0.0421463
0.0423868
0.0539495
0.0422318
0.0422339
0.042231
0.0422366
0.0422298
0.0422412
0.0422267
0.0422489
0.0422174
0.0422641
0.0421942
0.0422959
0.0421451
0.0423578
0.0532914
0.0437992
0.0442036
0.0455781
0.0412888
0.0413183
0.0412016
0.0413922
0.0498219
0.0441918
0.0410766
0.0410788
0.041116
0.0410705
0.0411811
0.0413147
0.0517861
0.0443405
0.0412262
0.0412298
0.0412
0.0412256
0.0411563
0.0411468
0.0412219
0.0413233
0.0496237
0.0464472
0.041125
0.0411246
0.0411377
0.0411413
0.0411584
0.0411817
0.0411266
0.0411389
0.041183
0.0414106
0.062109
0.041194
0.0411945
0.0411858
0.0411902
0.0411745
0.0411772
0.0411882
0.0411794
0.0411931
0.0410284
0.0414102
0.0598254
0.0411479
0.0411504
0.0411529
0.0411578
0.0411599
0.0411685
0.04116
0.0411686
0.04118
0.0411936
0.0411835
0.0538857
0.0411788
0.0411801
0.0411763
0.0411791
0.0411729
0.0411773
0.0411734
0.0411785
0.0411682
0.0411799
0.0411391
0.0413244
0.0512195
0.0411573
0.0411594
0.0411587
0.0411637
0.041161
0.0411691
0.0411619
0.0411744
0.0411604
0.0411894
0.0411273
0.0412232
0.0523507
0.0443031
0.0411712
0.0411727
0.0411703
0.0411738
0.0411692
0.0411753
0.0411687
0.0411778
0.0411684
0.0411783
0.0411825
0.0411482
0.0413159
0.0494001
0.0411606
0.0411627
0.0411607
0.041166
0.0411612
0.0411702
0.0411612
0.0411743
0.0411606
0.0411763
0.0411593
0.0411581
0.0411825
0.0517457
0.0411668
0.0411686
0.0411661
0.0411708
0.0411653
0.0411744
0.0411634
0.0411805
0.0411582
0.041192
0.0411424
0.0412275
0.041072
0.041394
0.0572754
0.0411619
0.0411641
0.0411614
0.0411673
0.041161
0.0411721
0.0411593
0.0411787
0.0411541
0.0411888
0.04114
0.0412028
0.0411165
0.0412035
0.0531069
0.041164
0.0411662
0.0411634
0.0411692
0.0411625
0.0411742
0.0411598
0.0411824
0.0411516
0.0411985
0.0411334
0.0412347
0.0410719
0.0413188
0.0528832
0.0411627
0.041165
0.0411621
0.0411685
0.0411615
0.0411739
0.0411586
0.0411823
0.0411501
0.0411979
0.041128
0.0412304
0.041078
0.0412907
0.0522251
0.0427331
0.0431374
0.0445119
0.0402212
0.0402498
0.0401347
0.0403256
0.0487555
0.0431253
0.0400093
0.0400026
0.0400483
0.0400041
0.0401146
0.0402482
0.0507196
0.0432739
0.0401604
0.0401662
0.0401337
0.040159
0.0400896
0.0400802
0.0401553
0.0402568
0.0485572
0.0453806
0.0400591
0.0400654
0.0400718
0.0400745
0.0400917
0.040115
0.0400598
0.0400723
0.0401163
0.0403445
0.0610434
0.0401274
0.0401292
0.0401192
0.0401234
0.0401077
0.0401104
0.0401217
0.0401127
0.0401265
0.0399617
0.0403433
0.0587588
0.0400806
0.0400831
0.0400855
0.0400906
0.0400925
0.0401017
0.0400928
0.0401018
0.0401131
0.040127
0.0401168
0.0528191
0.0401119
0.0401131
0.0401092
0.0401122
0.040106
0.0401106
0.0401066
0.0401118
0.0401013
0.0401132
0.0400725
0.0402579
0.050153
0.0400892
0.0400914
0.0400907
0.0400962
0.0400935
0.0401032
0.040094
0.0401075
0.0400931
0.0401229
0.0400604
0.0401566
0.0512841
0.0432365
0.0401036
0.0401052
0.0401028
0.0401066
0.0401019
0.0401083
0.0401006
0.0401108
0.0401016
0.0401115
0.0401158
0.0400816
0.0402493
0.0483336
0.0400922
0.0400945
0.0400926
0.0400983
0.0400934
0.0401029
0.0400934
0.0401074
0.0400932
0.0401097
0.0400926
0.0400915
0.0401158
0.0506792
0.0400987
0.0401007
0.0400982
0.0401034
0.0400976
0.0401074
0.040096
0.0401138
0.040091
0.0401252
0.0400754
0.0401609
0.0400051
0.040328
0.056209
0.0400934
0.0400957
0.040093
0.0400995
0.040093
0.0401048
0.0400916
0.0401118
0.0400866
0.0401218
0.0400722
0.0401361
0.0400509
0.0401376
0.0520406
0.0400955
0.0400978
0.0400951
0.0401015
0.0400946
0.0401071
0.0400921
0.0401156
0.0400841
0.0401305
0.04006
0.0401663
0.040013
0.0402542
0.0518169
0.0400939
0.0400965
0.0400937
0.0401006
0.0400934
0.0401066
0.0400908
0.0401154
0.0400826
0.040131
0.0400605
0.0401632
0.0400121
0.0402253
0.0511589
0.0416671
0.0420712
0.0434457
0.0391562
0.039186
0.039069
0.0392592
0.0476891
0.0420589
0.0389441
0.0389463
0.0389835
0.0389377
0.0390481
0.0391817
0.0496531
0.0422072
0.0390926
0.0390976
0.0390667
0.0390922
0.0390229
0.0390136
0.0390888
0.0391903
0.0474906
0.0443139
0.0389912
0.0389895
0.0390037
0.0390074
0.0390248
0.0390484
0.0389929
0.0390057
0.0390494
0.0392756
0.0599664
0.0390597
0.0390598
0.0390514
0.0390563
0.0390409
0.0390433
0.0390552
0.039046
0.0390598
0.038895
0.0392789
0.0576925
0.039013
0.0390152
0.0390178
0.0390234
0.039025
0.0390349
0.0390255
0.039035
0.0390462
0.0390605
0.0390502
0.0517525
0.0390446
0.039046
0.0390419
0.0390451
0.0390388
0.0390434
0.0390397
0.039045
0.0390345
0.0390466
0.0390057
0.0391914
0.0490863
0.0390212
0.0390236
0.0390229
0.0390286
0.0390254
0.0390343
0.0390266
0.0390408
0.0390259
0.0390564
0.0389935
0.0390901
0.0502174
0.0421697
0.0390361
0.0390378
0.0390353
0.0390394
0.0390345
0.0390414
0.0390352
0.0390444
0.0390348
0.0390445
0.0390491
0.0390151
0.0391827
0.047267
0.039024
0.0390264
0.0390246
0.0390306
0.0390257
0.0390358
0.0390262
0.0390407
0.0390258
0.0390431
0.0390257
0.0390249
0.0390492
0.0496126
0.0390307
0.0390328
0.0390304
0.0390359
0.0390301
0.0390404
0.0390286
0.0390469
0.0390239
0.0390585
0.0390086
0.0390944
0.0389387
0.0392611
0.0551424
0.0390249
0.0390275
0.0390248
0.0390318
0.0390252
0.0390376
0.0390239
0.0390447
0.0390193
0.0390554
0.0390061
0.0390697
0.0389833
0.0390707
0.0509741
0.0390272
0.0390297
0.039027
0.0390339
0.0390268
0.0390398
0.0390243
0.0390487
0.039017
0.039065
0.0389992
0.0391014
0.038939
0.0391859
0.0507504
0.0390257
0.0390284
0.0390256
0.0390329
0.0390254
0.0390392
0.0390229
0.0390483
0.0390153
0.0390643
0.0389939
0.0390972
0.0389447
0.0391578
0.0500922
0.0406009
0.0410049
0.0423792
0.0380894
0.0381191
0.0380022
0.0381924
0.0466225
0.0409924
0.0378778
0.0378799
0.0379171
0.0378713
0.0379817
0.0381154
0.0485868
0.0411409
0.0380256
0.0380306
0.0379997
0.0380253
0.0379562
0.0379471
0.0380224
0.0381241
0.0464242
0.0432477
0.0379245
0.0379226
0.0379369
0.0379407
0.0379581
0.0379819
0.0379261
0.0379392
0.0379834
0.0382169
0.0589352
0.0379925
0.0379926
0.0379842
0.0379892
0.0379742
0.0379762
0.0379887
0.0379795
0.0379936
0.0378285
0.0382052
0.0566248
0.0379458
0.037948
0.0379505
0.0379563
0.0379576
0.0379681
0.0379582
0.0379683
0.0379791
0.0379938
0.0379826
0.0506854
0.0379773
0.0379787
0.0379746
0.0379779
0.0379718
0.0379766
0.0379728
0.0379783
0.0379677
0.0379798
0.0379389
0.038125
0.0480197
0.0379535
0.0379559
0.0379552
0.0379612
0.0379581
0.0379685
0.037959
0.0379739
0.0379584
0.0379899
0.0379264
0.0380236
0.0491505
0.0411032
0.0379685
0.0379702
0.0379678
0.037972
0.0379672
0.0379742
0.0379669
0.0379772
0.0379679
0.0379775
0.0379823
0.0379485
0.0381163
0.0462005
0.0379559
0.0379584
0.0379566
0.0379629
0.037958
0.0379684
0.0379583
0.0379735
0.0379582
0.0379764
0.0379588
0.0379583
0.0379826
0.048546
0.0379626
0.0379649
0.0379626
0.0379684
0.0379625
0.0379731
0.0379611
0.0379799
0.0379567
0.0379917
0.0379416
0.0380276
0.0378721
0.0381945
0.0540758
0.0379565
0.0379593
0.0379568
0.037964
0.0379573
0.03797
0.0379561
0.0379776
0.0379518
0.0379882
0.0379384
0.0380028
0.0379175
0.0380045
0.0499074
0.0379591
0.0379618
0.0379591
0.0379662
0.0379589
0.0379724
0.0379567
0.0379816
0.0379496
0.0379969
0.0379263
0.0380331
0.0378791
0.0381208
0.0496837
0.0379577
0.0379604
0.0379576
0.0379651
0.0379575
0.0379716
0.0379552
0.0379811
0.0379477
0.0379969
0.0379264
0.0380296
0.0378785
0.0380921
0.0490256
0.0395343
0.0399383
0.0413126
0.0370207
0.0370492
0.0369344
0.0371251
0.0455559
0.0399262
0.0368102
0.0368033
0.0368492
0.0368048
0.0369154
0.0370494
0.0475207
0.0400751
0.0369591
0.0369646
0.0369327
0.0369583
0.0368894
0.0368806
0.0369563
0.0370584
0.0453581
0.0421807
0.036859
0.0368653
0.0368717
0.0368741
0.0368914
0.0369155
0.0368592
0.0368726
0.0369146
0.0371307
0.0577768
0.0369258
0.0369277
0.0369176
0.0369223
0.0369073
0.036909
0.0369224
0.0369128
0.0369266
0.0367617
0.0371559
0.0555608
0.036879
0.0368814
0.0368835
0.0368893
0.0368902
0.0369015
0.0368908
0.0369016
0.0369119
0.036928
0.0369173
0.0496197
0.03691
0.0369113
0.0369073
0.0369106
0.0369045
0.0369094
0.0369059
0.0369116
0.0369008
0.0369132
0.0368722
0.0370591
0.0469532
0.036886
0.0368883
0.0368875
0.0368936
0.0368903
0.0369006
0.0368917
0.036907
0.0368908
0.0369234
0.0368593
0.0369572
0.0480838
0.0400372
0.036901
0.0369027
0.0369001
0.0369045
0.0368996
0.0369069
0.0369
0.0369101
0.0369009
0.0369104
0.0369156
0.0368819
0.0370502
0.0451343
0.0368881
0.0368906
0.0368887
0.0368952
0.0368901
0.0369009
0.0368906
0.0369063
0.0368907
0.0369096
0.0368918
0.0368917
0.0369161
0.0474794
0.036895
0.0368971
0.0368947
0.0369007
0.0368946
0.0369056
0.0368936
0.0369127
0.0368895
0.0369248
0.0368747
0.0369607
0.0368054
0.0371276
0.0530091
0.0368886
0.0368913
0.0368887
0.0368961
0.0368892
0.0369024
0.0368883
0.0369103
0.0368845
0.0369215
0.0368723
0.0369359
0.0368498
0.0369373
0.0488407
0.0368912
0.0368938
0.036891
0.0368984
0.036891
0.0369049
0.036889
0.0369143
0.0368824
0.0369314
0.0368654
0.0369665
0.0368061
0.0370523
0.0486166
0.0368897
0.0368923
0.0368894
0.0368972
0.0368895
0.036904
0.0368874
0.0369136
0.0368804
0.03693
0.0368599
0.0369634
0.0368112
0.0370246
0.0479586
0.0384677
0.0388719
0.0402463
0.0359545
0.0359839
0.0358678
0.0360578
0.0444894
0.0388603
0.0357452
0.0357469
0.0357845
0.0357386
0.0358492
0.0359839
0.0464551
0.03901
0.0358906
0.035895
0.0358649
0.0358908
0.0358226
0.0358141
0.0358905
0.0359937
0.0442928
0.0411172
0.0357914
0.03579
0.035804
0.0358073
0.0358246
0.035849
0.0357924
0.0358065
0.0358522
0.036105
0.0569073
0.0358576
0.0358582
0.0358496
0.0358549
0.0358403
0.035842
0.035856
0.0358468
0.0358621
0.0356962
0.0360528
0.0544894
0.0358117
0.035814
0.0358163
0.0358222
0.0358228
0.0358345
0.035823
0.0358347
0.0358441
0.0358604
0.0358462
0.0485517
0.0358425
0.0358438
0.0358397
0.0358432
0.0358372
0.0358421
0.0358388
0.0358447
0.0358337
0.0358464
0.0358048
0.0359937
0.045887
0.0358184
0.0358208
0.0358199
0.0358261
0.0358227
0.0358335
0.0358239
0.0358398
0.0358229
0.0358569
0.0357919
0.0358911
0.0470172
0.0389715
0.0358335
0.0358351
0.0358324
0.0358369
0.035832
0.0358395
0.0358327
0.0358429
0.0358338
0.0358432
0.0358488
0.0358155
0.0359847
0.0440683
0.0358204
0.0358228
0.0358207
0.0358273
0.0358222
0.0358333
0.035823
0.0358391
0.0358231
0.0358425
0.0358248
0.035825
0.0358497
0.0464128
0.0358274
0.0358294
0.0358267
0.0358329
0.0358267
0.035838
0.035826
0.0358454
0.0358222
0.0358577
0.0358078
0.0358936
0.0357396
0.0360599
0.0519424
0.0358208
0.0358232
0.0358205
0.035828
0.0358212
0.0358347
0.0358206
0.0358428
0.035817
0.0358542
0.0358052
0.0358687
0.0357834
0.0358705
0.047774
0.0358233
0.0358258
0.0358229
0.0358305
0.0358231
0.0358373
0.0358213
0.0358469
0.0358151
0.0358642
0.035798
0.0358989
0.0357402
0.0359854
0.0475498
0.0358216
0.0358242
0.0358212
0.0358291
0.0358215
0.0358363
0.0358197
0.0358461
0.035813
0.0358625
0.0357921
0.0358967
0.035745
0.0359581
0.046892
0.0374021
0.0378062
0.0391805
0.0348859
0.0349141
0.0347998
0.0349896
0.0434233
0.0377953
0.0346787
0.0346743
0.034718
0.0346725
0.0347833
0.0349196
0.0453909
0.0379467
0.0348224
0.0348271
0.0347968
0.0348227
0.0347557
0.0347476
0.0348253
0.03493
0.0432284
0.0400499
0.0347257
0.0347297
0.0347382
0.0347406
0.0347576
0.0347825
0.034725
0.0347389
0.0347773
0.0349662
0.0554824
0.0347899
0.0347915
0.0347821
0.0347872
0.034773
0.0347747
0.0347895
0.0347798
0.0347935
0.0346289
0.0350496
0.0534323
0.0347446
0.0347472
0.0347492
0.0347551
0.0347553
0.0347672
0.0347544
0.0347674
0.0347751
0.034797
0.0347858
0.0474899
0.0347748
0.034776
0.0347721
0.0347757
0.0347698
0.0347747
0.0347717
0.0347776
0.0347664
0.0347802
0.0347382
0.0349299
0.0448217
0.0347508
0.0347532
0.0347524
0.0347587
0.0347552
0.0347662
0.0347566
0.0347726
0.0347546
0.0347902
0.0347242
0.0348255
0.0459512
0.0379072
0.0347657
0.0347673
0.0347647
0.0347693
0.0347644
0.0347721
0.0347654
0.0347756
0.0347667
0.0347759
0.034782
0.0347489
0.0349204
0.0430035
0.0347523
0.0347549
0.0347528
0.0347595
0.0347545
0.0347658
0.0347555
0.0347717