/*--------------------------------*- C++ -*----------------------------------*\
| =========                 |                                                 |
| \\      /  F ield         | OpenFOAM: The Open Source CFD Toolbox           |
|  \\    /   O peration     | Version:  2.1.1                                 |
|   \\  /    A nd           | Web:      www.OpenFOAM.org                      |
|    \\/     M anipulation  |                                                 |
\*---------------------------------------------------------------------------*/
FoamFile
{
    version     2.0;
    format      ascii;
    class       volVectorField;
    location    "0.0005";
    object      U;
}
// * * * * * * * * * * * * * * * * * * * * * * * * * * * * * * * * * * * * * //

dimensions      [0 1 -1 0 0 0 0];

internalField   nonuniform List<vector> 
10300
(
(0.00470995 -0.00161015 0.0168825)
(0.000551816 -0.00386772 0.014349)
(0.000188893 -0.00491434 0.0211837)
(0.0006391 -0.00165538 0.0138941)
(-0.00362741 -0.00437086 0.0211864)
(-0.000365154 -0.000442356 0.0844479)
(0.000112939 -0.00014308 0.0997762)
(-9.93963e-05 -0.000259458 0.0953894)
(3.03495e-05 -0.000237835 0.0952439)
(0.000973511 -0.00286546 0.0141172)
(-0.00434943 -0.00496331 0.0261985)
(-0.000415324 -0.000325378 0.0822755)
(0.000180404 -0.0002561 0.0952885)
(0.00013097 0.000320766 0.112684)
(4.06993e-05 6.62268e-05 0.113085)
(4.98914e-05 0.000189117 0.111741)
(6.78697e-06 0.000159192 0.111626)
(-0.00229149 -0.00513618 0.0173815)
(-0.00040399 -0.000390359 0.0837763)
(7.02023e-05 -0.000349521 0.0943916)
(0.000110326 0.000245094 0.112122)
(-0.000125984 4.58324e-05 0.112247)
(-9.22935e-05 -0.000111665 0.11215)
(-2.56187e-05 -9.16398e-05 0.111627)
(-5.33631e-05 -0.000133981 0.111324)
(4.4094e-06 -0.000139031 0.111172)
(-0.000533267 -0.000408634 0.0802319)
(0.000226674 -0.000325376 0.0953559)
(0.00014149 0.000256902 0.112201)
(-9.05922e-05 7.38189e-05 0.111984)
(-5.28601e-05 -4.41401e-05 0.111897)
(4.83551e-05 -6.02744e-05 0.11153)
(1.58694e-05 3.85677e-05 0.111436)
(1.89762e-05 1.03542e-05 0.111387)
(1.17576e-05 5.23394e-05 0.111272)
(3.85344e-06 4.76002e-05 0.111178)
(-0.000409881 -0.0005335 0.0801911)
(0.00047247 0.000472654 0.11274)
(-0.000249453 5.15149e-05 0.111895)
(-1.71731e-05 -4.52953e-05 0.111628)
(-1.24123e-06 -7.8391e-05 0.111312)
(1.01769e-05 3.45995e-06 0.111228)
(-2.18326e-05 -3.43689e-05 0.11131)
(-2.41778e-05 -4.66235e-05 0.111371)
(-1.51464e-05 -5.66283e-05 0.111373)
(-1.89242e-05 -6.82076e-05 0.111321)
(-1.32894e-06 -7.26594e-05 0.111279)
(-0.0051399 -0.00228958 0.0173772)
(-0.000325723 0.000228133 0.0953376)
(5.05876e-05 -0.000248625 0.111891)
(-3.62622e-06 -2.95386e-06 0.111176)
(3.17715e-05 -7.88025e-06 0.111001)
(-2.03298e-05 -6.27914e-06 0.111122)
(-1.16641e-05 -2.16709e-05 0.111227)
(-4.17583e-06 -3.12195e-05 0.111315)
(-6.88191e-06 -1.7698e-05 0.111369)
(-2.06663e-06 -2.46181e-05 0.111384)
(-3.28118e-06 -1.49179e-05 0.111371)
(-7.44089e-08 -1.59193e-05 0.111357)
(-0.00286615 0.000973797 0.014117)
(-0.000391087 -0.000402859 0.0837699)
(0.000256095 0.000143064 0.112195)
(-4.68305e-05 -1.56463e-05 0.111624)
(-8.80152e-06 3.28343e-05 0.111001)
(-2.20386e-05 -2.10591e-05 0.111073)
(-1.64858e-05 -2.37498e-05 0.111176)
(-1.5642e-05 -2.29925e-05 0.111259)
(-1.79342e-05 -3.47204e-05 0.111327)
(-1.74776e-05 -3.78042e-05 0.111375)
(-1.25409e-05 -4.48275e-05 0.111398)
(-1.04775e-05 -4.75703e-05 0.111403)
(-2.43434e-06 -5.00497e-05 0.111403)
(-0.00496421 -0.00434885 0.0261983)
(-0.000350377 7.06872e-05 0.0943871)
(7.3463e-05 -9.02946e-05 0.11198)
(-7.96392e-05 -1.75299e-06 0.111309)
(-7.48907e-06 -2.03163e-05 0.111122)
(-2.48131e-05 -1.63329e-05 0.111177)
(-2.25517e-05 -2.18325e-05 0.11124)
(-2.25908e-05 -2.53992e-05 0.111301)
(-1.89544e-05 -3.15392e-05 0.111356)
(-1.69687e-05 -3.10963e-05 0.111398)
(-1.18077e-05 -3.49108e-05 0.111424)
(-8.44896e-06 -3.4118e-05 0.111437)
(-2.58572e-06 -3.50936e-05 0.111443)
(-0.0016553 0.000638566 0.0138938)
(-0.000326603 -0.000413412 0.0822767)
(0.000242741 0.00011283 0.112122)
(-4.6185e-05 -4.96675e-05 0.111896)
(1.6853e-06 1.30471e-05 0.111227)
(-2.19373e-05 -1.03548e-05 0.111226)
(-2.3278e-05 -1.47056e-05 0.111259)
(-2.55564e-05 -2.1799e-05 0.111301)
(-2.53494e-05 -2.51186e-05 0.111347)
(-2.36097e-05 -3.10492e-05 0.11139)
(-2.08251e-05 -3.36066e-05 0.111426)
(-1.55662e-05 -3.74604e-05 0.111453)
(-1.06715e-05 -3.89821e-05 0.111468)
(-3.44998e-06 -4.02295e-05 0.111476)
(-0.00437081 -0.0036264 0.0211862)
(-0.000256404 0.00018054 0.0952909)
(4.53176e-05 -0.000126938 0.112249)
(-6.02701e-05 4.79922e-05 0.111531)
(-3.74916e-05 -2.30874e-05 0.111311)
(-3.43745e-05 -3.90827e-06 0.111315)
(-3.63048e-05 -1.8146e-05 0.111328)
(-3.29683e-05 -1.86639e-05 0.111356)
(-3.18421e-05 -2.36113e-05 0.111391)
(-2.74366e-05 -2.69057e-05 0.111427)
(-2.33732e-05 -2.88436e-05 0.111459)
(-1.71793e-05 -3.12413e-05 0.111484)
(-1.1215e-05 -3.19338e-05 0.111501)
(-3.82908e-06 -3.26623e-05 0.11151)
(-0.000445871 -0.000363461 0.0844547)
(0.000315782 0.000130603 0.11269)
(-0.000114696 -8.7867e-05 0.112153)
(3.62889e-05 1.26589e-05 0.111438)
(-4.77582e-05 -2.32553e-05 0.111372)
(-1.69314e-05 -7.61494e-06 0.11137)
(-3.80752e-05 -1.75128e-05 0.111375)
(-3.10475e-05 -1.70744e-05 0.111398)
(-3.36e-05 -2.09376e-05 0.111427)
(-2.88437e-05 -2.32196e-05 0.111459)
(-2.51578e-05 -2.52673e-05 0.111489)
(-1.86529e-05 -2.71376e-05 0.111514)
(-1.20912e-05 -2.81165e-05 0.111532)
(-4.14897e-06 -2.87176e-05 0.111541)
(-0.000148251 0.000115592 0.0997886)
(6.67193e-05 4.34872e-05 0.113095)
(-9.50662e-05 -2.76281e-05 0.111637)
(6.8997e-06 1.89457e-05 0.111389)
(-5.72952e-05 -1.62576e-05 0.111377)
(-2.8748e-05 -1.98219e-06 0.111385)
(-4.57901e-05 -1.27168e-05 0.111399)
(-3.64217e-05 -1.16331e-05 0.111424)
(-3.79941e-05 -1.55768e-05 0.111453)
(-3.17704e-05 -1.69814e-05 0.111485)
(-2.72927e-05 -1.86678e-05 0.111515)
(-2.00293e-05 -1.98808e-05 0.111542)
(-1.27951e-05 -2.05918e-05 0.111561)
(-4.46882e-06 -2.09999e-05 0.111572)
(-0.00386711 0.000553023 0.0143548)
(-0.00026518 -0.000103297 0.0954057)
(0.00017897 3.94021e-05 0.111753)
(-0.000139827 -6.05798e-05 0.111327)
(5.10186e-05 7.49227e-06 0.111275)
(-6.91937e-05 -2.36315e-05 0.111322)
(-1.31993e-05 -5.08986e-06 0.111371)
(-4.77443e-05 -1.18814e-05 0.111403)
(-3.39021e-05 -8.89288e-06 0.111437)
(-3.89515e-05 -1.11297e-05 0.111468)
(-3.19359e-05 -1.13581e-05 0.111501)
(-2.80561e-05 -1.23028e-05 0.111533)
(-2.05776e-05 -1.28514e-05 0.111562)
(-1.32112e-05 -1.33274e-05 0.111586)
(-4.54702e-06 -1.33263e-05 0.111599)
(-0.00491334 0.000186488 0.0211867)
(-0.000245602 2.75192e-05 0.0952498)
(0.000156938 -3.14083e-06 0.111629)
(-0.000135868 8.39258e-06 0.111176)
(4.67374e-05 1.60809e-06 0.111178)
(-7.08412e-05 1.85992e-06 0.11128)
(-1.67446e-05 -2.15942e-07 0.111357)
(-4.96483e-05 -1.54505e-06 0.111403)
(-3.56586e-05 -2.01837e-06 0.111443)
(-4.04617e-05 -2.91706e-06 0.111477)
(-3.29437e-05 -3.50483e-06 0.11151)
(-2.87838e-05 -4.08491e-06 0.111542)
(-2.1052e-05 -4.42977e-06 0.111572)
(-1.32701e-05 -4.60941e-06 0.1116)
(-4.64942e-06 -4.70011e-06 0.111617)
(0.000551699 -0.00386777 0.0143494)
(0.000188904 -0.00491419 0.0211842)
(0.000639216 -0.00165538 0.0138947)
(-0.00362799 -0.00437083 0.0211874)
(-0.000366529 -0.0004416 0.0844526)
(0.000112433 -0.000141163 0.0997816)
(-9.97133e-05 -0.000257449 0.0953945)
(3.02867e-05 -0.00023581 0.0952488)
(0.000973605 -0.00286556 0.0141176)
(-0.00434954 -0.00496346 0.0261996)
(-0.00041516 -0.000325649 0.0822796)
(0.000181267 -0.000255516 0.0952926)
(0.000132608 0.000322017 0.11269)
(4.2233e-05 6.74477e-05 0.11309)
(5.04768e-05 0.000190816 0.111745)
(7.20667e-06 0.000160886 0.11163)
(-0.00229153 -0.00513656 0.0173821)
(-0.000403645 -0.000389903 0.0837804)
(7.06839e-05 -0.00034828 0.0943956)
(0.000110722 0.00024724 0.112128)
(-0.000125994 4.80931e-05 0.112251)
(-9.3171e-05 -0.000107205 0.112155)
(-2.58488e-05 -8.75306e-05 0.111632)
(-5.33021e-05 -0.000128807 0.111329)
(4.37099e-06 -0.000133778 0.111177)
(-0.000532502 -0.000408877 0.0802357)
(0.000227575 -0.000324401 0.0953599)
(0.000143272 0.000258475 0.112206)
(-8.88245e-05 7.56086e-05 0.111988)
(-5.19942e-05 -4.12642e-05 0.111902)
(5.15365e-05 -5.63076e-05 0.111533)
(1.93413e-05 4.26081e-05 0.111438)
(2.12567e-05 1.57566e-05 0.111389)
(1.35078e-05 5.73653e-05 0.111274)
(4.3468e-06 5.30126e-05 0.11118)
(-0.000410138 -0.000532677 0.080195)
(0.000473446 0.000473681 0.112746)
(-0.000247372 5.35181e-05 0.1119)
(-1.5635e-05 -4.2814e-05 0.111633)
(6.84692e-07 -7.57708e-05 0.111316)
(1.27864e-05 7.68265e-06 0.111232)
(-2.06389e-05 -2.90993e-05 0.111313)
(-2.36201e-05 -4.21506e-05 0.111374)
(-1.44302e-05 -5.18986e-05 0.111375)
(-1.88881e-05 -6.3931e-05 0.111323)
(-9.5688e-07 -6.84008e-05 0.111281)
(-0.00514029 -0.00228961 0.0173778)
(-0.000324782 0.00022916 0.0953415)
(5.25148e-05 -0.00024652 0.111895)
(-1.12885e-06 -4.27394e-07 0.11118)
(3.4224e-05 -4.20937e-06 0.111004)
(-1.68007e-05 -1.37586e-06 0.111124)
(-8.13737e-06 -1.57747e-05 0.111228)
(-7.54974e-07 -2.47801e-05 0.111315)
(-3.95439e-06 -9.1558e-06 0.111369)
(5.45636e-08 -1.5543e-05 0.111383)
(-1.96041e-06 -4.44338e-06 0.11137)
(3.02079e-07 -5.2193e-06 0.111356)
(-0.00286625 0.000973862 0.0141175)
(-0.000390663 -0.000402424 0.0837738)
(0.00025758 0.00014497 0.112199)
(-4.45038e-05 -1.40241e-05 0.111628)
(-5.15395e-06 3.53238e-05 0.111004)
(-1.81148e-05 -1.69813e-05 0.111076)
(-1.23275e-05 -1.87754e-05 0.111177)
(-1.14962e-05 -1.72402e-05 0.111259)
(-1.40967e-05 -2.82124e-05 0.111327)
(-1.42868e-05 -3.07329e-05 0.111374)
(-9.90816e-06 -3.72694e-05 0.111396)
(-8.83637e-06 -3.95841e-05 0.111401)
(-1.87542e-06 -4.19299e-05 0.1114)
(-0.0049644 -0.00434899 0.0261995)
(-0.000349256 7.11838e-05 0.0943908)
(7.51712e-05 -8.82677e-05 0.111984)
(-7.71766e-05 2.25333e-07 0.111312)
(-2.54602e-06 -1.67853e-05 0.111124)
(-1.98761e-05 -1.21779e-05 0.111178)
(-1.73518e-05 -1.66049e-05 0.11124)
(-1.75363e-05 -1.92209e-05 0.1113)
(-1.42202e-05 -2.4634e-05 0.111353)
(-1.29957e-05 -2.33795e-05 0.111395)
(-8.77006e-06 -2.67296e-05 0.11142)
(-6.56056e-06 -2.56257e-05 0.111432)
(-1.94912e-06 -2.64649e-05 0.111438)
(-0.00165529 0.000638591 0.0138945)
(-0.000327093 -0.000412995 0.0822802)
(0.000244926 0.00011364 0.112127)
(-4.33622e-05 -4.86481e-05 0.1119)
(5.49955e-06 1.56118e-05 0.11123)
(-1.61218e-05 -6.76203e-06 0.111228)
(-1.76542e-05 -1.05259e-05 0.11126)
(-1.93745e-05 -1.67158e-05 0.1113)
(-1.95264e-05 -1.93139e-05 0.111344)
(-1.82367e-05 -2.45523e-05 0.111386)
(-1.6361e-05 -2.66067e-05 0.111422)
(-1.21592e-05 -3.00117e-05 0.111447)
(-8.58284e-06 -3.12809e-05 0.111462)
(-2.72751e-06 -3.23803e-05 0.11147)
(-0.0043708 -0.00362702 0.0211874)
(-0.000255936 0.000181569 0.0952939)
(4.72535e-05 -0.000127128 0.112253)
(-5.6826e-05 5.11371e-05 0.111534)
(-3.2464e-05 -2.20076e-05 0.111313)
(-2.78191e-05 -4.34219e-07 0.111315)
(-2.98723e-05 -1.43102e-05 0.111327)
(-2.61436e-05 -1.38984e-05 0.111353)
(-2.53741e-05 -1.82663e-05 0.111387)
(-2.15087e-05 -2.09354e-05 0.111421)
(-1.84503e-05 -2.23792e-05 0.111452)
(-1.34413e-05 -2.44056e-05 0.111477)
(-8.92625e-06 -2.48451e-05 0.111493)
(-3.06176e-06 -2.54625e-05 0.111501)
(-0.000446581 -0.000364426 0.0844576)
(0.000316112 0.000132305 0.112694)
(-0.000110368 -8.74056e-05 0.112158)
(4.03529e-05 1.55458e-05 0.11144)
(-4.36078e-05 -2.20929e-05 0.111375)
(-8.35969e-06 -4.79009e-06 0.111369)
(-3.11538e-05 -1.43141e-05 0.111374)
(-2.33535e-05 -1.31407e-05 0.111394)
(-2.6571e-05 -1.65048e-05 0.111422)
(-2.2351e-05 -1.82919e-05 0.111453)
(-1.98286e-05 -1.99718e-05 0.111482)
(-1.46223e-05 -2.15626e-05 0.111506)
(-9.63875e-06 -2.23358e-05 0.111523)
(-3.32146e-06 -2.29279e-05 0.111532)
(-0.000148997 0.000116929 0.0997911)
(6.82518e-05 4.52161e-05 0.113097)
(-9.19173e-05 -2.87876e-05 0.111639)
(1.10552e-05 2.09926e-05 0.111391)
(-5.23269e-05 -1.57683e-05 0.111377)
(-2.01534e-05 -8.78757e-08 0.111383)
(-3.8244e-05 -1.00151e-05 0.111397)
(-2.8361e-05 -8.48028e-06 0.11142)
(-3.05306e-05 -1.2165e-05 0.111447)
(-2.49795e-05 -1.31932e-05 0.111477)
(-2.17222e-05 -1.4632e-05 0.111507)
(-1.5806e-05 -1.562e-05 0.111532)
(-1.02918e-05 -1.61828e-05 0.111551)
(-3.60077e-06 -1.65908e-05 0.111561)
(-0.0038668 0.000553818 0.0143546)
(-0.000267114 -0.000104793 0.0954079)
(0.000177024 3.84333e-05 0.111755)
(-0.000135168 -6.18156e-05 0.111332)
(5.67923e-05 8.80951e-06 0.111277)
(-6.52234e-05 -2.41115e-05 0.111324)
(-2.39891e-06 -4.11366e-06 0.11137)
(-3.95654e-05 -1.04698e-05 0.111401)
(-2.54967e-05 -7.04134e-06 0.111432)
(-3.12861e-05 -9.01356e-06 0.111462)
(-2.48191e-05 -9.01492e-06 0.111493)
(-2.2254e-05 -9.83849e-06 0.111524)
(-1.61738e-05 -1.03197e-05 0.111552)
(-1.06104e-05 -1.07216e-05 0.111575)
(-3.66138e-06 -1.07488e-05 0.111588)
(-0.00491299 0.000183441 0.0211854)
(-0.000244071 2.78183e-05 0.0952524)
(0.000159326 -4.26323e-06 0.111633)
(-0.000130317 1.00215e-05 0.11118)
(5.16815e-05 1.54477e-06 0.11118)
(-6.62581e-05 2.70871e-06 0.111281)
(-6.23956e-06 2.55768e-07 0.111355)
(-4.12324e-05 -1.08693e-06 0.1114)
(-2.68932e-05 -1.48761e-06 0.111438)
(-3.25064e-05 -2.13748e-06 0.11147)
(-2.58049e-05 -2.55491e-06 0.111501)
(-2.3025e-05 -3.12541e-06 0.111532)
(-1.66877e-05 -3.46528e-06 0.111562)
(-1.07207e-05 -3.6672e-06 0.111588)
(-3.67236e-06 -3.67169e-06 0.111605)
(0.000551602 -0.00386768 0.0143499)
(0.000188681 -0.004914 0.021185)
(0.00063929 -0.00165535 0.013895)
(-0.00362836 -0.00437089 0.0211878)
(-0.00036749 -0.000440989 0.0844562)
(0.000112271 -0.000139755 0.0997859)
(-0.000100006 -0.000256107 0.0953986)
(3.00602e-05 -0.000233821 0.095253)
(0.000973591 -0.00286566 0.0141181)
(-0.00434944 -0.00496357 0.0262003)
(-0.000415093 -0.000325803 0.0822826)
(0.000181979 -0.000254945 0.0952956)
(0.000134072 0.000322973 0.112693)
(4.33572e-05 6.82574e-05 0.113093)
(5.1006e-05 0.000191948 0.111748)
(7.76301e-06 0.000162253 0.111634)
(-0.00229137 -0.00513703 0.0173827)
(-0.00040348 -0.000389522 0.0837836)
(7.11161e-05 -0.000347524 0.0943988)
(0.000110982 0.000249075 0.112132)
(-0.000126114 4.96108e-05 0.112255)
(-9.38999e-05 -0.000103873 0.112159)
(-2.59429e-05 -8.43283e-05 0.111636)
(-5.31561e-05 -0.00012463 0.111333)
(4.33806e-06 -0.000129531 0.111181)
(-0.000531834 -0.000408714 0.0802387)
(0.000228301 -0.000323569 0.095363)
(0.000144573 0.000259773 0.11221)
(-8.72212e-05 7.71109e-05 0.111991)
(-5.14494e-05 -3.8815e-05 0.111905)
(5.37485e-05 -5.30859e-05 0.111536)
(2.24883e-05 4.60167e-05 0.11144)
(2.32578e-05 1.99223e-05 0.111391)
(1.51023e-05 6.12527e-05 0.111275)
(4.986e-06 5.70444e-05 0.111181)
(-0.000409997 -0.000531974 0.0801979)
(0.000474234 0.000474471 0.11275)
(-0.000245633 5.50689e-05 0.111904)
(-1.42895e-05 -4.10097e-05 0.111636)
(2.39608e-06 -7.37031e-05 0.111319)
(1.47791e-05 1.07678e-05 0.111235)
(-1.97672e-05 -2.48018e-05 0.111315)
(-2.3404e-05 -3.86426e-05 0.111377)
(-1.40793e-05 -4.85445e-05 0.111377)
(-1.89016e-05 -6.06636e-05 0.111326)
(-8.40349e-07 -6.53375e-05 0.111283)
(-0.00514077 -0.00228946 0.0173785)
(-0.000323987 0.000229975 0.0953445)
(5.40287e-05 -0.000244796 0.111899)
(7.42834e-07 1.55809e-06 0.111182)
(3.60857e-05 -1.42023e-06 0.111006)
(-1.39095e-05 2.38561e-06 0.111126)
(-5.35832e-06 -1.13945e-05 0.11123)
(1.87221e-06 -1.97864e-05 0.111316)
(-1.75555e-06 -2.43091e-06 0.111369)
(1.84389e-06 -8.1379e-06 0.111382)
(-6.21104e-07 3.79231e-06 0.11137)
(6.62058e-07 3.28478e-06 0.111356)
(-0.00286635 0.000973838 0.0141181)
(-0.00039025 -0.00040226 0.0837768)
(0.000258839 0.00014635 0.112203)
(-4.26713e-05 -1.27728e-05 0.111632)
(-2.3501e-06 3.72056e-05 0.111007)
(-1.4989e-05 -1.36326e-05 0.111078)
(-9.02096e-06 -1.48378e-05 0.111178)
(-8.27007e-06 -1.27265e-05 0.11126)
(-1.08821e-05 -2.3065e-05 0.111327)
(-1.16611e-05 -2.51468e-05 0.111373)
(-8.05891e-06 -3.11834e-05 0.111395)
(-7.76728e-06 -3.34117e-05 0.111398)
(-1.482e-06 -3.56745e-05 0.111398)
(-0.00496453 -0.00434895 0.0262002)
(-0.000348478 7.16165e-05 0.0943936)
(7.65459e-05 -8.66039e-05 0.111986)
(-7.52004e-05 1.92455e-06 0.111315)
(1.41925e-06 -1.38586e-05 0.111126)
(-1.59582e-05 -8.87628e-06 0.111179)
(-1.32982e-05 -1.25608e-05 0.11124)
(-1.35508e-05 -1.43486e-05 0.111299)
(-1.05248e-05 -1.92264e-05 0.111351)
(-9.86222e-06 -1.74691e-05 0.111392)
(-6.39287e-06 -2.04013e-05 0.111417)
(-5.04691e-06 -1.88595e-05 0.111429)
(-1.43457e-06 -1.95261e-05 0.111434)
(-0.00165527 0.000638646 0.013895)
(-0.000327267 -0.000412883 0.0822826)
(0.000246845 0.000113984 0.11213)
(-4.09477e-05 -4.81119e-05 0.111903)
(8.58622e-06 1.74358e-05 0.111233)
(-1.17214e-05 -4.02493e-06 0.111229)
(-1.34082e-05 -7.30566e-06 0.11126)
(-1.4497e-05 -1.27361e-05 0.111299)
(-1.49369e-05 -1.47457e-05 0.111343)
(-1.39866e-05 -1.94131e-05 0.111384)
(-1.28168e-05 -2.10496e-05 0.111418)
(-9.45515e-06 -2.41117e-05 0.111443)
(-6.90354e-06 -2.51445e-05 0.111458)
(-2.14534e-06 -2.61635e-05 0.111465)
(-0.00437092 -0.00362756 0.021188)
(-0.000255301 0.00018232 0.0952956)
(4.87798e-05 -0.000127348 0.112255)
(-5.39723e-05 5.34307e-05 0.111535)
(-2.82915e-05 -2.10941e-05 0.111314)
(-2.24584e-05 1.95272e-06 0.111315)
(-2.47082e-05 -1.1128e-05 0.111327)
(-2.07426e-05 -1.02074e-05 0.111351)
(-2.02294e-05 -1.40525e-05 0.111384)
(-1.68255e-05 -1.62389e-05 0.111417)
(-1.45574e-05 -1.7284e-05 0.111447)
(-1.04857e-05 -1.89997e-05 0.111471)
(-7.09579e-06 -1.92267e-05 0.111487)
(-2.45709e-06 -1.98032e-05 0.111495)
(-0.000446164 -0.00036547 0.0844589)
(0.000317051 0.000133576 0.112696)
(-0.000106835 -8.78683e-05 0.112161)
(4.38692e-05 1.81822e-05 0.111441)
(-4.04231e-05 -2.14418e-05 0.111377)
(-1.69006e-06 -2.73904e-06 0.111369)
(-2.55989e-05 -1.17175e-05 0.111373)
(-1.74418e-05 -1.00513e-05 0.111392)
(-2.09748e-05 -1.29997e-05 0.111418)
(-1.72194e-05 -1.44112e-05 0.111448)
(-1.55753e-05 -1.57611e-05 0.111476)
(-1.13955e-05 -1.70925e-05 0.111499)
(-7.70618e-06 -1.77096e-05 0.111516)
(-2.68478e-06 -1.8298e-05 0.111524)
(-0.000147878 0.000116837 0.0997908)
(6.96104e-05 4.63752e-05 0.113097)
(-8.89904e-05 -2.92467e-05 0.111638)
(1.50232e-05 2.29119e-05 0.111391)
(-4.87354e-05 -1.57022e-05 0.111378)
(-1.28443e-05 1.83329e-06 0.111382)
(-3.20373e-05 -8.36197e-06 0.111395)
(-2.20495e-05 -6.00431e-06 0.111417)
(-2.45935e-05 -9.44848e-06 0.111443)
(-1.95905e-05 -1.02074e-05 0.111472)
(-1.72397e-05 -1.14082e-05 0.1115)
(-1.24346e-05 -1.2222e-05 0.111525)
(-8.30144e-06 -1.26775e-05 0.111543)
(-2.96293e-06 -1.30564e-05 0.111553)
(-0.00386689 0.000554014 0.0143514)
(-0.000265873 -0.000105508 0.0954056)
(0.000177897 3.85385e-05 0.111754)
(-0.000130903 -6.20411e-05 0.111336)
(6.08675e-05 1.03162e-05 0.111277)
(-6.20654e-05 -2.43183e-05 0.111326)
(5.86941e-06 -2.97461e-06 0.11137)
(-3.34576e-05 -9.48464e-06 0.111398)
(-1.85203e-05 -5.60038e-06 0.111429)
(-2.51794e-05 -7.35244e-06 0.111457)
(-1.91799e-05 -7.1354e-06 0.111487)
(-1.75888e-05 -7.8869e-06 0.111517)
(-1.26657e-05 -8.30315e-06 0.111544)
(-8.54112e-06 -8.65116e-06 0.111566)
(-2.99659e-06 -8.81296e-06 0.111579)
(-0.00491344 0.000179674 0.0211861)
(-0.000241361 2.84741e-05 0.0952555)
(0.000161398 -4.01313e-06 0.111636)
(-0.00012601 1.0713e-05 0.111182)
(5.5687e-05 1.6888e-06 0.111181)
(-6.30696e-05 3.19724e-06 0.111283)
(2.27835e-06 3.8003e-07 0.111355)
(-3.47283e-05 -4.67342e-07 0.111398)
(-1.99057e-05 -1.0636e-06 0.111434)
(-2.61306e-05 -1.58344e-06 0.111465)
(-2.01253e-05 -1.87356e-06 0.111495)
(-1.84056e-05 -2.32342e-06 0.111525)
(-1.31979e-05 -2.67852e-06 0.111553)
(-8.81123e-06 -2.90371e-06 0.111579)
(-2.95418e-06 -2.87491e-06 0.111595)
(0.000551512 -0.00386754 0.0143504)
(0.000188441 -0.00491384 0.0211858)
(0.000639157 -0.00165544 0.0138953)
(-0.00362845 -0.00437109 0.0211883)
(-0.000367895 -0.000440406 0.084459)
(0.000112211 -0.000138695 0.0997893)
(-0.000100015 -0.000255472 0.095402)
(3.00997e-05 -0.000232643 0.0952566)
(0.000973565 -0.00286576 0.0141184)
(-0.00434946 -0.00496342 0.0262009)
(-0.000414822 -0.00032551 0.0822849)
(0.000182586 -0.000254138 0.0952979)
(0.000135407 0.000323823 0.112696)
(4.43282e-05 6.88257e-05 0.113096)
(5.15317e-05 0.000192849 0.111751)
(8.33603e-06 0.000163082 0.111636)
(-0.00229142 -0.00513722 0.0173833)
(-0.000403563 -0.000389313 0.0837862)
(7.13423e-05 -0.000346847 0.0944014)
(0.000111129 0.000250583 0.112135)
(-0.000126137 5.06535e-05 0.112258)
(-9.44438e-05 -0.000101357 0.112162)
(-2.59692e-05 -8.18183e-05 0.111639)
(-5.29428e-05 -0.000121297 0.111336)
(4.35068e-06 -0.000126173 0.111184)
(-0.000531537 -0.000408923 0.080241)
(0.000228856 -0.000323329 0.0953655)
(0.000145481 0.000260681 0.112213)
(-8.59603e-05 7.82718e-05 0.111993)
(-5.11561e-05 -3.67482e-05 0.111907)
(5.53925e-05 -5.04784e-05 0.111538)
(2.52896e-05 4.87344e-05 0.111441)
(2.50644e-05 2.31273e-05 0.111392)
(1.64964e-05 6.43804e-05 0.111276)
(5.60623e-06 6.00088e-05 0.111182)
(-0.000410212 -0.000531684 0.0802003)
(0.000474801 0.000475006 0.112754)
(-0.000244368 5.61491e-05 0.111907)
(-1.3225e-05 -3.97406e-05 0.111639)
(3.84496e-06 -7.18798e-05 0.111321)
(1.63718e-05 1.31458e-05 0.111237)
(-1.91109e-05 -2.14577e-05 0.111317)
(-2.33499e-05 -3.57229e-05 0.111379)
(-1.37238e-05 -4.61068e-05 0.111378)
(-1.89489e-05 -5.77851e-05 0.111327)
(-1.03412e-06 -6.27379e-05 0.111284)
(-0.00514097 -0.00228953 0.0173791)
(-0.000323751 0.000230544 0.0953469)
(5.51242e-05 -0.000243558 0.111902)
(2.09142e-06 3.07113e-06 0.111185)
(3.77489e-05 6.21267e-07 0.111008)
(-1.15358e-05 5.23585e-06 0.111128)
(-3.54094e-06 -8.10507e-06 0.111231)
(4.05225e-06 -1.59789e-05 0.111316)
(1.34549e-07 2.74098e-06 0.11137)
(3.63044e-06 -2.33382e-06 0.111382)
(9.64279e-07 9.7124e-06 0.11137)
(1.01083e-06 9.64392e-06 0.111356)
(-0.00286648 0.000973824 0.0141185)
(-0.000389964 -0.000402419 0.0837793)
(0.00025979 0.000147167 0.112206)
(-4.12079e-05 -1.18126e-05 0.111634)
(-2.81721e-07 3.87678e-05 0.111009)
(-1.25844e-05 -1.10913e-05 0.111079)
(-6.32194e-06 -1.19963e-05 0.111179)
(-5.71903e-06 -9.18315e-06 0.11126)
(-8.34434e-06 -1.89019e-05 0.111326)
(-9.61197e-06 -2.09009e-05 0.111372)
(-6.96466e-06 -2.64352e-05 0.111393)
(-7.27273e-06 -2.90496e-05 0.111396)
(-1.23239e-06 -3.12582e-05 0.111395)
(-0.0049644 -0.00434903 0.026201)
(-0.000347747 7.18464e-05 0.0943958)
(7.77186e-05 -8.53508e-05 0.111988)
(-7.33715e-05 3.52948e-06 0.111317)
(4.34765e-06 -1.1575e-05 0.111128)
(-1.30154e-05 -6.19469e-06 0.11118)
(-9.92482e-06 -9.34139e-06 0.11124)
(-1.0413e-05 -1.05006e-05 0.111299)
(-7.6453e-06 -1.49234e-05 0.11135)
(-7.39072e-06 -1.27447e-05 0.11139)
(-4.48772e-06 -1.52685e-05 0.111414)
(-3.7881e-06 -1.30647e-05 0.111426)
(-1.04925e-06 -1.35719e-05 0.111431)
(-0.00165539 0.000638571 0.0138954)
(-0.000326802 -0.000412782 0.0822843)
(0.00024857 0.000113841 0.112133)
(-3.8662e-05 -4.7993e-05 0.111905)
(1.10738e-05 1.86625e-05 0.111235)
(-8.57884e-06 -2.25965e-06 0.11123)
(-1.00661e-05 -4.65241e-06 0.11126)
(-1.06309e-05 -9.63776e-06 0.111299)
(-1.13018e-05 -1.11471e-05 0.111341)
(-1.05743e-05 -1.53069e-05 0.111381)
(-9.9394e-06 -1.65737e-05 0.111415)
(-7.29128e-06 -1.92927e-05 0.111439)
(-5.58878e-06 -2.01991e-05 0.111454)
(-1.70796e-06 -2.11846e-05 0.111461)
(-0.0043712 -0.00362788 0.0211887)
(-0.000254325 0.000182835 0.0952966)
(5.00158e-05 -0.000127429 0.112257)
(-5.1426e-05 5.52212e-05 0.111536)
(-2.48188e-05 -2.04281e-05 0.111315)
(-1.81036e-05 4.06174e-06 0.111315)
(-2.04318e-05 -8.81182e-06 0.111326)
(-1.64247e-05 -7.3792e-06 0.11135)
(-1.60836e-05 -1.06971e-05 0.111381)
(-1.30696e-05 -1.25034e-05 0.111414)
(-1.13746e-05 -1.32083e-05 0.111443)
(-8.11138e-06 -1.46657e-05 0.111466)
(-5.67737e-06 -1.4746e-05 0.111482)
(-2.01857e-06 -1.52736e-05 0.11149)
(-0.000444411 -0.000366232 0.0844597)
(0.000318673 0.000134548 0.112697)
(-0.000103791 -8.91101e-05 0.112163)
(4.68639e-05 2.07295e-05 0.111442)
(-3.76132e-05 -2.1242e-05 0.111379)
(3.10355e-06 -1.02253e-06 0.11137)
(-2.15329e-05 -9.61129e-06 0.111371)
(-1.25343e-05 -7.59544e-06 0.11139)
(-1.64313e-05 -1.01681e-05 0.111415)
(-1.30867e-05 -1.12596e-05 0.111444)
(-1.20996e-05 -1.23387e-05 0.111472)
(-8.82698e-06 -1.34863e-05 0.111494)
(-6.19609e-06 -1.39851e-05 0.11151)
(-2.18562e-06 -1.45063e-05 0.111518)
(-0.000144677 0.000115292 0.09979)
(7.06077e-05 4.72088e-05 0.113097)
(-8.61519e-05 -2.90218e-05 0.111638)
(1.90039e-05 2.43175e-05 0.111392)
(-4.60876e-05 -1.56189e-05 0.111378)
(-6.57879e-06 3.52949e-06 0.111382)
(-2.70177e-05 -7.30558e-06 0.111393)
(-1.70049e-05 -4.05067e-06 0.111414)
(-1.97505e-05 -7.26658e-06 0.111439)
(-1.52436e-05 -7.82257e-06 0.111467)
(-1.3602e-05 -8.86171e-06 0.111495)
(-9.75852e-06 -9.5446e-06 0.111519)
(-6.69736e-06 -9.88427e-06 0.111537)
(-2.45739e-06 -1.01639e-05 0.111546)
(-0.00386747 0.000553949 0.0143492)
(-0.000261882 -0.00010475 0.0954034)
(0.000181467 3.99234e-05 0.111754)
(-0.000127339 -6.12082e-05 0.111339)
(6.37336e-05 1.20495e-05 0.111277)
(-5.89918e-05 -2.42107e-05 0.111328)
(1.1643e-05 -1.3275e-06 0.11137)
(-2.91374e-05 -9.18631e-06 0.111396)
(-1.24858e-05 -4.44338e-06 0.111425)
(-2.02043e-05 -6.09474e-06 0.111454)
(-1.46824e-05 -5.6984e-06 0.111482)
(-1.38207e-05 -6.36124e-06 0.111511)
(-9.85031e-06 -6.6732e-06 0.111538)
(-6.81545e-06 -6.92791e-06 0.111559)
(-2.44848e-06 -7.06719e-06 0.111572)
(-0.00491399 0.000182705 0.0211862)
(-0.000239996 2.92151e-05 0.0952582)
(0.000162044 -2.66465e-06 0.111638)
(-0.000122952 1.04569e-05 0.111184)
(5.8959e-05 2.50591e-06 0.111182)
(-6.05348e-05 3.1235e-06 0.111284)
(8.74744e-06 5.68357e-07 0.111355)
(-3.02039e-05 -1.46586e-08 0.111395)
(-1.3901e-05 -7.27074e-07 0.11143)
(-2.10077e-05 -1.19078e-06 0.111461)
(-1.55102e-05 -1.44272e-06 0.11149)
(-1.45751e-05 -1.76177e-06 0.111519)
(-1.03245e-05 -2.02321e-06 0.111547)
(-7.09131e-06 -2.20072e-06 0.111572)
(-2.37977e-06 -2.17868e-06 0.111589)
(0.000551465 -0.00386745 0.0143506)
(0.000188422 -0.00491377 0.0211863)
(0.000639047 -0.00165549 0.0138956)
(-0.00362861 -0.00437119 0.021189)
(-0.000368161 -0.000439688 0.0844614)
(0.000112308 -0.000137575 0.099792)
(-9.98589e-05 -0.000254777 0.0954046)
(3.01562e-05 -0.000232022 0.0952595)
(0.00097358 -0.00286575 0.0141187)
(-0.00434964 -0.00496345 0.0262017)
(-0.000414604 -0.000325392 0.0822869)
(0.000182979 -0.000253666 0.0952998)
(0.000136557 0.000324389 0.112698)
(4.53037e-05 6.92302e-05 0.113098)
(5.20011e-05 0.000193492 0.111753)
(8.75628e-06 0.000163479 0.111638)
(-0.00229152 -0.00513729 0.0173837)
(-0.000403785 -0.000389532 0.0837884)
(7.14157e-05 -0.000346353 0.0944034)
(0.000111164 0.000251688 0.112137)
(-0.000126244 5.14119e-05 0.11226)
(-9.48023e-05 -9.92266e-05 0.112165)
(-2.57811e-05 -7.98912e-05 0.111642)
(-5.27292e-05 -0.000119156 0.111339)
(4.24588e-06 -0.000123769 0.111187)
(-0.0005316 -0.000409337 0.0802428)
(0.000229305 -0.000323383 0.0953674)
(0.000146194 0.000261209 0.112215)
(-8.49319e-05 7.9113e-05 0.111995)
(-5.09519e-05 -3.51625e-05 0.111909)
(5.68267e-05 -4.84363e-05 0.111539)
(2.75909e-05 5.09987e-05 0.111442)
(2.60632e-05 2.55169e-05 0.111393)
(1.74577e-05 6.67117e-05 0.111276)
(6.32956e-06 6.23884e-05 0.111182)
(-0.000410607 -0.000531792 0.0802021)
(0.00047522 0.000475365 0.112756)
(-0.000243428 5.69607e-05 0.111909)
(-1.23985e-05 -3.87696e-05 0.111641)
(4.97871e-06 -7.02963e-05 0.111323)
(1.7614e-05 1.50014e-05 0.111239)
(-1.85173e-05 -1.90791e-05 0.111318)
(-2.33609e-05 -3.33413e-05 0.11138)
(-1.34921e-05 -4.39855e-05 0.111379)
(-1.87675e-05 -5.49006e-05 0.111329)
(-1.08005e-06 -6.02495e-05 0.111286)
(-0.00514106 -0.00228965 0.0173795)
(-0.000323764 0.000230928 0.0953487)
(5.59975e-05 -0.000242676 0.111904)
(3.19959e-06 4.20434e-06 0.111186)
(3.92508e-05 2.07881e-06 0.11101)
(-9.6176e-06 7.28174e-06 0.11113)
(-2.53797e-06 -5.54702e-06 0.111232)
(6.00737e-06 -1.30521e-05 0.111316)
(2.17477e-06 6.55657e-06 0.11137)
(5.14678e-06 1.94423e-06 0.111383)
(2.31293e-06 1.41291e-05 0.11137)
(1.34497e-06 1.42226e-05 0.111356)
(-0.00286651 0.000973874 0.0141188)
(-0.000390084 -0.000402768 0.0837812)
(0.000260414 0.000147694 0.112208)
(-4.00697e-05 -1.11389e-05 0.111636)
(1.23277e-06 4.00511e-05 0.11101)
(-1.08429e-05 -9.34924e-06 0.11108)
(-4.08705e-06 -1.01294e-05 0.111179)
(-3.59529e-06 -6.47473e-06 0.11126)
(-6.49344e-06 -1.55369e-05 0.111326)
(-8.27382e-06 -1.78663e-05 0.111371)
(-6.13974e-06 -2.30572e-05 0.111392)
(-6.7992e-06 -2.60369e-05 0.111395)
(-1.10009e-06 -2.82761e-05 0.111394)
(-0.00496445 -0.00434926 0.0262018)
(-0.000347152 7.19105e-05 0.0943975)
(7.86437e-05 -8.43552e-05 0.11199)
(-7.17607e-05 4.76543e-06 0.111319)
(6.52246e-06 -9.64276e-06 0.111129)
(-1.09296e-05 -3.96836e-06 0.11118)
(-7.04244e-06 -6.62853e-06 0.11124)
(-7.91158e-06 -7.40318e-06 0.111298)
(-5.36592e-06 -1.13951e-05 0.111348)
(-5.34053e-06 -8.68627e-06 0.111388)
(-2.98983e-06 -1.06949e-05 0.111412)
(-2.82983e-06 -8.07908e-06 0.111423)
(-8.04475e-07 -8.42976e-06 0.111428)
(-0.00165548 0.000638577 0.0138958)
(-0.000326431 -0.000412874 0.0822858)
(0.000249982 0.00011342 0.112135)
(-3.68435e-05 -4.81904e-05 0.111906)
(1.31399e-05 1.95226e-05 0.111236)
(-6.07471e-06 -1.20834e-06 0.111231)
(-7.54143e-06 -2.42101e-06 0.11126)
(-7.52369e-06 -7.18652e-06 0.111298)
(-8.36126e-06 -8.27888e-06 0.11134)
(-7.76363e-06 -1.18812e-05 0.11138)
(-7.55677e-06 -1.29002e-05 0.111413)
(-5.53945e-06 -1.53161e-05 0.111437)
(-4.54776e-06 -1.61642e-05 0.111451)
(-1.40064e-06 -1.70942e-05 0.111458)
(-0.00437136 -0.00362825 0.0211894)
(-0.000253662 0.000183124 0.0952977)
(5.09734e-05 -0.00012725 0.112258)
(-4.92284e-05 5.65411e-05 0.111537)
(-2.19651e-05 -1.97354e-05 0.111316)
(-1.45571e-05 5.8762e-06 0.111315)
(-1.69462e-05 -7.20476e-06 0.111325)
(-1.2907e-05 -5.1436e-06 0.111348)
(-1.26077e-05 -7.94455e-06 0.11138)
(-9.98561e-06 -9.47421e-06 0.111411)
(-8.77492e-06 -9.93509e-06 0.111441)
(-6.25269e-06 -1.11963e-05 0.111463)
(-4.60573e-06 -1.11954e-05 0.111478)
(-1.6894e-06 -1.16165e-05 0.111486)
(-0.000442341 -0.000366958 0.0844607)
(0.000320511 0.000135283 0.112698)
(-0.000101315 -9.10782e-05 0.112165)
(4.91597e-05 2.31521e-05 0.111442)
(-3.50493e-05 -2.14254e-05 0.11138)
(6.52394e-06 8.08745e-07 0.11137)
(-1.8583e-05 -8.29595e-06 0.11137)
(-8.27986e-06 -5.62725e-06 0.111388)
(-1.26963e-05 -7.85044e-06 0.111413)
(-9.75542e-06 -8.71685e-06 0.111441)
(-9.27698e-06 -9.58393e-06 0.111468)