/*--------------------------------*- C++ -*----------------------------------*\
| =========                 |                                                 |
| \\      /  F ield         | OpenFOAM: The Open Source CFD Toolbox           |
|  \\    /   O peration     | Version:  2.1.1                                 |
|   \\  /    A nd           | Web:      www.OpenFOAM.org                      |
|    \\/     M anipulation  |                                                 |
\*---------------------------------------------------------------------------*/
FoamFile
{
    version     2.0;
    format      ascii;
    class       volVectorField;
    location    "0.0045";
    object      U;
}
// * * * * * * * * * * * * * * * * * * * * * * * * * * * * * * * * * * * * * //

dimensions      [0 1 -1 0 0 0 0];

internalField   nonuniform List<vector> 
10300
(
(0.00465303 -0.00157008 0.0169934)
(0.000528337 -0.00386989 0.0146129)
(0.000178544 -0.00490883 0.0213275)
(0.000617178 -0.00166014 0.0143366)
(-0.00363441 -0.00433558 0.0215708)
(-0.000342185 -0.000494369 0.075182)
(0.000115892 -0.000172923 0.0937083)
(-9.43075e-05 -0.000268501 0.0888471)
(3.5425e-05 -0.000260969 0.0881859)
(0.000944537 -0.0028518 0.0145814)
(-0.00432851 -0.00493727 0.0264476)
(-0.000391842 -0.000335579 0.0720164)
(0.000188568 -0.000277614 0.088561)
(0.000149841 0.000385362 0.113401)
(3.49149e-05 0.000101115 0.116117)
(5.45485e-05 0.000221184 0.113267)
(8.37695e-06 0.000184937 0.112806)
(-0.0023585 -0.00506451 0.0177345)
(-0.000401814 -0.000396345 0.073705)
(2.89024e-05 -0.000369916 0.0875765)
(9.27595e-05 0.0002675 0.112115)
(-0.000179705 4.87402e-05 0.11402)
(-0.00012905 -0.000145236 0.114764)
(-4.01954e-05 -0.000118179 0.113486)
(-6.23669e-05 -0.000157904 0.112551)
(3.6037e-06 -0.000161652 0.112298)
(-0.000588471 -0.000467796 0.0705435)
(0.000228776 -0.000347709 0.0887176)
(0.000130981 0.000307487 0.112353)
(-0.000101989 8.78992e-05 0.113542)
(-5.50736e-05 -4.059e-05 0.114267)
(6.50927e-05 -6.6464e-05 0.113138)
(3.29506e-05 4.63951e-05 0.112608)
(2.95963e-05 2.65181e-05 0.112311)
(1.63687e-05 7.15675e-05 0.1121)
(6.6397e-06 6.7656e-05 0.111952)
(-0.00046906 -0.000589328 0.0705008)
(0.000566722 0.000566779 0.112492)
(-0.000292631 5.33393e-05 0.113564)
(-4.61605e-06 -4.36877e-05 0.113787)
(-1.84386e-06 -9.88246e-05 0.112684)
(2.03174e-05 -8.59164e-06 0.112229)
(-2.36269e-05 -4.40917e-05 0.112193)
(-3.39242e-05 -6.10259e-05 0.112288)
(-2.18621e-05 -7.19265e-05 0.112314)
(-2.52247e-05 -8.49158e-05 0.112238)
(-1.34213e-06 -8.98631e-05 0.112157)
(-0.00506794 -0.00235673 0.0177298)
(-0.000347901 0.000229779 0.0886918)
(5.24676e-05 -0.000291806 0.113555)
(1.8378e-05 1.90105e-05 0.112647)
(4.90393e-05 -5.9011e-06 0.11179)
(-2.38055e-06 4.94116e-06 0.111818)
(-1.55349e-06 -1.55515e-05 0.112005)
(7.42581e-06 -2.4811e-05 0.112202)
(7.13666e-07 -7.67949e-06 0.112329)
(5.4733e-06 -1.14759e-05 0.112364)
(-9.72518e-08 5.53602e-07 0.112337)
(2.30266e-06 4.45886e-07 0.112308)
(-0.00285248 0.000944789 0.0145813)
(-0.000397143 -0.000400926 0.073698)
(0.000306476 0.000132352 0.112339)
(-4.51734e-05 -2.94037e-06 0.113779)
(-6.8499e-06 4.97091e-05 0.111791)
(-2.07539e-05 -1.94438e-05 0.111675)
(-1.51132e-05 -2.14586e-05 0.111929)
(-1.50157e-05 -2.73089e-05 0.112117)
(-1.79873e-05 -3.79623e-05 0.112254)
(-2.08707e-05 -4.50694e-05 0.112343)
(-1.37205e-05 -5.20506e-05 0.112383)
(-1.35931e-05 -5.64309e-05 0.112389)
(-1.59099e-06 -5.91174e-05 0.112387)
(-0.00493818 -0.00432812 0.0264474)
(-0.000370682 3.03065e-05 0.0875699)
(8.79014e-05 -0.000101028 0.113533)
(-0.00010024 -1.96185e-06 0.112678)
(4.0215e-06 -1.83983e-06 0.111819)
(-2.21254e-05 -1.48595e-05 0.111931)
(-1.22126e-05 -1.14931e-05 0.112091)
(-1.84811e-05 -2.07664e-05 0.112204)
(-1.01565e-05 -2.35017e-05 0.112301)
(-1.31158e-05 -2.34803e-05 0.112376)
(-5.73638e-06 -2.51087e-05 0.112422)
(-7.05548e-06 -2.35426e-05 0.112444)
(-1.98206e-07 -2.38179e-05 0.112454)
(-0.00165999 0.000616634 0.0143364)
(-0.000335847 -0.000390739 0.0720177)
(0.000265543 9.41699e-05 0.112115)
(-4.35101e-05 -5.30024e-05 0.114264)
(-1.03947e-05 2.30574e-05 0.112226)
(-1.61209e-05 -5.92166e-07 0.112004)
(-2.8463e-05 -1.40619e-05 0.112118)
(-2.10228e-05 -1.79835e-05 0.112204)
(-2.68416e-05 -2.64793e-05 0.112282)
(-2.05604e-05 -3.10997e-05 0.112358)
(-2.2408e-05 -3.66167e-05 0.112421)
(-1.38106e-05 -4.01963e-05 0.112468)
(-1.23449e-05 -4.30497e-05 0.112495)
(-1.86744e-06 -4.43283e-05 0.112509)
(-0.00433551 -0.00363369 0.0215706)
(-0.000278486 0.000188699 0.0885631)
(4.80144e-05 -0.000182433 0.114022)
(-6.51254e-05 6.55098e-05 0.11314)
(-4.65906e-05 -2.58905e-05 0.112194)
(-2.75353e-05 7.34381e-06 0.112202)
(-3.91059e-05 -1.84089e-05 0.112255)
(-2.4822e-05 -9.76041e-06 0.112301)
(-3.16007e-05 -2.06171e-05 0.112358)
(-2.02956e-05 -1.96827e-05 0.112421)
(-2.22007e-05 -2.34584e-05 0.112476)
(-1.21597e-05 -2.3891e-05 0.11252)
(-1.11717e-05 -2.48276e-05 0.112549)
(-1.44147e-06 -2.49471e-05 0.112565)
(-0.00049706 -0.000341223 0.0751895)
(0.000380147 0.000149063 0.113411)
(-0.000147098 -0.000123681 0.114769)
(4.40694e-05 2.93238e-05 0.112613)
(-6.32935e-05 -3.3403e-05 0.112289)
(-6.42077e-06 -1.57497e-07 0.11233)
(-4.57584e-05 -2.11364e-05 0.112344)
(-2.33745e-05 -1.32727e-05 0.112376)
(-3.67673e-05 -2.26317e-05 0.112422)
(-2.34035e-05 -2.20972e-05 0.112477)
(-2.66054e-05 -2.6768e-05 0.112529)
(-1.51763e-05 -2.77481e-05 0.112572)
(-1.33987e-05 -2.97941e-05 0.112601)
(-1.97414e-06 -3.01999e-05 0.112618)
(-0.000178734 0.000118857 0.0937248)
(0.000102293 3.87434e-05 0.116135)
(-0.000121906 -4.35578e-05 0.113501)
(2.313e-05 2.89338e-05 0.112316)
(-7.16783e-05 -2.31334e-05 0.112319)
(-1.50131e-05 5.25734e-06 0.112365)
(-5.2486e-05 -1.38794e-05 0.112385)
(-2.63946e-05 -5.28524e-06 0.112423)
(-4.04373e-05 -1.3836e-05 0.112469)
(-2.44443e-05 -1.17651e-05 0.112522)
(-2.78531e-05 -1.5212e-05 0.112574)
(-1.51884e-05 -1.48871e-05 0.112619)
(-1.36227e-05 -1.60572e-05 0.112653)
(-1.92737e-06 -1.59865e-05 0.112672)
(-0.0038693 0.000529489 0.0146193)
(-0.000274386 -9.78053e-05 0.0888687)
(0.000208119 4.40547e-05 0.11329)
(-0.000164398 -7.03167e-05 0.112559)
(7.14534e-05 1.29237e-05 0.112106)
(-8.6706e-05 -3.00499e-05 0.112239)
(2.939e-06 -1.80001e-06 0.112338)
(-5.64462e-05 -1.5047e-05 0.112389)
(-2.3301e-05 -7.35787e-06 0.112444)
(-4.3255e-05 -1.28594e-05 0.112495)
(-2.47793e-05 -1.10909e-05 0.11255)
(-2.9726e-05 -1.36567e-05 0.112604)
(-1.60228e-05 -1.35122e-05 0.112655)
(-1.44991e-05 -1.46444e-05 0.112696)
(-1.93455e-06 -1.44261e-05 0.112721)
(-0.0049079 0.000176379 0.0213307)
(-0.000268673 3.41994e-05 0.0881934)
(0.00018283 -1.26235e-06 0.112813)
(-0.000157875 1.11951e-05 0.112304)
(6.74836e-05 4.64566e-06 0.111953)
(-8.78422e-05 3.94545e-06 0.112159)
(2.86416e-07 2.59818e-06 0.112307)
(-5.81513e-05 -3.17469e-08 0.112387)
(-2.41644e-05 2.15675e-07 0.112453)
(-4.4185e-05 -1.15402e-06 0.112509)
(-2.52426e-05 -1.05226e-06 0.112565)
(-3.0273e-05 -1.88623e-06 0.112619)
(-1.61737e-05 -1.74872e-06 0.112673)
(-1.45371e-05 -1.99861e-06 0.112722)
(-1.96992e-06 -1.87568e-06 0.112755)
(0.000528282 -0.00387001 0.0146134)
(0.000178551 -0.0049088 0.0213281)
(0.000617287 -0.00166015 0.0143373)
(-0.00363498 -0.00433556 0.0215718)
(-0.0003434 -0.000493809 0.0751861)
(0.000115603 -0.00017135 0.0937135)
(-9.45266e-05 -0.00026739 0.0888518)
(3.5013e-05 -0.00025947 0.0881905)
(0.00094464 -0.0028519 0.0145819)
(-0.00432863 -0.00493741 0.0264487)
(-0.000391645 -0.000335912 0.0720197)
(0.000189169 -0.000277369 0.0885646)
(0.000151362 0.000386623 0.113406)
(3.56026e-05 0.000102239 0.116122)
(5.50393e-05 0.000223028 0.113271)
(9.41626e-06 0.000186703 0.11281)
(-0.0023586 -0.00506482 0.0177351)
(-0.000401686 -0.000395769 0.0737086)
(2.92822e-05 -0.000368973 0.0875801)
(9.28032e-05 0.000269601 0.11212)
(-0.000179719 5.0473e-05 0.114024)
(-0.000129761 -0.000141176 0.114768)
(-4.01845e-05 -0.000114315 0.113491)
(-6.21167e-05 -0.000152348 0.112555)
(3.1479e-06 -0.000156651 0.112303)
(-0.000588166 -0.000467846 0.0705468)
(0.000229784 -0.000346637 0.0887208)
(0.000132461 0.000309174 0.112357)
(-0.000100134 8.95575e-05 0.113546)
(-5.45793e-05 -3.77169e-05 0.11427)
(6.75391e-05 -6.23584e-05 0.113142)
(3.65854e-05 5.01827e-05 0.112611)
(3.17889e-05 3.15968e-05 0.112313)
(1.80204e-05 7.60109e-05 0.112101)
(7.17208e-06 7.26673e-05 0.111954)
(-0.000469281 -0.000588099 0.0705039)
(0.000567572 0.00056748 0.112497)
(-0.000290635 5.47178e-05 0.113568)
(-3.56934e-06 -4.14285e-05 0.113791)
(-2.9967e-08 -9.61099e-05 0.112688)
(2.28513e-05 -4.50351e-06 0.112232)
(-2.26569e-05 -3.91351e-05 0.112196)
(-3.36491e-05 -5.68386e-05 0.11229)
(-2.12224e-05 -6.78622e-05 0.112316)
(-2.50525e-05 -8.10266e-05 0.11224)
(-1.21982e-06 -8.61375e-05 0.112159)
(-0.00506826 -0.00235682 0.0177305)
(-0.000346844 0.000231062 0.0886949)
(5.38115e-05 -0.000289746 0.113559)
(2.11606e-05 2.17045e-05 0.112651)
(5.19219e-05 -2.3192e-06 0.111793)
(1.33675e-06 9.6503e-06 0.111821)
(1.20233e-06 -1.00755e-05 0.112006)
(9.96912e-06 -1.86287e-05 0.112203)
(3.45314e-06 5.54467e-07 0.112329)
(7.40927e-06 -2.58987e-06 0.112363)
(1.26032e-06 1.04094e-05 0.112337)
(2.65251e-06 1.06336e-05 0.112307)
(-0.00285258 0.000944869 0.0145819)
(-0.000396632 -0.000400711 0.0737013)
(0.000308053 0.000133963 0.112343)
(-4.31352e-05 -1.73342e-06 0.113783)
(-3.32523e-06 5.28066e-05 0.111793)
(-1.76938e-05 -1.63451e-05 0.111677)
(-1.14078e-05 -1.67889e-05 0.11193)
(-1.10126e-05 -2.25603e-05 0.112118)
(-1.42637e-05 -3.14776e-05 0.112254)
(-1.78982e-05 -3.83802e-05 0.112343)
(-1.14741e-05 -4.46378e-05 0.112382)
(-1.21368e-05 -4.88411e-05 0.112387)
(-1.15094e-06 -5.13291e-05 0.112384)
(-0.00493837 -0.00432829 0.0264486)
(-0.000369828 3.09109e-05 0.0875732)
(8.95963e-05 -9.90794e-05 0.113537)
(-9.74551e-05 -6.13358e-08 0.112681)
(8.69977e-06 1.78173e-06 0.111821)
(-1.76714e-05 -1.11443e-05 0.111932)
(-6.85442e-06 -6.13941e-06 0.11209)
(-1.39205e-05 -1.50095e-05 0.112203)
(-5.68182e-06 -1.68852e-05 0.112299)
(-9.46149e-06 -1.64217e-05 0.112373)
(-2.90289e-06 -1.74e-05 0.112418)
(-5.3191e-06 -1.55993e-05 0.112439)
(3.4789e-07 -1.56659e-05 0.112449)
(-0.00165997 0.000616629 0.0143372)
(-0.000336215 -0.000390385 0.0720205)
(0.000267484 9.42394e-05 0.112119)
(-4.09023e-05 -5.2323e-05 0.114267)
(-6.70459e-06 2.57256e-05 0.112228)
(-1.07783e-05 2.09266e-06 0.112005)
(-2.36625e-05 -9.9068e-06 0.112119)
(-1.52766e-05 -1.34171e-05 0.112203)
(-2.15767e-05 -2.11781e-05 0.11228)
(-1.55454e-05 -2.50474e-05 0.112354)
(-1.83519e-05 -3.01823e-05 0.112417)
(-1.06823e-05 -3.32707e-05 0.112463)
(-1.04453e-05 -3.59492e-05 0.112489)
(-1.21651e-06 -3.70695e-05 0.112503)
(-0.0043355 -0.00363439 0.0215718)
(-0.000278467 0.000189525 0.0885657)
(4.96548e-05 -0.000183196 0.114026)
(-6.08448e-05 6.81181e-05 0.113142)
(-4.18148e-05 -2.53377e-05 0.112196)
(-2.13707e-05 1.00064e-05 0.112202)
(-3.2763e-05 -1.47861e-05 0.112255)
(-1.83171e-05 -5.16241e-06 0.112299)
(-2.55542e-05 -1.56351e-05 0.112355)
(-1.4691e-05 -1.39976e-05 0.112416)
(-1.76761e-05 -1.74144e-05 0.11247)
(-8.66096e-06 -1.74101e-05 0.112514)
(-9.1018e-06 -1.81504e-05 0.112542)
(-7.38111e-07 -1.81404e-05 0.112557)
(-0.000497869 -0.000342489 0.0751917)
(0.000380474 0.000150595 0.113413)
(-0.000143085 -0.000123242 0.114773)
(4.79634e-05 3.22132e-05 0.112614)
(-5.95497e-05 -3.28776e-05 0.112291)
(1.9914e-06 2.38445e-06 0.11233)
(-3.90133e-05 -1.82537e-05 0.112342)
(-1.62588e-05 -9.64532e-06 0.112373)
(-3.0412e-05 -1.86293e-05 0.112418)
(-1.73262e-05 -1.75996e-05 0.112471)
(-2.17541e-05 -2.19488e-05 0.112522)
(-1.1416e-05 -2.26355e-05 0.112564)
(-1.11741e-05 -2.45061e-05 0.112593)
(-1.19354e-06 -2.49163e-05 0.112609)
(-0.00018016 0.000120457 0.0937268)
(0.000103961 4.03147e-05 0.116136)
(-0.000118776 -4.47245e-05 0.113501)
(2.75359e-05 3.09323e-05 0.112316)
(-6.72515e-05 -2.29556e-05 0.112319)
(-6.48917e-06 7.36513e-06 0.112364)
(-4.50448e-05 -1.19349e-05 0.112383)
(-1.87622e-05 -2.44114e-06 0.112418)
(-3.35178e-05 -1.07417e-05 0.112463)
(-1.80225e-05 -8.16898e-06 0.112515)
(-2.2713e-05 -1.1444e-05 0.112566)
(-1.1221e-05 -1.0856e-05 0.11261)
(-1.13821e-05 -1.19258e-05 0.112644)
(-1.11284e-06 -1.18733e-05 0.112662)
(-0.00386891 0.00053029 0.0146189)
(-0.000277381 -9.87891e-05 0.0888704)
(0.000205787 4.30861e-05 0.11329)
(-0.000159853 -7.10198e-05 0.112562)
(7.67608e-05 1.42833e-05 0.112106)
(-8.28924e-05 -3.03147e-05 0.112241)
(1.31324e-05 -6.42407e-07 0.112338)
(-4.89613e-05 -1.3729e-05 0.112386)
(-1.5032e-05 -5.7941e-06 0.112439)
(-3.61468e-05 -1.09746e-05 0.112489)
(-1.80275e-05 -8.99695e-06 0.112542)
(-2.44394e-05 -1.14474e-05 0.112595)
(-1.1899e-05 -1.12486e-05 0.112645)
(-1.21922e-05 -1.23411e-05 0.112686)
(-1.09922e-06 -1.2184e-05 0.112711)
(-0.00490758 0.000173389 0.0213294)
(-0.000267289 3.44122e-05 0.0881956)
(0.000185605 -2.14348e-06 0.112816)
(-0.000152287 1.3105e-05 0.112307)
(7.23513e-05 4.53548e-06 0.111954)
(-8.36641e-05 5.1297e-06 0.11216)
(1.04099e-05 2.79124e-06 0.112306)
(-5.03074e-05 9.07846e-07 0.112384)
(-1.59657e-05 7.20832e-07 0.112448)
(-3.67352e-05 -3.12558e-07 0.112503)
(-1.84962e-05 -1.75437e-07 0.112557)
(-2.49638e-05 -9.61638e-07 0.11261)
(-1.21128e-05 -8.36719e-07 0.112663)
(-1.23176e-05 -1.10389e-06 0.112711)
(-1.05737e-06 -9.04579e-07 0.112744)
(0.00052825 -0.00387001 0.0146139)
(0.000178348 -0.00490871 0.0213288)
(0.000617376 -0.00166014 0.0143376)
(-0.00363535 -0.00433563 0.0215722)
(-0.00034422 -0.000493364 0.0751894)
(0.000115586 -0.000170175 0.0937176)
(-9.46935e-05 -0.000266227 0.0888554)
(3.46099e-05 -0.000257813 0.0881942)
(0.000944628 -0.00285199 0.0145823)
(-0.00432852 -0.00493753 0.0264493)
(-0.000391546 -0.000336135 0.0720221)
(0.0001897 -0.000277078 0.0885672)
(0.000152822 0.000387579 0.11341)
(3.66011e-05 0.000102911 0.116125)
(5.54903e-05 0.000224071 0.113274)
(9.98068e-06 0.000188087 0.112813)
(-0.00235846 -0.00506525 0.0177357)
(-0.000401724 -0.000395265 0.0737113)
(2.95929e-05 -0.000368321 0.0875831)
(9.27779e-05 0.000271266 0.112124)
(-0.000179801 5.1952e-05 0.114028)
(-0.000130329 -0.000137886 0.114772)
(-4.03001e-05 -0.000111473 0.113495)
(-6.17827e-05 -0.000148647 0.112559)
(2.98684e-06 -0.00015271 0.112307)
(-0.000587222 -0.000467578 0.070549)
(0.000230775 -0.00034566 0.0887233)
(0.000133759 0.000310617 0.112361)
(-9.86116e-05 9.06841e-05 0.113549)
(-5.41441e-05 -3.54123e-05 0.114273)
(6.95853e-05 -5.92627e-05 0.113144)
(3.94322e-05 5.31299e-05 0.112613)
(3.32565e-05 3.55121e-05 0.112314)
(1.96023e-05 7.96929e-05 0.112102)
(8.03456e-06 7.63862e-05 0.111955)
(-0.000468927 -0.000587736 0.0705063)
(0.000568037 0.00056812 0.112502)
(-0.000289004 5.57855e-05 0.113571)
(-2.89835e-06 -3.98743e-05 0.113795)
(1.37429e-06 -9.39933e-05 0.11269)
(2.48005e-05 -1.54691e-06 0.112235)
(-2.20462e-05 -3.56234e-05 0.112198)
(-3.33779e-05 -5.36666e-05 0.112292)
(-2.06254e-05 -6.48945e-05 0.112318)
(-2.49334e-05 -7.74864e-05 0.112242)
(-1.33593e-06 -8.31208e-05 0.112161)
(-0.00506869 -0.00235668 0.0177311)
(-0.000345882 0.000231938 0.0886973)
(5.4838e-05 -0.000288159 0.113562)
(2.32864e-05 2.38923e-05 0.112653)
(5.43459e-05 4.19786e-07 0.111795)
(4.27352e-06 1.32891e-05 0.111822)
(3.03262e-06 -5.78798e-06 0.112007)
(1.22213e-05 -1.3545e-05 0.112203)
(5.74808e-06 7.06877e-06 0.11233)
(9.27216e-06 4.52753e-06 0.112363)
(2.92748e-06 1.77579e-05 0.112337)
(2.97433e-06 1.83297e-05 0.112307)
(-0.00285268 0.000944852 0.0145824)
(-0.000396133 -0.00040073 0.0737037)
(0.000309423 0.000135276 0.112347)
(-4.15604e-05 -9.59994e-07 0.113786)
(-5.37358e-07 5.54062e-05 0.111796)
(-1.55765e-05 -1.41353e-05 0.111679)
(-8.46473e-06 -1.33058e-05 0.111931)
(-7.62909e-06 -1.8821e-05 0.112118)
(-1.14356e-05 -2.63497e-05 0.112254)
(-1.56036e-05 -3.33928e-05 0.112341)
(-1.00562e-05 -3.89299e-05 0.11238)
(-1.14519e-05 -4.3526e-05 0.112384)
(-8.96259e-07 -4.58799e-05 0.112382)
(-0.00493851 -0.00432821 0.0264493)
(-0.000369182 3.12212e-05 0.0875758)
(9.08155e-05 -9.75347e-05 0.11354)
(-9.52053e-05 1.39931e-06 0.112684)
(1.22655e-05 4.51047e-06 0.111823)
(-1.43642e-05 -8.17997e-06 0.111932)
(-2.39807e-06 -1.77304e-06 0.11209)
(-1.04556e-05 -1.04715e-05 0.112202)
(-2.19067e-06 -1.17706e-05 0.112296)
(-6.59587e-06 -1.08051e-05 0.11237)
(-7.10583e-07 -1.13744e-05 0.112415)
(-3.90447e-06 -8.94278e-06 0.112436)
(7.35372e-07 -8.76601e-06 0.112445)
(-0.00165997 0.000616679 0.0143376)
(-0.000336462 -0.000390225 0.0720223)
(0.000269155 9.42576e-05 0.112121)
(-3.85945e-05 -5.19554e-05 0.114269)
(-3.95033e-06 2.76427e-05 0.11223)
(-6.47753e-06 3.82552e-06 0.112005)
(-1.98989e-05 -6.31445e-06 0.112119)
(-1.07602e-05 -9.95092e-06 0.112202)
(-1.74444e-05 -1.69668e-05 0.112278)
(-1.16454e-05 -2.03316e-05 0.112351)
(-1.51503e-05 -2.51174e-05 0.112414)
(-8.22582e-06 -2.78595e-05 0.112459)
(-8.88654e-06 -3.03481e-05 0.112485)
(-6.97699e-07 -3.13959e-05 0.112499)
(-0.00433561 -0.00363495 0.0215725)
(-0.000277998 0.000190199 0.0885671)
(5.11002e-05 -0.000183611 0.114029)
(-5.77067e-05 7.03142e-05 0.113143)
(-3.82017e-05 -2.49297e-05 0.112196)
(-1.61228e-05 1.24655e-05 0.112202)
(-2.77134e-05 -1.22568e-05 0.112254)
(-1.32409e-05 -1.57663e-06 0.112296)
(-2.08396e-05 -1.1764e-05 0.112352)
(-1.03482e-05 -9.59409e-06 0.112412)
(-1.41172e-05 -1.26829e-05 0.112466)
(-5.93369e-06 -1.23391e-05 0.112508)
(-7.42537e-06 -1.28986e-05 0.112536)
(-2.11751e-07 -1.28518e-05 0.112551)
(-0.000497549 -0.000343563 0.0751926)
(0.000381603 0.00015179 0.113414)
(-0.000139549 -0.000123883 0.114775)
(5.10451e-05 3.46762e-05 0.112615)
(-5.65367e-05 -3.25466e-05 0.112293)
(8.42057e-06 4.41317e-06 0.11233)
(-3.41124e-05 -1.59811e-05 0.112341)
(-1.03935e-05 -6.86268e-06 0.11237)
(-2.54603e-05 -1.54865e-05 0.112414)
(-1.25656e-05 -1.40937e-05 0.112467)
(-1.78858e-05 -1.81213e-05 0.112517)
(-8.44022e-06 -1.8567e-05 0.112558)
(-9.39826e-06 -2.02991e-05 0.112587)
(-6.24269e-07 -2.07354e-05 0.112602)
(-0.000179293 0.000120253 0.0937265)
(0.000105727 4.13237e-05 0.116135)
(-0.000115881 -4.52861e-05 0.1135)
(3.1634e-05 3.24698e-05 0.112316)
(-6.40769e-05 -2.26439e-05 0.112319)
(7.09016e-07 9.24585e-06 0.112363)
(-3.92312e-05 -1.06108e-05 0.11238)
(-1.28123e-05 -2.89389e-07 0.112415)
(-2.80774e-05 -8.29957e-06 0.112459)
(-1.29946e-05 -5.31977e-06 0.112509)
(-1.85912e-05 -8.45548e-06 0.11256)
(-8.11405e-06 -7.68616e-06 0.112603)
(-9.59343e-06 -8.69556e-06 0.112636)
(-5.70817e-07 -8.65159e-06 0.112654)
(-0.00386895 0.000530495 0.0146156)
(-0.000276531 -9.92163e-05 0.0888664)
(0.000207152 4.31886e-05 0.113288)
(-0.000155737 -7.0753e-05 0.112565)
(8.07291e-05 1.58008e-05 0.112106)
(-7.95748e-05 -3.04167e-05 0.112243)
(2.05853e-05 9.32072e-07 0.112337)
(-4.37915e-05 -1.33117e-05 0.112384)
(-8.04654e-06 -4.62201e-06 0.112435)
(-3.04964e-05 -9.52537e-06 0.112485)
(-1.27198e-05 -7.36171e-06 0.112537)
(-2.02505e-05 -9.69839e-06 0.112589)
(-8.68126e-06 -9.45724e-06 0.112638)
(-1.03643e-05 -1.05228e-05 0.112679)
(-5.31163e-07 -1.0553e-05 0.112703)
(-0.00490807 0.00016961 0.02133)
(-0.000264447 3.53388e-05 0.0881983)
(0.000188314 -1.78522e-06 0.112818)
(-0.000148056 1.41552e-05 0.112309)
(7.60894e-05 4.83269e-06 0.111955)
(-8.0467e-05 5.67472e-06 0.112161)
(1.81409e-05 2.92513e-06 0.112306)
(-4.49024e-05 1.6154e-06 0.112381)
(-8.9836e-06 1.12497e-06 0.112444)
(-3.08309e-05 2.8033e-07 0.112498)
(-1.31682e-05 4.09809e-07 0.11255)
(-2.06861e-05 -1.94384e-07 0.112603)
(-8.93687e-06 -1.51453e-07 0.112655)
(-1.06892e-05 -4.3108e-07 0.112703)
(-4.36264e-07 -2.0373e-07 0.112735)
(0.000528172 -0.00386995 0.0146144)
(0.00017809 -0.00490865 0.0213295)
(0.000617229 -0.00166024 0.0143379)
(-0.00363542 -0.00433585 0.0215727)
(-0.000344514 -0.000492851 0.0751919)
(0.000115659 -0.000169356 0.0937209)
(-9.46313e-05 -0.000266145 0.0888584)
(3.44944e-05 -0.00025695 0.0881976)
(0.0009446 -0.00285209 0.0145827)
(-0.00432851 -0.00493737 0.02645)
(-0.000391135 -0.000335828 0.0720239)
(0.000190232 -0.000276387 0.0885691)
(0.000154139 0.000388471 0.113412)
(3.71706e-05 0.0001034 0.116128)
(5.60079e-05 0.000224992 0.113277)
(1.08983e-05 0.000188942 0.112816)
(-0.00235855 -0.00506541 0.0177363)
(-0.000401977 -0.00039491 0.0737136)
(2.96972e-05 -0.000367661 0.0875855)
(9.27402e-05 0.000272655 0.112127)
(-0.00017983 5.31771e-05 0.114031)
(-0.000130716 -0.00013533 0.114775)
(-4.01585e-05 -0.000109163 0.113498)
(-6.14201e-05 -0.000145149 0.112562)
(2.80186e-06 -0.000149623 0.11231)
(-0.00058714 -0.000467659 0.0705509)
(0.000231456 -0.000345357 0.0887252)
(0.000134725 0.000311631 0.112363)
(-9.74736e-05 9.14657e-05 0.113551)
(-5.37786e-05 -3.3428e-05 0.114275)
(7.12534e-05 -5.69458e-05 0.113146)
(4.18775e-05 5.55893e-05 0.112614)
(3.48231e-05 3.84876e-05 0.112315)
(2.09503e-05 8.24945e-05 0.112103)
(8.60927e-06 7.91032e-05 0.111955)
(-0.000469086 -0.000587235 0.0705081)
(0.000568382 0.000568314 0.112505)
(-0.000287851 5.63568e-05 0.113574)
(-2.47348e-06 -3.87865e-05 0.113797)
(2.54957e-06 -9.24837e-05 0.112693)
(2.62578e-05 5.02517e-07 0.112237)
(-2.15546e-05 -3.31971e-05 0.112199)
(-3.30945e-05 -5.08961e-05 0.112294)
(-2.01661e-05 -6.24875e-05 0.112319)
(-2.4838e-05 -7.46531e-05 0.112244)
(-1.6329e-06 -8.05701e-05 0.112162)
(-0.00506887 -0.00235679 0.0177317)
(-0.000345587 0.000232718 0.0886992)
(5.54365e-05 -0.000287174 0.113565)
(2.4948e-05 2.55957e-05 0.112655)
(5.62464e-05 2.38717e-06 0.111797)
(6.35956e-06 1.63118e-05 0.111823)
(4.30668e-06 -2.44292e-06 0.112007)
(1.46039e-05 -9.40202e-06 0.112203)
(8.16582e-06 1.18227e-05 0.11233)
(1.09213e-05 9.73581e-06 0.112363)
(4.45e-06 2.29976e-05 0.112337)
(3.28834e-06 2.40109e-05 0.112307)
(-0.00285281 0.000944836 0.0145828)
(-0.000395727 -0.000401016 0.0737058)
(0.000310399 0.000136208 0.112349)
(-4.03461e-05 -5.00131e-07 0.113788)
(1.60053e-06 5.73167e-05 0.111797)
(-1.38432e-05 -1.24043e-05 0.11168)
(-5.9197e-06 -1.05923e-05 0.111932)
(-5.05826e-06 -1.56968e-05 0.112119)
(-9.53916e-06 -2.22653e-05 0.112253)
(-1.42635e-05 -2.99117e-05 0.11234)
(-9.12078e-06 -3.50149e-05 0.112378)
(-1.08944e-05 -4.00009e-05 0.112383)
(-7.26511e-07 -4.22982e-05 0.11238)
(-0.00493834 -0.00432823 0.02645)
(-0.000368454 3.11172e-05 0.0875778)
(9.17054e-05 -9.63912e-05 0.113541)
(-9.36204e-05 2.56486e-06 0.112685)
(1.52062e-05 6.56462e-06 0.111823)
(-1.166e-05 -5.5552e-06 0.111933)
(1.07484e-06 1.58229e-06 0.112089)
(-7.81562e-06 -6.91261e-06 0.112201)
(5.42215e-07 -7.81158e-06 0.112295)
(-4.35432e-06 -6.05888e-06 0.112368)
(9.86335e-07 -6.14869e-06 0.112412)
(-2.70847e-06 -3.16218e-06 0.112433)
(9.89934e-07 -2.82917e-06 0.112442)
(-0.00166011 0.000616589 0.014338)
(-0.000336189 -0.00038988 0.0720236)
(0.000270722 9.41887e-05 0.112123)
(-3.64157e-05 -5.17515e-05 0.11427)
(-1.81223e-06 2.88215e-05 0.112232)
(-2.87414e-06 5.09007e-06 0.112006)
(-1.68579e-05 -3.45611e-06 0.112119)
(-7.28067e-06 -7.32909e-06 0.112202)
(-1.42692e-05 -1.36163e-05 0.112277)
(-8.566e-06 -1.66282e-05 0.112349)
(-1.25454e-05 -2.10788e-05 0.112412)
(-6.25733e-06 -2.34888e-05 0.112456)
(-7.61929e-06 -2.58901e-05 0.112482)
(-3.4437e-07 -2.69431e-05 0.112495)
(-0.00433591 -0.00363517 0.0215731)
(-0.00027694 0.00019076 0.088568)
(5.24457e-05 -0.000183444 0.114031)
(-5.55219e-05 7.22222e-05 0.113144)
(-3.5555e-05 -2.43978e-05 0.112196)
(-1.14976e-05 1.48041e-05 0.112202)
(-2.36452e-05 -1.07145e-05 0.112253)
(-9.27519e-06 1.04408e-06 0.112294)
(-1.71179e-05 -8.70004e-06 0.11235)
(-6.92891e-06 -6.15269e-06 0.112408)
(-1.12111e-05 -8.90941e-06 0.112462)
(-3.81894e-06 -8.33118e-06 0.112504)
(-6.14793e-06 -8.80165e-06 0.112532)
(1.06075e-07 -8.72079e-06 0.112546)
(-0.000495839 -0.000343886 0.075193)
(0.000383501 0.000152829 0.113415)
(-0.000136473 -0.000125121 0.114777)
(5.34996e-05 3.69357e-05 0.112615)
(-5.39758e-05 -3.22624e-05 0.112295)
(1.30402e-05 6.58168e-06 0.11233)
(-3.078e-05 -1.46997e-05 0.11234)
(-5.38746e-06 -4.76999e-06 0.112367)
(-2.14631e-05 -1.29467e-05 0.112412)
(-8.77644e-06 -1.12695e-05 0.112463)
(-1.4715e-05 -1.5012e-05 0.112513)
(-6.14889e-06 -1.53319e-05 0.112553)
(-8.00839e-06 -1.69427e-05 0.112582)
(-2.25522e-07 -1.73205e-05 0.112597)
(-0.000175903 0.000118223 0.093725)
(0.000106994 4.18479e-05 0.116133)
(-0.000113251 -4.53546e-05 0.113499)
(3.52821e-05 3.3568e-05 0.112316)
(-6.15248e-05 -2.21761e-05 0.112319)
(6.34288e-06 1.0846e-05 0.112363)
(-3.52306e-05 -9.68126e-06 0.112378)
(-7.58667e-06 1.3521e-06 0.112411)
(-2.36213e-05 -6.36394e-06 0.112456)
(-9.00509e-06 -3.11135e-06 0.112505)
(-1.5274e-05 -6.15326e-06 0.112555)
(-5.75225e-06 -5.27748e-06 0.112598)
(-8.13623e-06 -6.19096e-06 0.112631)
(-1.94575e-07 -6.04507e-06 0.112648)
(-0.00386957 0.000530421 0.0146133)
(-0.000272427 -9.8675e-05 0.0888624)
(0.000211645 4.44664e-05 0.113284)
(-0.000152116 -6.98782e-05 0.112567)
(8.37015e-05 1.72395e-05 0.112105)
(-7.65458e-05 -3.02464e-05 0.112245)
(2.56747e-05 2.46424e-06 0.112337)
(-4.04219e-05 -1.30371e-05 0.112382)
(-2.03254e-06 -3.58725e-06 0.112432)
(-2.59307e-05 -8.44269e-06 0.112482)
(-8.56346e-06 -6.15924e-06 0.112532)
(-1.68796e-05 -8.36766e-06 0.112584)
(-6.18738e-06 -8.00676e-06 0.112632)
(-8.77636e-06 -8.95886e-06 0.112673)
(-1.07555e-07 -8.96525e-06 0.112697)
(-0.00490862 0.000172521 0.0213299)
(-0.000263376 3.63831e-05 0.0882008)
(0.000189036 -3.19207e-07 0.11282)
(-0.000145528 1.4152e-05 0.112311)
(7.9044e-05 5.63312e-06 0.111955)
(-7.78489e-05 5.47841e-06 0.112162)
(2.38892e-05 3.14787e-06 0.112306)
(-4.14059e-05 2.06882e-06 0.112379)
(-2.94869e-06 1.48899e-06 0.112441)
(-2.62063e-05 6.87585e-07 0.112495)
(-8.93032e-06 7.48842e-07 0.112545)
(-1.71208e-05 3.23608e-07 0.112598)
(-6.34213e-06 4.32691e-07 0.112649)
(-9.09478e-06 1.66672e-07 0.112697)
(2.65236e-08 3.79409e-07 0.112729)
(0.000528122 -0.0038699 0.0146146)
(0.000178047 -0.00490863 0.02133)
(0.000617089 -0.00166029 0.0143382)
(-0.00363552 -0.00433597 0.0215734)
(-0.000344692 -0.000492126 0.0751939)
(0.00011582 -0.000168297 0.0937235)
(-9.44143e-05 -0.000265455 0.0888608)
(3.44724e-05 -0.000256576 0.0882003)
(0.000944603 -0.00285207 0.014583)
(-0.00432865 -0.00493739 0.0264507)
(-0.000390761 -0.000335709 0.0720255)
(0.000190614 -0.000275904 0.0885707)
(0.000155314 0.000389178 0.113414)
(3.81878e-05 0.000103756 0.11613)
(5.64003e-05 0.000225437 0.113279)
(1.12115e-05 0.000189225 0.112818)
(-0.00235869 -0.00506547 0.0177367)
(-0.000402329 -0.000395036 0.0737155)
(2.96722e-05 -0.000367208 0.0875874)
(9.27435e-05 0.000273627 0.112129)
(-0.000179829 5.39682e-05 0.114034)
(-0.000131087 -0.000133381 0.114778)
(-4.01832e-05 -0.000107512 0.113501)
(-6.11361e-05 -0.000143419 0.112564)
(2.75899e-06 -0.000147518 0.112313)
(-0.000587121 -0.000468083 0.0705524)
(0.000232099 -0.00034542 0.0887268)
(0.000135488 0.000312164 0.112366)
(-9.65539e-05 9.21043e-05 0.113552)
(-5.34874e-05 -3.17709e-05 0.114277)
(7.2602e-05 -5.52801e-05 0.113148)
(4.39032e-05 5.75143e-05 0.112615)
(3.56514e-05 4.06533e-05 0.112316)
(2.18384e-05 8.47147e-05 0.112104)
(9.30299e-06 8.13281e-05 0.111955)
(-0.000469434 -0.000587553 0.0705097)
(0.000568502 0.000568433 0.112508)
(-0.000287017 5.66807e-05 0.113576)
(-2.02871e-06 -3.79579e-05 0.113799)
(3.64289e-06 -9.13334e-05 0.112695)
(2.72749e-05 1.75253e-06 0.112238)
(-2.12422e-05 -3.13274e-05 0.1122)
(-3.29652e-05 -4.85659e-05 0.112296)
(-1.99282e-05 -6.04166e-05 0.11232)
(-2.45219e-05 -7.17662e-05 0.112245)
(-1.69652e-06 -7.81634e-05 0.112164)
(-0.00506895 -0.00235694 0.0177321)
(-0.000345624 0.000233248 0.0887006)
(5.58044e-05 -0.000286504 0.113567)
(2.63434e-05 2.69957e-05 0.112656)
(5.78263e-05 3.80445e-06 0.111798)
(7.69213e-06 1.86751e-05 0.111824)
(5.32088e-06 8.18555e-08 0.112007)
(1.7032e-05 -6.49335e-06 0.112203)
(1.03858e-05 1.53942e-05 0.11233)
(1.23186e-05 1.35864e-05 0.112363)
(5.69683e-06 2.70372e-05 0.112336)
(3.60563e-06 2.81149e-05 0.112306)
(-0.00285283 0.000944872 0.0145832)
(-0.00039575 -0.000401458 0.0737075)
(0.000311023 0.000136855 0.112351)
(-3.93568e-05 -2.12423e-07 0.11379)
(3.17821e-06 5.86634e-05 0.111799)
(-1.24389e-05 -1.11067e-05 0.111681)
(-3.7193e-06 -8.64596e-06 0.111933)
(-3.49551e-06 -1.31224e-05 0.112119)
(-8.18121e-06 -1.93186e-05 0.112252)
(-1.31983e-05 -2.7486e-05 0.11234)
(-8.42299e-06 -3.2458e-05 0.112377)
(-1.03309e-05 -3.7793e-05 0.112382)
(-6.71048e-07 -4.01792e-05 0.112379)
(-0.00493835 -0.00432838 0.0264508)
(-0.000367885 3.06912e-05 0.0875794)
(9.23686e-05 -9.54995e-05 0.113543)
(-9.25476e-05 3.64336e-06 0.112687)
(1.76114e-05 8.21904e-06 0.111824)
(-9.47954e-06 -3.49353e-06 0.111934)
(3.68104e-06 4.06588e-06 0.112089)
(-5.803e-06 -4.02782e-06 0.1122)
(2.8166e-06 -4.31065e-06 0.112293)
(-2.52897e-06 -1.95696e-06 0.112366)
(2.16976e-06 -1.50032e-06 0.11241)
(-1.89315e-06 1.84996e-06 0.112431)
(1.16347e-06 2.30744e-06 0.11244)
(-0.00166022 0.000616575 0.0143384)
(-0.000336159 -0.000389665 0.0720246)
(0.000271993 9.41624e-05 0.112125)
(-3.42214e-05 -5.16693e-05 0.114272)
(-5.56293e-08 2.93952e-05 0.112233)
(-3.15625e-07 6.335e-06 0.112006)
(-1.46198e-05 -1.62127e-06 0.112119)
(-4.2558e-06 -5.41238e-06 0.112201)
(-1.16886e-05 -1.07849e-05 0.112276)
(-5.99329e-06 -1.35817e-05 0.112348)
(-1.03345e-05 -1.77981e-05 0.11241)
(-4.6499e-06 -1.9917e-05 0.112453)
(-6.56878e-06 -2.22229e-05 0.11248)
(-1.21908e-07 -2.32323e-05 0.112492)
(-0.00433608 -0.0036354 0.0215738)
(-0.000276055 0.000191103 0.0885687)
(5.34489e-05 -0.000182709 0.114032)
(-5.42488e-05 7.36547e-05 0.113145)
(-3.33267e-05 -2.35695e-05 0.112197)
(-7.82845e-06 1.67607e-05 0.112202)
(-2.07886e-05 -9.46523e-06 0.112252)
(-5.67319e-06 2.94336e-06 0.112293)
(-1.39747e-05 -6.08783e-06 0.112348)
(-4.20738e-06 -3.44561e-06 0.112406)
(-8.8637e-06 -5.95537e-06 0.112459)
(-2.25092e-06 -5.25579e-06 0.1125)
(-5.19499e-06 -5.72337e-06 0.112528)
(2.99869e-07 -5.54533e-06 0.112542)
(-0.000493903 -0.000344218 0.0751937)
(0.000385415 0.000153699 0.113415)
(-0.000134137 -0.000126844 0.114779)
(5.56856e-05 3.90835e-05 0.112615)
(-5.17027e-05 -3.20546e-05 0.112296)
(1.60263e-05 8.56272e-06 0.112329)
(-2.85916e-05 -1.37541e-05 0.112339)
(-9.96834e-07 -3.12961e-06 0.112366)
(-1.80727e-05 -1.07845e-05 0.11241)
(-5.86178e-06 -9.021e-06 0.11246)
(-1.21364e-05 -1.25294e-05 0.11251)
(-4.4175e-06 -1.27358e-05 0.11255)
(-6.85814e-06 -1.41982e-05 0.112579)