/*--------------------------------*- C++ -*----------------------------------*\
| =========                 |                                                 |
| \\      /  F ield         | OpenFOAM: The Open Source CFD Toolbox           |
|  \\    /   O peration     | Version:  2.1.1                                 |
|   \\  /    A nd           | Web:      www.OpenFOAM.org                      |
|    \\/     M anipulation  |                                                 |
\*---------------------------------------------------------------------------*/
FoamFile
{
    version     2.0;
    format      ascii;
    class       volScalarField;
    location    "0.0045";
    object      p;
}
// * * * * * * * * * * * * * * * * * * * * * * * * * * * * * * * * * * * * * //

dimensions      [0 2 -2 0 0 0 0];

internalField   nonuniform List<scalar> 
10260
(
0.0863932
0.0870765
0.0826487
0.0828034
0.0950673
0.0852304
0.0846508
0.0863904
0.0824477
0.0823973
0.0827619
0.082671
0.0827103
0.0828628
0.0964474
0.0967139
0.082507
0.0825094
0.0824535
0.082438
0.0825093
0.0825221
0.0827524
0.082892
0.0990929
0.0888719
0.0824533
0.0824355
0.0825339
0.0825094
0.0825577
0.0825722
0.0825734
0.0825304
0.0829949
0.0938667
0.104199
0.0824663
0.0824641
0.0824605
0.0824658
0.082477
0.0825287
0.0825247
0.0826519
0.082421
0.0829745
0.0934602
0.105796
0.082451
0.0824431
0.0824744
0.0824713
0.0825127
0.0825037
0.0825545
0.0825038
0.0826946
0.0824247
0.0829985
0.0971414
0.0824566
0.0824559
0.0824611
0.0824685
0.0824734
0.0824988
0.0824927
0.0825592
0.0825071
0.0826607
0.0825366
0.0828962
0.0964034
0.0824581
0.0824563
0.0824692
0.0824659
0.0824832
0.0824784
0.0825096
0.0824942
0.0825578
0.0825317
0.0825769
0.0827652
0.0952277
0.0983099
0.0824665
0.0824664
0.0824667
0.0824685
0.0824689
0.0824781
0.0824784
0.0824996
0.0825057
0.0825309
0.082577
0.082525
0.0828845
0.09749
0.0824714
0.0824704
0.0824728
0.0824693
0.0824744
0.0824687
0.0824827
0.0824722
0.0825151
0.0824824
0.082561
0.0825118
0.0827211
0.0971219
0.0860368
0.0824782
0.0824775
0.0824752
0.0824729
0.0824694
0.0824682
0.0824649
0.0824635
0.0824722
0.0824671
0.0825046
0.082439
0.0826801
0.0948928
0.0960365
0.0824823
0.0824815
0.0824794
0.0824748
0.0824724
0.0824659
0.0824687
0.0824584
0.0824728
0.0824617
0.0825498
0.0824577
0.0827554
0.0953128
0.0981559
0.0824856
0.0824856
0.0824815
0.0824771
0.08247
0.0824656
0.082457
0.0824592
0.0824436
0.0824619
0.0824372
0.0825061
0.0823875
0.0828222
0.0956693
0.0824847
0.0824856
0.0824818
0.0824772
0.0824706
0.082465
0.0824578
0.0824582
0.0824504
0.0824617
0.0824515
0.0825003
0.0824396
0.0826607
0.0977462
0.0853764
0.0860824
0.0810195
0.0811861
0.0925687
0.0833556
0.0828915
0.0852292
0.0809815
0.0809236
0.0811478
0.0811481
0.0811111
0.0812714
0.0940697
0.0952861
0.0810384
0.0810548
0.0809759
0.0809899
0.0810358
0.0810286
0.0811826
0.0812889
0.096638
0.0877742
0.0810615
0.0810508
0.0811002
0.0810883
0.081098
0.0811088
0.0810849
0.0809939
0.0814352
0.0915344
0.102987
0.0811008
0.0811016
0.0810866
0.0810935
0.0810899
0.0811151
0.08108
0.0811864
0.0808856
0.0814589
0.0911851
0.104591
0.0811302
0.081125
0.0811345
0.0811252
0.0811358
0.0811225
0.081139
0.0810649
0.0812256
0.0808889
0.0814383
0.0946627
0.081161
0.0811601
0.0811526
0.0811538
0.0811416
0.0811535
0.0811198
0.0811605
0.0810715
0.0812137
0.0810044
0.0812921
0.0942958
0.0811849
0.0811817
0.0811817
0.0811731
0.081171
0.0811538
0.0811563
0.081121
0.0811451
0.0810933
0.0810906
0.0811872
0.0928844
0.0969319
0.0812085
0.0812066
0.0811998
0.0811956
0.0811816
0.0811774
0.0811538
0.0811525
0.0811171
0.0811183
0.0811132
0.0810283
0.0812709
0.0953455
0.0812257
0.0812226
0.0812179
0.0812082
0.0811992
0.0811815
0.0811713
0.0811424
0.0811381
0.0810921
0.0811006
0.0810369
0.0811103
0.0948513
0.0848021
0.0812413
0.0812385
0.0812312
0.0812231
0.0812084
0.0811955
0.0811737
0.0811561
0.0811323
0.081097
0.0810923
0.0809904
0.0811464
0.0926921
0.0946827
0.0812516
0.0812483
0.0812414
0.0812308
0.0812177
0.0811995
0.0811822
0.081154
0.081138
0.0810869
0.081099
0.0809737
0.0811436
0.0929547
0.0967004
0.0812592
0.0812565
0.0812484
0.0812383
0.0812225
0.0812062
0.0811819
0.0811596
0.0811256
0.0811003
0.0810496
0.0810515
0.0809156
0.0811783
0.0932018
0.0812608
0.0812588
0.081251
0.0812404
0.081225
0.0812073
0.0811843
0.0811595
0.0811292
0.0810979
0.0810594
0.0810334
0.080974
0.0810094
0.0952265
0.0839994
0.0846939
0.0793985
0.0795335
0.0907976
0.0817387
0.0813026
0.0837803
0.0795204
0.0794553
0.0795292
0.079596
0.0794957
0.0796799
0.0923804
0.0938332
0.0795752
0.0795986
0.0795289
0.0795622
0.0795775
0.0795507
0.0796307
0.0797126
0.0950059
0.0863862
0.0796786
0.0796705
0.0796603
0.0796719
0.0796353
0.0796456
0.079614
0.0795078
0.0798634
0.0899173
0.101651
0.079746
0.0797517
0.079727
0.0797346
0.0797048
0.079713
0.0796439
0.0797303
0.0794114
0.0799142
0.0895863
0.103278
0.0798192
0.0798141
0.0797995
0.079794
0.0797701
0.0797407
0.0797297
0.0796315
0.079742
0.0794142
0.0798655
0.0930703
0.0798743
0.0798729
0.0798559
0.0798521
0.0798195
0.0798133
0.0797506
0.079764
0.0796344
0.0797364
0.0795118
0.0797137
0.0927863
0.0799205
0.079916
0.0799032
0.0798893
0.0798663
0.0798357
0.0798083
0.0797515
0.0797323
0.0796487
0.0796166
0.0796317
0.0912658
0.0955696
0.0799591
0.0799556
0.0799416
0.0799309
0.0799021
0.0798841
0.0798359
0.0798137
0.0797416
0.0797154
0.0796474
0.0795501
0.0796712
0.09387
0.0799879
0.0799828
0.0799708
0.0799551
0.0799314
0.079902
0.0798666
0.0798197
0.0797708
0.0797056
0.0796357
0.0795777
0.0794968
0.0933009
0.08338
0.0800122
0.0800075
0.079995
0.0799811
0.0799553
0.079931
0.0798897
0.0798523
0.0797949
0.0797339
0.0796715
0.0795605
0.0795938
0.0911359
0.0932788
0.0800281
0.0800229
0.0800111
0.0799947
0.0799708
0.0799413
0.0799034
0.0798561
0.0797997
0.0797226
0.0796582
0.0795249
0.0795242
0.0913426
0.0952705
0.0800401
0.0800352
0.0800231
0.0800075
0.0799829
0.0799554
0.0799162
0.0798724
0.0798152
0.0797511
0.0796691
0.0795941
0.0794504
0.079523
0.0915964
0.0800439
0.0800395
0.0800277
0.0800115
0.0799875
0.0799583
0.0799201
0.0798738
0.0798182
0.0797465
0.0796771
0.0795702
0.0795158
0.0793888
0.0936134
0.0825323
0.0832079
0.0777504
0.0778364
0.0891261
0.0801358
0.0797135
0.0822459
0.078053
0.0779886
0.0778754
0.0780322
0.0778545
0.0780847
0.0907421
0.0922664
0.0781116
0.0781313
0.0780826
0.0781237
0.0781137
0.0780737
0.0780931
0.0781491
0.0934352
0.0848753
0.0783048
0.0782996
0.0782177
0.0782569
0.0781679
0.0781745
0.0781313
0.0780031
0.0782966
0.0883908
0.100167
0.0784055
0.0784102
0.0783771
0.0783862
0.0783309
0.078319
0.0782091
0.0782553
0.0779294
0.0783685
0.08808
0.101808
0.0785185
0.0785146
0.0784681
0.0784743
0.0784149
0.0783705
0.0783235
0.0782039
0.0782506
0.0779312
0.0782983
0.0915693
0.0785975
0.0785965
0.0785704
0.0785613
0.0785089
0.0784838
0.0783903
0.0783705
0.078205
0.0782577
0.0780045
0.078149
0.0912835
0.0786656
0.07866
0.0786343
0.0786153
0.0785716
0.0785276
0.0784695
0.0783908
0.0783249
0.0782116
0.0781323
0.0780927
0.0897693
0.0940766
0.0787188
0.0787135
0.0786926
0.0786756
0.0786323
0.0786006
0.0785278
0.0784843
0.0783714
0.0783202
0.0781746
0.0780713
0.078077
0.0924565
0.0787583
0.0787514
0.0787322
0.0787106
0.0786727
0.0786322
0.0785718
0.0785092
0.0784146
0.0783298
0.078167
0.0781124
0.0778548
0.0918706
0.0818739
0.0787908
0.0787844
0.0787669
0.0787473
0.0787108
0.0786758
0.078616
0.0785624
0.078473
0.0783843
0.0782555
0.0781206
0.0780291
0.08972
0.0918498
0.078812
0.078805
0.0787884
0.0787666
0.0787322
0.0786923
0.0786347
0.0785714
0.0784696
0.0783758
0.0782159
0.0780788
0.0778701
0.0898687
0.0938
0.0788279
0.0788212
0.0788053
0.0787844
0.0787516
0.0787135
0.0786603
0.0785978
0.0785151
0.0784089
0.0782979
0.0781265
0.0779834
0.077827
0.0900953
0.0788339
0.0788275
0.0788118
0.0787903
0.078758
0.078718
0.0786648
0.0785937
0.0785176
0.0784041
0.0783029
0.0781077
0.0780482
0.0777445
0.0921466
0.0810293
0.0816781
0.0760235
0.07597
0.0873388
0.0784095
0.0780238
0.0806156
0.0765912
0.0765459
0.0760761
0.0764288
0.0761345
0.0764188
0.089031
0.0906113
0.0766514
0.0766631
0.0766319
0.0766971
0.0766533
0.0766029
0.0765324
0.0765166
0.0918011
0.0832901
0.076951
0.0769555
0.0767656
0.0768547
0.0767014
0.0767027
0.0766274
0.0764875
0.0766695
0.0868371
0.0986131
0.0770805
0.0770877
0.0770475
0.0770539
0.0769786
0.0769345
0.0767824
0.0767686
0.0764195
0.0767848
0.0865503
0.100266
0.0772376
0.0772392
0.0771702
0.077152
0.0770642
0.0770119
0.0769252
0.0767828
0.0767441
0.0764211
0.0766728
0.0900372
0.0773383
0.0773341
0.0772983
0.0772836
0.0772118
0.0771681
0.0770452
0.076984
0.0767836
0.0767706
0.0764891
0.0765161
0.0897552
0.077423
0.0774153
0.0773765
0.0773534
0.0772898
0.0772333
0.0771447
0.0770455
0.0769264
0.0767856
0.0766277
0.0765313
0.0882803
0.0925129
0.0774879
0.0774809
0.0774534
0.0774308
0.0773741
0.0773292
0.0772334
0.0771682
0.0770127
0.0769391
0.0767029
0.0766004
0.0764142
0.0911126
0.0775371
0.0775285
0.0775025
0.0774756
0.0774245
0.0773739
0.0772896
0.0772111
0.0770634
0.0769723
0.0766993
0.0766512
0.0761303
0.0905449
0.0802955
0.0775769
0.0775688
0.0775468
0.077522
0.0774759
0.0774307
0.077353
0.0772817
0.0771525
0.0770513
0.0768526
0.0766931
0.0764239
0.0883873
0.0904594
0.0776031
0.0775944
0.0775734
0.0775466
0.0775025
0.077453
0.0773756
0.0772951
0.0771673
0.0770462
0.076764
0.0766283
0.0760693
0.0883722
0.0923138
0.0776224
0.077614
0.0775947
0.0775689
0.0775287
0.0774809
0.0774151
0.0773315
0.0772387
0.0770866
0.0769538
0.0766582
0.0765405
0.075959
0.088602
0.0776302
0.0776221
0.077603
0.0775764
0.0775367
0.0774872
0.0774232
0.0773418
0.0772377
0.0770795
0.0769493
0.076649
0.0765868
0.0760208
0.0907575
0.0794301
0.0801451
0.074205
0.0738559
0.0851696
0.0764828
0.0761162
0.0786867
0.0751887
0.075225
0.074046
0.0748063
0.0743097
0.0746384
0.0871857
0.0888044
0.0752133
0.0752203
0.0752075
0.0753205
0.0752202
0.0751555
0.074955
0.074737
0.0899689
0.0815576
0.0756334
0.0756548
0.0753175
0.075477
0.0752481
0.0752478
0.0751291
0.0749616
0.0749018
0.0852366
0.0970227
0.0757755
0.0757838
0.075729
0.0757537
0.0756392
0.0756024
0.0753887
0.0752673
0.0748996
0.0751107
0.0850007
0.0986986
0.0759702
0.075965
0.0758377
0.0758853
0.075762
0.0756879
0.0755505
0.0753803
0.075211
0.0749025
0.0749084
0.0884821
0.0760848
0.0760825
0.0760384
0.0760242
0.0759405
0.075875
0.0757243
0.0756133
0.0753814
0.0752696
0.074968
0.0747381
0.0882109
0.07619
0.076182
0.0761326
0.0761053
0.0760257
0.0759578
0.0758412
0.0757245
0.0755506
0.0753877
0.0751245
0.0749541
0.0869181
0.0908541
0.0762662
0.0762581
0.0762251
0.0761973
0.0761297
0.0760727
0.0759579
0.0758751
0.0756878
0.0755967
0.0752451
0.075152
0.0746341
0.0899272
0.0763243
0.0763142
0.0762825
0.0762509
0.0761887
0.0761295
0.0760255
0.0759399
0.0757625
0.075644
0.0752486
0.0752185
0.0743043
0.0894487
0.078546
0.0763703
0.0763608
0.0763349
0.0763055
0.0762512
0.0761973
0.0761055
0.0760237
0.0758829
0.0757536
0.0754764
0.0753168
0.0748002
0.0871424
0.0892923
0.0764009
0.0763908
0.0763659
0.0763347
0.0762825
0.0762249
0.0761328
0.0760395
0.0758408
0.0757302
0.0753168
0.0752043
0.0740372
0.0865546
0.090888
0.0764232
0.0764134
0.0763911
0.0763609
0.0763144
0.0762582
0.0761827
0.0760842
0.0759669
0.0757851
0.0756541
0.0752155
0.0752196
0.0738414
0.0872163
0.0764327
0.0764229
0.0764008
0.0763699
0.076324
0.0762657
0.0761897
0.0760835
0.0759703
0.0757752
0.0756327
0.0752124
0.0751855
0.074207
0.0895899
0.0764718
0.0778722
0.0722572
0.0714738
0.0813831
0.0751422
0.0739318
0.0747412
0.0738578
0.0740177
0.0716367
0.0731034
0.0724046
0.0727681
0.0850076
0.0863956
0.0738046
0.0738317
0.0737737
0.0740342
0.0738525
0.0737625
0.073366
0.0727701
0.0873751
0.0791009
0.0743554
0.0743932
0.0739002
0.0741234
0.0738492
0.0738086
0.0736543
0.073439
0.0728602
0.0835955
0.0954814
0.0744982
0.0745122
0.0744388
0.0744885
0.0743895
0.074245
0.0740137
0.0737574
0.0733792
0.0732663
0.0834969
0.0972257
0.0747296
0.0747319
0.0745984
0.0746035
0.0744657
0.0743757
0.0742035
0.0740123
0.0736644
0.0733838
0.0728675
0.0871471
0.0748537
0.0748514
0.0747992
0.0747806
0.0746844
0.0746011
0.0744329
0.0742703
0.0740141
0.07376
0.0734425
0.072771
0.0868025
0.0749718
0.0749623
0.0749041
0.0748729
0.0747811
0.0747038
0.0745653
0.0744335
0.0742051
0.0740179
0.0736557
0.0733678
0.0855289
0.0889597
0.0750551
0.0750456
0.0750081
0.074976
0.0749007
0.0748332
0.074704
0.0746015
0.0743774
0.0742523
0.0738112
0.0737615
0.0727655
0.0888172
0.0751203
0.0751088
0.0750728
0.0750372
0.0749669
0.0749006
0.0747812
0.0746841
0.0744632
0.0743813
0.0738479
0.0738528
0.0724005
0.0889616
0.0757017
0.0751711
0.0751604
0.0751314
0.075098
0.0750375
0.0749762
0.0748734
0.074781
0.0746022
0.0744858
0.0741228
0.074032
0.0730977
0.0862447
0.0891265
0.0752054
0.0751941
0.0751663
0.0751312
0.0750729
0.0750081
0.0749044
0.0747999
0.0746026
0.0744438
0.0739011
0.0737711
0.0716258
0.0827971
0.0889364
0.0752301
0.0752192
0.0751943
0.0751605
0.0751091
0.0750458
0.0749631
0.0748526
0.0747363
0.0745239
0.0743951
0.0738269
0.0740115
0.0714549
0.0864511
0.0752409
0.0752299
0.0752053
0.0751707
0.0751201
0.0750548
0.0749719
0.074854
0.0747304
0.0744936
0.0743556
0.0738052
0.0738567
0.072265
0.0892745
0.0684052
0.0705273
0.0703571
0.0705283
0.0666539
0.0777206
0.0710942
0.062932
0.0726905
0.0728686
0.0702762
0.0707292
0.070333
0.0706397
0.0806836
0.0587173
0.0724693
0.072584
0.0721107
0.0727871
0.0725521
0.072461
0.0719669
0.0707986
0.0787657
0.09261
0.073121
0.0731618
0.0725841
0.0727629
0.0725087
0.0724419
0.0722422
0.0720878
0.0707829
0.0826598
0.0942823
0.0732537
0.0732749
0.0731476
0.0732218
0.0731003
0.0729889
0.0727278
0.0723315
0.0720645
0.0712365
0.082366
0.0950358
0.0735127
0.0735113
0.0733589
0.073358
0.0732162
0.0731214
0.0729293
0.072726
0.0722384
0.0720716
0.0707849
0.0848699
0.0736399
0.0736361
0.0735752
0.0735546
0.0734568
0.0733602
0.0731892
0.0729877
0.0727282
0.0723341
0.0720897
0.0707987
0.0786438
0.0737681
0.0737567
0.0736943
0.0736581
0.0735617
0.0734779
0.0733287
0.0731898
0.0729305
0.0727299
0.072237
0.0719715
0.0835459
0.0880106
0.0738554
0.0738446
0.0738044
0.0737686
0.0736896
0.0736142
0.0734783
0.0733609
0.0731231
0.0729923
0.0724447
0.0724661
0.0706432
0.0833701
0.0739259
0.0739132
0.0738748
0.0738359
0.0737613
0.0736896
0.073562
0.0734572
0.0732164
0.0730986
0.0725108
0.0725579
0.0703367
0.0854422
0.099262
0.0739798
0.0739681
0.0739372
0.0739006
0.0738363
0.0737689
0.0736587
0.0735553
0.0733588
0.0732217
0.0727652
0.0727899
0.0707397
0.0833742
0.065855
0.074017
0.0740048
0.0739751
0.0739371
0.073875
0.0738045
0.0736947
0.0735758
0.0733597
0.0731499
0.0725841
0.0721092
0.0702575
0.0666429
0.0676357
0.0740433
0.0740315
0.074005
0.0739683
0.0739137
0.0738451
0.0737575
0.0736371
0.0735131
0.0732763
0.0731621
0.0725787
0.0728617
0.0705158
0.0847837
0.0740549
0.0740431
0.0740169
0.0739796
0.0739258
0.0738553
0.0737683
0.0736403
0.0735137
0.0732547
0.0731221
0.0724714
0.0726921
0.0703667
0.0852551
0.0722653
0.0720057
0.070451
0.0703013
0.0705894
0.0676233
0.0691621
0.0753792
0.0686027
0.0716209
0.0718216
0.070761
0.0700527
0.0706779
0.0701013
0.0806333
0.0691892
0.0714084
0.0715358
0.0710006
0.07134
0.0713885
0.071271
0.0710862
0.0708051
0.0780489
0.0716568
0.0719771
0.0720019
0.0715881
0.0715626
0.071455
0.07132
0.0711089
0.0709345
0.0698869
0.0804704
0.0737417
0.072078
0.072096
0.0719526
0.071994
0.071918
0.0717824
0.0715925
0.0711576
0.0709643
0.0689564
0.0799698
0.0719122
0.0723322
0.0723247
0.07219
0.0721581
0.0720383
0.071934
0.0717535
0.0715666
0.0711327
0.0709723
0.0698775
0.0826155
0.072452
0.0724457
0.0723834
0.0723555
0.0722654
0.0721634
0.0720072
0.0717998
0.0715689
0.0711601
0.0709366
0.0708003
0.0801249
0.0725823
0.0725691
0.0725087
0.0724668
0.0723737
0.0722878
0.0721415
0.0720079
0.0717544
0.0715947
0.071105
0.071071
0.0821147
0.0692076
0.0726695
0.0726577
0.0726171
0.0725783
0.0725003
0.0724211
0.0722882
0.0721642
0.0719356
0.0717845
0.0713245
0.0712943
0.07011
0.0757309
0.0727423
0.072729
0.0726904
0.0726493
0.0725745
0.0725004
0.0723741
0.0722661
0.0720393
0.0719199
0.0714589
0.0713986
0.0706859
0.0825925
0.0727975
0.0727852
0.0727536
0.0727149
0.0726496
0.0725787
0.0724675
0.0723563
0.0721594
0.0719951
0.0715663
0.0713433
0.0700626
0.0691888
0.0785496
0.0728363
0.0728236
0.0727932
0.0727535
0.0726906
0.0726173
0.0725091
0.0723841
0.0721907
0.0719543
0.0715879
0.0710027
0.0707629
0.067638
0.0775473
0.0728635
0.0728511
0.0728239
0.0727855
0.0727295
0.0726582
0.0725699
0.0724466
0.0723259
0.0720966
0.0720026
0.0715338
0.0718207
0.0705858
0.0806784
0.0728755
0.0728633
0.0728364
0.0727975
0.0727425
0.0726697
0.0725827
0.0724525
0.0723331
0.0720791
0.0719786
0.0714116
0.0716242
0.0703124
0.0825503
0.0724909
0.0730234
0.0734679
0.0698116
0.070052
0.0688932
0.0685443
0.0773944
0.0717141
0.070637
0.0707365
0.0704724
0.0699217
0.0703024
0.0699332
0.0799481
0.0719947
0.0704681
0.0705511
0.0702132
0.0702933
0.0704199
0.0702998
0.0703721
0.0702862
0.0783934
0.0744756
0.0708936
0.0708933
0.0706782
0.0705474
0.0705303
0.0703613
0.0701492
0.0699507
0.06961
0.0685245
0.0873925
0.0709641
0.0709723
0.0708552
0.0708547
0.0708041
0.0706789
0.070566
0.0702475
0.0701149
0.0689748
0.0685243
0.0863737
0.0711863
0.0711729
0.0710731
0.0710194
0.0709264
0.0708232
0.0706767
0.0705325
0.070307
0.070117
0.0696087
0.0825838
0.0712919
0.0712832
0.0712269
0.0711925
0.0711147
0.0710188
0.0708915
0.0707152
0.0705338
0.0702483
0.0699517
0.0702844
0.0796965
0.0714156
0.0714013
0.0713479
0.071303
0.0712192
0.0711373
0.0710072
0.0708921
0.0706775
0.0705681
0.070149
0.0703714
0.0811428
0.0716979
0.0714989
0.0714866
0.071448
0.0714082
0.0713354
0.0712581
0.0711378
0.0710196
0.0708247
0.0706809
0.0703649
0.0703058
0.0699382
0.0775697
0.0715711
0.0715575
0.0715206
0.0714792
0.0714082
0.0713356
0.0712197
0.0711156
0.0709276
0.0708066
0.0705334
0.0704257
0.0703088
0.0810898
0.0716254
0.0716128
0.0715818
0.0715426
0.0714794
0.0714085
0.0713037
0.0711934
0.0710208
0.0708562
0.0705504
0.0702967
0.0699292
0.0685569
0.0832522
0.0716644
0.0716516
0.0716218
0.0715818
0.0715208
0.0714483
0.0713483
0.0712277
0.0710739
0.0708565
0.0706793
0.0702163
0.0704767
0.0689021
0.0802888
0.0716915
0.071679
0.0716519
0.0716131
0.071558
0.0714871
0.0714022
0.0712842
0.0711741
0.0709733
0.0708945
0.0705513
0.0707383
0.0700517
0.081032
0.0717039
0.0716914
0.0716646
0.0716255
0.0715714
0.0714993
0.0714162
0.0712926
0.0711873
0.0709654
0.0708954
0.0704714
0.0706404
0.0698193
0.0811859
0.0718768
0.0723485
0.0733064
0.0691454
0.0692166
0.0687676
0.068764
0.077142
0.071804
0.069643
0.0696534
0.0695229
0.0693257
0.0694543
0.0693283
0.0795914
0.0721482
0.0695275
0.0695684
0.0693731
0.0694124
0.0694959
0.0694233
0.0695614
0.0695515
0.0778785
0.074514
0.0698293
0.0698145
0.0696949
0.0695925
0.0695751
0.0694554
0.0693396
0.0692508
0.0693979
0.0686443
0.0882968
0.0698838
0.0698846
0.0697999
0.0697847
0.0697473
0.06966
0.0696212
0.0694731
0.0694839
0.0691165
0.068641
0.0863469
0.0700645
0.0700488
0.0699785
0.0699244
0.0698545
0.0697715
0.0696773
0.0695968
0.0695397
0.069486
0.0693982
0.0817222
0.0701558
0.0701459
0.0700989
0.070064
0.0700004
0.0699223
0.0698316
0.0697142
0.0695973
0.0694741
0.0692508
0.0695519
0.0790175
0.070267
0.0702527
0.070208
0.0701649
0.0700939
0.0700229
0.0699185
0.0698321
0.0696781
0.069623
0.0693406
0.069563
0.0804405
0.0720762
0.0703439
0.0703317
0.0702968
0.0702585
0.0701941
0.0701243
0.0700233
0.0699231
0.0697727
0.0696616
0.0694577
0.069426
0.0693315
0.077486
0.0704123
0.0703991
0.0703655
0.0703257
0.0702616
0.0701943
0.0700943
0.0700013
0.0698556
0.0697494
0.0695776
0.0694996
0.0694588
0.0799151
0.0704642
0.0704518
0.0704226
0.0703846
0.070326
0.0702589
0.0701655
0.0700649
0.0699257
0.0697863
0.0695948
0.0694152
0.0693308
0.0687705
0.084162
0.0705021
0.0704896
0.0704613
0.0704227
0.0703657
0.0702972
0.0702086
0.0700997
0.0699795
0.0698013
0.0696965
0.0693759
0.0695265
0.068773
0.0803496
0.0705284
0.0705161
0.0704899
0.0704522
0.0703996
0.0703322
0.0702535
0.0701468
0.07005
0.0698858
0.0698159
0.0695695
0.0696556
0.0692179
0.0804214
0.0705406
0.0705283
0.0705023
0.0704644
0.0704127
0.0703444
0.0702676
0.0701566
0.0700655
0.0698851
0.0698312
0.0695304
0.069646
0.0691507
0.0802886
0.0710371
0.0714495
0.0725891
0.0683568
0.0683798
0.0680793
0.0682789
0.0765847
0.071204
0.068611
0.0686028
0.0684997
0.0683806
0.0685126
0.0685187
0.0788891
0.0715322
0.068564
0.0685821
0.0684606
0.068492
0.0685302
0.068494
0.0686502
0.0686935
0.0769884
0.0737869
0.0687666
0.0687504
0.0686747
0.0686067
0.0685954
0.0685324
0.0684793
0.0684424
0.0686807
0.0685238
0.0884129
0.0688175
0.068815
0.0687566
0.0687398
0.068714
0.0686609
0.0686586
0.0686041
0.0686183
0.0685687
0.0685222
0.0862711
0.0689583
0.0689437
0.0688942
0.0688494
0.068799
0.0687406
0.0686856
0.0686442
0.0686476
0.0686194
0.0686817
0.0808782
0.069038
0.0690283
0.068991
0.0689598
0.0689101
0.0688521
0.0687904
0.06872
0.0686445
0.0686048
0.0684427
0.0686941
0.0782686
0.0691339
0.0691208
0.0690847
0.0690465
0.068989
0.0689314
0.0688524
0.0687908
0.0686863
0.06866
0.0684805
0.0686521
0.0796084
0.0715
0.0692035
0.069192
0.0691618
0.069127
0.0690723
0.0690128
0.0689317
0.0688526
0.0687415
0.0686621
0.0685339
0.0684959
0.0685207
0.0766821
0.069266
0.0692537
0.0692241
0.0691877
0.0691319
0.0690724
0.0689894
0.0689109
0.0688
0.0687157
0.0685973
0.0685327
0.0685158
0.0789683
0.0693142
0.0693026
0.0692759
0.0692406
0.0691879
0.0691274
0.0690471
0.0689606
0.0688505
0.0687411
0.0686085
0.0684942
0.0683839
0.0682827
0.0838485
0.06935
0.0693382
0.0693121
0.069276
0.0692244
0.0691622
0.0690852
0.0689918
0.0688952
0.0687579
0.0686762
0.0684627
0.0685024
0.0680827
0.079837
0.0693748
0.069363
0.0693384
0.0693029
0.0692542
0.0691926
0.0691215
0.0690292
0.0689448
0.0688161
0.0687517
0.0685834
0.0686047
0.0683815
0.0798243
0.0693863
0.0693746
0.0693502
0.0693145
0.0692664
0.069204
0.0691346
0.0690389
0.0689595
0.0688188
0.0687682
0.0685664
0.0686137
0.0683606
0.0794101
0.0701089
0.070507
0.0717603
0.067473
0.0674958
0.0672844
0.0674853
0.0758446
0.0703874
0.0675693
0.0675572
0.0675105
0.067405
0.0675486
0.0676183
0.0780287
0.0706757
0.0675768
0.067583
0.0675027
0.0675345
0.0675409
0.0675225
0.0676703
0.0677411
0.0760072
0.0728231
0.0677038
0.06769
0.0676445
0.0675981
0.067598
0.0675693
0.0675295
0.0675049
0.0676492
0.0676946
0.0878296
0.0677568
0.0677527
0.0677135
0.067699
0.0676803
0.0676484
0.0676542
0.0676263
0.0676066
0.0675052
0.0677139
0.0856793
0.0678635
0.0678512
0.0678167
0.0677821
0.0677468
0.067707
0.0676714
0.0676415
0.067651
0.0676075
0.0676525
0.0800177
0.0679339
0.067925
0.0678964
0.0678701
0.0678319
0.0677895
0.0677454
0.0676998
0.0676417
0.067627
0.0675057
0.0677421
0.0774237
0.0680141
0.0680027
0.0679741
0.0679421
0.0678965
0.0678511
0.0677914
0.0677458
0.0676719
0.0676553
0.0675306
0.067672
0.0786886
0.0706431
0.0680761
0.0680658
0.0680404
0.0680101
0.0679646
0.0679155
0.0678513
0.0677899
0.0677077
0.0676493
0.0675705
0.0675239
0.0676197
0.0757448
0.0681315
0.0681205
0.0680951
0.068063
0.0680156
0.0679648
0.0678969
0.0678325
0.0677477
0.0676816
0.0675994
0.0675427
0.0675506
0.0780339
0.0681755
0.0681648
0.068141
0.0681093
0.0680632
0.0680104
0.0679426
0.0678709
0.067783
0.0677001
0.0675995
0.0675361
0.0674072
0.0674878
0.0832018
0.0682083
0.0681972
0.0681737
0.0681411
0.0680953
0.0680408
0.0679746
0.067897
0.0678175
0.0677147
0.0676458
0.0675044
0.0675125
0.0672867
0.0791327
0.0682311
0.06822
0.0681974
0.068165
0.068121
0.0680664
0.0680033
0.0679259
0.0678521
0.0677538
0.0676913
0.0675843
0.0675588
0.0674975
0.0790288
0.0682419
0.0682308
0.0682082
0.0681756
0.068132
0.0680767
0.0680148
0.0679347
0.0678645
0.0677581
0.0677053
0.0675788
0.0675716
0.0674756
0.0784823
0.0691511
0.069546
0.0708638
0.0665296
0.0665478
0.0664035
0.0665866
0.0750015
0.0694925
0.0665295
0.0665149
0.0665075
0.0664239
0.0665556
0.0666627
0.0771068
0.0697377
0.0665705
0.0665726
0.0665216
0.0665415
0.0665335
0.0665239
0.0666546
0.0667468
0.0750306
0.0718539
0.0666439
0.0666329
0.0666081
0.0665756
0.0665813
0.0665725
0.0665313
0.0665147
0.0666158
0.0667849
0.087332
0.0666989
0.0666943
0.0666673
0.0666561
0.0666404
0.0666208
0.0666272
0.0666048
0.0665932
0.0664518
0.0667084
0.0849133
0.0667775
0.0667676
0.0667438
0.066718
0.066693
0.0666653
0.0666383
0.0666138
0.0666177
0.066593
0.0666105
0.0791465
0.0668399
0.0668322
0.0668103
0.0667891
0.0667592
0.0667275
0.0666939
0.0666609
0.0666141
0.0666053
0.066515
0.066748
0.076521
0.0669054
0.0668958
0.0668735
0.0668475
0.0668115
0.0667757
0.0667295
0.0666941
0.0666388
0.0666282
0.0665322
0.066656
0.0777314
0.0697037
0.06696
0.0669512
0.0669301
0.0669044
0.066867
0.0668271
0.0667759
0.0667279
0.0666658
0.0666214
0.0665733
0.0665248
0.0666637
0.0747773
0.067008
0.0669984
0.0669769
0.0669494
0.0669097
0.0668672
0.0668118
0.0667596
0.0666936
0.0666413
0.0665823
0.0665348
0.066557
0.0770855
0.0670472
0.0670377
0.067017
0.0669892
0.0669495
0.0669047
0.0668479
0.0667897
0.0667187
0.066657
0.0665766
0.0665428
0.0664254
0.0665883
0.0823979
0.0670765
0.0670664
0.0670457
0.067017
0.0669771
0.0669304
0.066874
0.0668109
0.0667445
0.0666683
0.0666092
0.0665229
0.066509
0.066405
0.07831
0.0670974
0.0670868
0.0670666
0.0670379
0.0669988
0.0669516
0.0668964
0.066833
0.0667684
0.0666953
0.066634
0.0665738
0.0665162
0.0665492
0.0781318
0.0671077
0.0670968
0.0670763
0.0670473
0.0670084
0.0669606
0.066906
0.0668406
0.0667783
0.0667
0.0666452
0.0665721
0.0665312
0.0665316
0.0775354
0.0682233
0.0686193
0.0699773
0.0655325
0.0655442
0.0654371
0.0655969
0.0741555
0.0685915
0.0654871
0.0654733
0.0654833
0.0654153
0.0655265
0.0656471
0.0762241
0.0688122
0.0655473
0.0655478
0.065512
0.065529
0.0655054
0.0654988
0.065604
0.0657041
0.0741239
0.0709427
0.0655867
0.0655782
0.0655647
0.0655424
0.065548
0.0655486
0.0655041
0.0654921
0.065551
0.0656327
0.0859511
0.0656419
0.0656378
0.0656182
0.0656098
0.0655945
0.0655812
0.0655843
0.065562
0.0655624
0.0654196
0.0658195
0.0841372
0.0656983
0.0656907
0.0656742
0.0656553
0.0656365
0.0656164
0.065593
0.0655722
0.0655659
0.0655688
0.0655781
0.0783481
0.0657537
0.0657474
0.0657304
0.0657135
0.0656893
0.0656651
0.0656375
0.0656115
0.0655726
0.0655636
0.0654957
0.0657059
0.0756519
0.065806
0.0657982
0.0657809
0.0657601
0.0657315
0.0657032
0.0656662
0.0656376
0.0655933
0.0655851
0.065505
0.0656049
0.076847
0.0687841
0.0658538
0.0658462
0.0658289
0.0658076
0.0657769
0.0657446
0.0657033
0.0656653
0.0656167
0.0655815
0.0655492
0.0654993
0.0656475
0.0738578
0.0658943
0.065886
0.0658681
0.065845
0.065812
0.065777
0.0657317
0.0656897
0.0656369
0.0655951
0.0655486
0.0655061
0.0655274
0.076201
0.0659288
0.0659203
0.0659026
0.0658789
0.0658452
0.0658079
0.0657604
0.065714
0.0656558
0.0656105
0.0655432
0.0655299
0.0654163
0.0655981
0.0815583
0.0659544
0.0659452
0.0659273
0.0659027
0.0658683
0.0658292
0.0657812
0.0657309
0.0656748
0.065619
0.0655656
0.065513
0.0654843
0.0654383
0.0775074
0.0659736
0.0659632
0.0659454
0.0659207
0.0658864
0.0658467
0.0657988
0.0657481
0.0656915
0.0656387
0.0655791
0.0655488
0.0654744
0.0655455
0.0772567
0.0659839
0.0659724
0.0659539
0.0659287
0.0658945
0.0658542
0.0658065
0.0657544
0.0656991
0.0656429
0.0655878
0.0655486
0.0654883
0.0655341
0.0766474
0.0768897
0.0763451
0.0646422
0.06526
0.0759566
0.066948
0.0674873
0.0754059
0.0641733
0.0663326
0.0660398
0.0687632
0.0777566
0.0806337
0.0770385
0.0689472
0.0664193
0.077414
0.0677297
0.0652948
0.0554806
0.0661851
0.0752104
0.0672697
0.0787465
0.0596754
0.0688156
0.0681324
0.0668608
0.0669325
0.0554594
0.0647836
0.0747002
0.0604219
0.0665981
0.0759636
0.0756856
0.0583277
0.0601078
0.0753018
0.0600404
0.0582962
0.0756699
0.0759639
0.0665996
0.0747044
0.0604236
0.0647864
0.0554657
0.0669274
0.0668642
0.068182
0.0753356
0.0687992
0.078782
0.059638
0.067344
0.0664053
0.0572591
0.0655713
0.0678641
0.0792287
0.0665939
0.078757
0.0689748
0.0807598
0.0794435
0.071195
0.0684757
0.0684821
0.0661174
0.0756195
0.0675851
0.0671714
0.0776438
0.0654617
0.0780056
0.0648588
0.0785316
0.0867913
0.0983506
0.0978365
0.0778929
0.0775754
0.067297
0.0678597
0.0964092
0.095773
0.0773474
0.0694818
0.0698176
0.0885553
0.0980881
0.077042
0.0666305
0.0959687
0.0959483
0.0687857
0.0688442
0.0936289
0.0856553
0.0711764
0.0786432
0.0865749
0.0948833
0.0971223
0.080626
0.078107
0.0705412
0.0686385
0.0962827
0.0975264
0.0782297
0.0697243
0.0684607
0.107678
0.0982593
0.0587442
0.0666879
0.089708
0.0750607
0.0864439
0.102612
0.0952222
0.0693422
0.0790696
0.0630596
0.0701689
0.0965896
0.0964008
0.0684142
0.0692785
0.0697533
0.109008
0.0571017
0.0906309
0.101658
0.0971348
0.0671802
0.0744973
0.0638427
0.0686371
0.0884618
0.105761
0.0759674
0.0770293
0.0590328
0.0885778
0.104256
0.060756
0.0768473
0.0606928
0.0884707
0.0888765
0.0590015
0.0770238
0.0759684
0.0906373
0.101664
0.0990997
0.0686366
0.0744998
0.0638463
0.0671876
0.109007
0.0571067
0.0965891
0.0967109
0.0697574
0.0692794
0.0684151
0.089741
0.0750637
0.0864517
0.102579
0.0964785
0.0701807
0.0790789
0.0630582
0.0693425
0.107359
0.0666776
0.0586899
0.0961985
0.0868032
0.068411
0.0697028
0.0782874
0.0868384
0.0948564
0.0846314
0.0686243
0.0781411
0.0705455
0.0805869
0.0938004
0.0786834
0.0711503
0.0960862
0.0687993
0.0687498
0.0885573
0.066623
0.0770207
0.0963297
0.087341
0.0697832
0.0694595
0.0773658
0.0870795
0.098266
0.0867187
0.0678254
0.0775963
0.0672727
0.0779309
0.0858133
0.095709
0.0952464
0.0767314
0.0764124
0.0668882
0.0673882
0.0938393
0.0932226
0.0761761
0.0689135
0.0691327
0.0864282
0.0966951
0.0760881
0.0654398
0.0947301
0.0946782
0.067494
0.067593
0.0923813
0.0847871
0.0698734
0.0773607
0.0854198
0.0925444
0.0948632
0.0792456
0.0768235
0.0697905
0.0680723
0.0937049
0.0953575
0.076948
0.0689592
0.067768
0.106179
0.096929
0.0573982
0.0654079
0.0885699
0.0737289
0.084461
0.100049
0.0928861
0.0683645
0.0778274
0.062529
0.0693904
0.0941968
0.0942957
0.0671033
0.0685324
0.0688813
0.107655
0.0558631
0.0892768
0.0990175
0.0946566
0.0663241
0.073208
0.0632694
0.0678733
0.0864913
0.104556
0.0747381
0.0760725
0.0577041
0.0866128
0.10305
0.0594101
0.075901
0.059348
0.086499
0.087777
0.0576712
0.0760673
0.0747378