/*--------------------------------*- C++ -*----------------------------------*\
| =========                 |                                                 |
| \\      /  F ield         | OpenFOAM: The Open Source CFD Toolbox           |
|  \\    /   O peration     | Version:  2.1.1                                 |
|   \\  /    A nd           | Web:      www.OpenFOAM.org                      |
|    \\/     M anipulation  |                                                 |
\*---------------------------------------------------------------------------*/
FoamFile
{
    version     2.0;
    format      ascii;
    class       surfaceScalarField;
    location    "0.0045";
    object      phi;
}
// * * * * * * * * * * * * * * * * * * * * * * * * * * * * * * * * * * * * * //

dimensions      [0 3 -1 0 0 0 0];

internalField   nonuniform List<scalar> 
29776
(
-3.05891e-12
-9.20981e-14
-2.93247e-12
6.08361e-12
-2.61451e-12
2.24081e-13
-3.06557e-13
-2.94563e-12
5.64262e-12
2.29313e-12
5.0814e-12
9.80526e-10
6.92285e-11
6.9397e-11
-6.6765e-11
-6.69077e-11
7.47862e-11
4.60994e-12
7.97209e-10
6.99969e-11
7.31095e-11
-6.57909e-11
-7.039e-11
4.96637e-11
-7.04465e-11
-4.69961e-11
1.95153e-11
-5.82621e-11
1.8156e-11
-1.63283e-11
1.11706e-10
1.38672e-11
-5.83403e-11
-7.73532e-12
2.3698e-12
-1.8599e-11
7.59097e-11
1.37224e-11
-1.06925e-11
-1.0502e-11
-4.86378e-11
1.35019e-11
-1.83603e-11
6.19823e-11
-2.86191e-13
1.18717e-11
-1.02909e-11
-9.69872e-12
-1.01205e-11
1.38429e-11
8.71872e-12
-1.25231e-11
-3.72622e-12
-5.95661e-13
-3.23241e-13
-2.55028e-12
7.19541e-12
-1.31455e-13
6.69542e-12
1.22207e-09
-1.36065e-12
5.97356e-12
1.20262e-09
2.45861e-12
2.27798e-12
9.62799e-10
4.7911e-11
6.17444e-11
-4.67008e-11
-6.06085e-11
2.61388e-12
1.85615e-12
9.67346e-10
6.48265e-11
6.70568e-11
-6.28161e-11
-6.51941e-11
4.39044e-12
2.84076e-12
9.77907e-10
6.71398e-11
6.76003e-11
-6.55631e-11
-6.51106e-11
6.68428e-11
3.45789e-12
8.07129e-10
6.77443e-11
6.84939e-11
-6.37232e-11
-6.56555e-11
4.69433e-11
-6.27042e-11
-4.46947e-11
-4.02788e-11
1.31591e-11
1.631e-11
-1.39975e-11
9.00692e-11
1.71695e-11
-7.76908e-12
-7.81953e-12
3.6851e-13
1.51402e-12
-1.46273e-11
2.31316e-12
-2.99289e-12
1.34245e-11
9.52123e-13
6.10116e-12
1.19814e-09
2.25058e-12
5.71999e-12
1.2145e-09
1.63262e-12
5.82497e-12
1.20419e-09
-3.45861e-16
5.06064e-12
1.21247e-09
-5.1952e-13
5.29547e-12
1.22254e-09
-6.18241e-13
4.93326e-12
1.19619e-09
2.8881e-12
1.27934e-12
9.44203e-10
4.78153e-11
6.22523e-11
-4.69277e-11
-6.12134e-11
6.82704e-11
2.07762e-12
8.21883e-10
6.42253e-11
6.43396e-11
-6.13934e-11
-6.19054e-11
4.6469e-11
-6.38748e-11
-4.52747e-11
-2.87728e-11
1.0524e-11
-5.4138e-12
7.87859e-11
1.69056e-11
-6.47587e-12
-7.20773e-12
-8.0003e-12
1.58405e-11
1.11493e-11
-9.06357e-12
-9.63627e-13
5.97024e-13
-2.03436e-12
2.40096e-12
-8.30868e-13
5.0181e-12
1.18334e-09
-1.62973e-12
4.94906e-12
1.18786e-09
-4.23455e-13
5.17587e-12
1.19581e-09
6.64315e-14
4.35836e-12
1.19476e-09
2.51833e-13
4.55249e-12
1.19758e-09
2.23885e-13
3.93886e-12
1.20791e-09
-2.24128e-12
4.61115e-12
1.20567e-09
-8.71788e-13
3.62853e-12
1.19067e-09
6.73743e-11
1.62129e-12
7.63038e-10
4.46081e-11
6.79689e-11
-4.40556e-11
-6.52561e-11
4.92967e-11
-6.45162e-11
-4.63802e-11
1.83651e-11
-6.03053e-11
1.36979e-11
-1.52404e-11
1.10858e-10
2.89841e-12
-1.01274e-11
1.43349e-12
5.7955e-12
1.37491e-13
3.76962e-12
1.1829e-09
2.97372e-13
3.66212e-12
1.18302e-09
4.98088e-13
4.2304e-12
1.18489e-09
7.71187e-15
3.61715e-12
1.18327e-09
-4.54076e-13
3.57192e-12
1.18295e-09
-1.52917e-12
3.3345e-12
1.18471e-09
-1.62491e-12
2.94321e-12
1.19606e-09
-1.94324e-12
4.01499e-12
1.22508e-09
-1.88382e-12
2.80274e-12
1.18031e-09
6.83771e-11
1.85887e-12
7.68862e-10
5.05209e-11
6.83886e-11
-4.8301e-11
-6.67887e-11
5.05033e-11
-6.67683e-11
-4.82708e-11
1.8959e-11
-6.35606e-11
1.33295e-11
-1.55219e-11
1.15171e-10
3.22367e-12
-1.10106e-11
1.57625e-12
6.21069e-12
-3.04635e-13
3.10338e-12
1.18025e-09
-6.19553e-13
2.98249e-12
1.18028e-09
-4.08813e-13
3.19701e-12
1.18179e-09
-4.62626e-13
2.80079e-12
1.18135e-09
-7.40331e-13
2.89131e-12
1.18216e-09
-1.0778e-12
2.59917e-12
1.18187e-09
-2.26291e-12
2.67232e-12
1.18425e-09
-2.82166e-12
2.77258e-12
1.19599e-09
-2.79904e-12
2.8305e-12
1.22816e-09
-1.62213e-12
1.92063e-12
1.17999e-09
6.79618e-11
9.0283e-13
7.62609e-10
4.46122e-11
-6.52662e-11
-4.40833e-11
4.93095e-11
6.7283e-11
-4.63961e-11
-6.44375e-11
-3.97628e-11
1.91724e-11
-8.91622e-12
9.04548e-11
-7.9535e-12
1.29212e-11
1.11566e-11
-9.11009e-12
-8.84809e-14
2.45166e-12
1.17846e-09
-2.4177e-13
2.36035e-12
1.17852e-09
-3.77623e-13
2.58667e-12
1.17918e-09
-7.06503e-13
2.34186e-12
1.17919e-09
-1.03753e-12
2.39642e-12
1.18005e-09
-1.519e-12
2.25508e-12
1.1807e-09
-2.0807e-12
2.09632e-12
1.18197e-09
-2.77683e-12
2.08684e-12
1.18371e-09
-4.02058e-12
2.26691e-12
1.19592e-09
-3.64952e-12
1.60907e-12
1.22492e-09
-2.09168e-12
2.2625e-12
1.19047e-09
6.43462e-11
-2.96901e-12
8.21902e-10
4.64588e-11
6.82774e-11
-4.52521e-11
-6.38456e-11
6.42434e-11
-6.19046e-11
-6.13611e-11
-3.85502e-11
1.10524e-11
-7.18374e-12
8.95157e-11
1.96938e-11
-9.05767e-12
-9.76544e-12
-1.00811e-11
1.35815e-11
1.47796e-11
-9.63801e-12
-2.40527e-13
1.95088e-12
1.17684e-09
-5.1299e-13
1.89382e-12
1.17696e-09
-6.71778e-13
1.98184e-12
1.17759e-09
-9.2643e-13
1.83657e-12
1.17779e-09
-1.26293e-12
1.86964e-12
1.17871e-09
-1.60935e-12
1.77103e-12
1.17954e-09
-2.08323e-12
1.61749e-12
1.18129e-09
-2.66784e-12
1.52573e-12
1.18199e-09
-2.93585e-12
1.0766e-12
1.18415e-09
-4.6489e-12
1.52944e-12
1.19587e-09
-1.24178e-12
-2.52002e-13
1.20539e-09
6.20986e-11
6.77214e-13
9.44314e-10
4.76784e-11
-6.1193e-11
-4.69365e-11
-5.02376e-11
2.99314e-12
1.40942e-11
-6.09746e-12
1.01347e-10
1.30408e-12
6.56304e-13
-1.12444e-11
-1.89486e-13
9.47355e-12
-1.87988e-13
1.48027e-12
1.17592e-09
-4.13355e-13
1.44992e-12
1.176e-09
-6.44742e-13
1.52412e-12
1.17635e-09
-9.64408e-13
1.43638e-12
1.17654e-09
-1.35081e-12
1.45529e-12
1.17728e-09
-1.76014e-12
1.36321e-12
1.17802e-09
-2.2457e-12
1.26914e-12
1.17956e-09
-2.60886e-12
1.05231e-12
1.18066e-09
-3.35096e-12
7.30176e-13
1.18174e-09
-4.01478e-12
4.83173e-13
1.18457e-09
-5.05869e-12
-2.98105e-13
1.20773e-09
-3.63271e-12
6.49391e-13
1.19622e-09
6.79983e-11
-4.41493e-12
8.07433e-10
4.69085e-11
6.70204e-11
-4.46936e-11
-6.25854e-11
6.71213e-11
-6.59864e-11
-6.40649e-11
-4.07888e-11
1.16093e-11
-6.11774e-12
9.26987e-11
1.65502e-11
-7.90212e-12
-7.62068e-12
-9.386e-12
1.28878e-11
1.44185e-11
-8.35082e-12
-2.36732e-13
1.10532e-12
1.17535e-09
-4.9309e-13
1.08525e-12
1.17543e-09
-7.5031e-13
1.11736e-12
1.17571e-09
-1.05699e-12
1.05646e-12
1.17595e-09
-1.44461e-12
1.06629e-12
1.17665e-09
-1.85714e-12
9.75972e-13
1.1773e-09
-2.38322e-12
9.29876e-13
1.17868e-09
-2.89211e-12
7.28074e-13
1.17998e-09
-3.58607e-12
4.44712e-13
1.18207e-09
-4.60618e-12
3.38352e-14
1.18284e-09
-5.44676e-12
-1.03788e-13
1.19743e-09
-3.07753e-12
1.82816e-13
1.22248e-09
6.75352e-11
-2.65737e-12
9.78019e-10
6.66067e-11
-6.52372e-11
-6.56222e-11
-4.02012e-11
1.78723e-13
5.55351e-12
9.14275e-11
-7.20778e-12
1.44971e-11
1.28403e-11
-9.55279e-12
-1.25063e-12
-3.14702e-13
-5.0698e-13
2.07232e-12
-2.2209e-13
7.77227e-13
1.17514e-09
-4.63606e-13
7.63622e-13
1.17516e-09
-7.33537e-13
7.87525e-13
1.17529e-09
-1.04661e-12
7.43163e-13
1.17546e-09
-1.42532e-12
7.58779e-13
1.17594e-09
-1.82591e-12
6.54974e-13
1.17652e-09
-2.33043e-12
6.70124e-13
1.17775e-09
-2.80687e-12
4.17031e-13
1.17912e-09
-3.63874e-12
3.86977e-13
1.18125e-09
-4.39908e-12
-4.47559e-13
1.18313e-09
-5.23728e-12
4.63311e-13
1.19461e-09
-2.05151e-12
-1.43416e-12
1.21222e-09
6.67196e-11
-2.30479e-12
9.67408e-10
6.44119e-11
-6.51166e-11
-6.28535e-11
-2.05328e-12
-5.04825e-11
1.94e-11
-1.14181e-12
1.00997e-10
1.63281e-12
9.12552e-13
-1.41714e-11
2.06496e-12
1.80716e-13
9.38039e-12
-2.39064e-13
4.9776e-13
1.17523e-09
-4.93987e-13
4.88654e-13
1.17518e-09
-7.77868e-13
5.04673e-13
1.17527e-09
-1.10619e-12
4.75359e-13
1.17534e-09
-1.51425e-12
4.99769e-13
1.1757e-09
-1.97369e-12
4.19763e-13
1.17632e-09
-2.57978e-12
5.09082e-13
1.17753e-09
-3.19683e-12
2.84407e-13
1.1791e-09
-4.25021e-12
5.99167e-13
1.1817e-09
-5.22944e-12
-2.64566e-13
1.18478e-09
-5.94919e-12
1.58652e-12
1.1957e-09
-2.42989e-12
-2.10555e-12
1.20395e-09
6.15323e-11
1.42826e-12
9.62826e-10
4.78593e-11
-6.0638e-11
-4.67262e-11
-4.2423e-11
5.34479e-12
1.5639e-11
-8.26481e-12
9.12364e-11
4.23602e-12
3.38702e-13
-1.37449e-11
2.32621e-12
-1.48439e-12
8.3284e-12
-2.30377e-13
2.40996e-13
1.17555e-09
-4.80744e-13
2.38453e-13
1.17539e-09
-7.54723e-13
2.46797e-13
1.17525e-09
-1.0763e-12
2.31058e-13
1.17516e-09
-1.44217e-12
2.43651e-13
1.17541e-09
-1.88637e-12
1.95835e-13
1.17597e-09
-2.36096e-12
2.42724e-13
1.17691e-09
-2.97736e-12
1.17872e-13
1.17845e-09
-3.68384e-12
2.93807e-13
1.18021e-09
-4.97723e-12
-1.16959e-13
1.1829e-09
-5.81742e-12
8.01132e-13
1.18778e-09
-6.10721e-12
-8.76428e-13
1.21423e-09
-4.5586e-12
1.22519e-13
1.20256e-09
7.22621e-11
-2.29039e-12
7.97287e-10
6.96312e-11
-7.06674e-11
-6.58261e-11
4.96383e-11
7.46818e-11
-4.70088e-11
-7.03372e-11
-6.07247e-11
2.19507e-11
-1.53188e-11
1.17778e-10
-9.59265e-12
1.12283e-11
1.42317e-11
-7.29081e-12
-2.32428e-13
1.17598e-09
-4.82503e-13
1.17558e-09
-7.65465e-13
1.17524e-09
-1.09938e-12
1.17514e-09
-1.47618e-12
1.17534e-09
-1.9466e-12
1.1759e-09
-2.45626e-12
1.17681e-09
-3.09769e-12
1.17842e-09
-3.78377e-12
1.18021e-09
-5.02397e-12
1.18279e-09
-6.15488e-12
1.1833e-09
-6.77605e-12
1.19788e-09
-5.04493e-12
1.22211e-09
6.88962e-11
9.80346e-10
6.85702e-11
-6.70268e-11
-6.69906e-11
-4.29134e-11
6.58507e-12
-1.85504e-12
9.6288e-11
-9.87602e-12
1.53751e-11
1.5392e-11
-1.00996e-11
-3.22002e-12
-9.09562e-14
-2.77377e-12
6.08489e-12
-2.77123e-12
2.22882e-13
-3.0268e-13
-2.7665e-12
5.61753e-12
1.50981e-12
9.3646e-13
9.76799e-10
6.67824e-11
6.71149e-11
-6.62597e-11
-6.63627e-11
7.2444e-11
1.62744e-12
7.93714e-10
6.72966e-11
7.05222e-11
-6.54503e-11
-7.00703e-11
4.84068e-11
-7.13298e-11
-4.84448e-11
1.77125e-11
-5.94025e-11
1.61672e-11
-1.49201e-11
1.12887e-10
1.32751e-11
-5.87243e-11
-6.88069e-12
1.92329e-12
-1.67102e-11
7.55844e-11
1.3132e-11
-1.0923e-11
-1.06767e-11
-4.86966e-11
1.29613e-11
-1.58547e-11
6.17781e-11
8.2019e-14
1.12997e-11
-1.05234e-11
-9.86914e-12
-1.03021e-11
1.33389e-11
8.45304e-12
-1.26672e-11
-3.87841e-12
-5.36383e-13
-3.33211e-13
-2.43417e-12
7.18218e-12
-9.97282e-13
2.06843e-12
1.22193e-09
-2.28345e-12
2.72686e-12
1.20281e-09
9.85279e-13
-6.1504e-13
9.60306e-10
4.71833e-11
6.09342e-11
-4.76355e-11
-6.06431e-11
1.70753e-12
-1.23731e-12
9.66071e-10
6.36752e-11
6.54841e-11
-6.26544e-11
-6.47144e-11
2.80651e-12
-6.23781e-14
9.75624e-10
6.48924e-11
6.62691e-11
-6.54745e-11
-6.4442e-11
6.5934e-11
1.5768e-12
8.04763e-10
6.49157e-11
6.7116e-11
-6.4069e-11
-6.59972e-11
4.61359e-11
-6.4054e-11
-4.63851e-11
-4.13509e-11
1.2227e-11
1.49527e-11
-1.19374e-11
9.189e-11
1.66536e-11
-8.3535e-12
-8.14712e-12
4.32423e-15
1.52296e-12
-1.4325e-11
2.16966e-12
-2.8186e-12
1.34467e-11
5.19834e-13
1.13435e-12
1.19855e-09
1.93575e-12
1.40414e-12
1.2144e-09
1.01152e-12
2.03367e-12
1.20247e-09
-4.9627e-13
1.74241e-12
1.21099e-09
-1.39723e-12
1.72717e-12
1.22166e-09
-1.89284e-12
2.32752e-12
1.19594e-09
2.72873e-12
-1.73674e-12
9.4246e-10
4.65827e-11
6.10993e-11
-4.77716e-11
-6.1051e-11
6.75706e-11
1.33519e-12
8.19411e-10
6.26271e-11
6.36544e-11
-6.17996e-11
-6.23111e-11
4.53154e-11
-6.43637e-11
-4.68247e-11
-3.00758e-11
9.9155e-12
-3.29872e-12
8.0423e-11
1.65656e-11
-6.94583e-12
-7.52235e-12
-8.33449e-12
1.54981e-11
1.07137e-11
-9.36708e-12
-9.88793e-13
5.59774e-13
-1.98268e-12
2.4117e-12
-4.94313e-13
8.45981e-13
1.18411e-09
-9.27235e-13
9.60157e-13
1.18874e-09
-1.60281e-13
9.76939e-13
1.1961e-09
3.03694e-13
6.59833e-13
1.19538e-09
5.2364e-13
8.1413e-13
1.19828e-09
1.19188e-12
8.91047e-13
1.20868e-09
-1.91153e-12
1.82338e-12
1.20522e-09
-4.15526e-13
1.46111e-12
1.18905e-09
6.59793e-11
-7.27569e-13
7.61526e-10
4.3148e-11
6.71054e-11
-4.5142e-11
-6.47933e-11
4.83199e-11
-6.50441e-11
-4.77466e-11
1.72207e-11
-6.1904e-11
1.2077e-11
-1.3905e-11
1.12491e-10
2.70585e-12
-9.95157e-12
1.47701e-12
5.76873e-12
1.8247e-13
6.30561e-13
1.18293e-09
3.44274e-13
6.16327e-13
1.1832e-09
3.01092e-13
9.10953e-13
1.185e-09
-3.82393e-14
7.37446e-13
1.18353e-09
-1.76189e-13
6.94723e-13
1.18321e-09
-5.60393e-13
8.1476e-13
1.18517e-09
1.68425e-13
4.17078e-13
1.19674e-09
-5.32422e-13
1.55796e-12
1.22569e-09
-1.21393e-13
7.5537e-13
1.17842e-09
6.74009e-11
1.03524e-13
7.67729e-10
4.9714e-11
6.74179e-11
-4.96072e-11
-6.70706e-11
4.96874e-11
-6.70563e-11
-4.9579e-11
1.79404e-11
-6.52517e-11
1.18715e-11
-1.39646e-11
1.16806e-10
3.02438e-12
-1.08346e-11
1.61398e-12
6.19626e-12
-1.23144e-13
6.17898e-13
1.18039e-09
-2.72417e-13
5.6851e-13
1.18048e-09
-1.66937e-13
6.39507e-13
1.18195e-09
-1.07092e-13
5.35876e-13
1.18149e-09
-1.43701e-13
6.09797e-13
1.18228e-09
-3.76126e-14
5.81533e-13
1.182e-09
-5.07549e-13
6.1061e-13
1.18453e-09
-2.95695e-13
5.75927e-13
1.19676e-09
-6.80973e-13
2.92864e-13
1.22901e-09
7.25709e-13
5.97936e-13
1.17809e-09
6.71106e-11
4.14527e-13
7.61098e-10
4.31589e-11
-6.48001e-11
-4.51612e-11
4.83394e-11
6.59002e-11
-4.77622e-11
-6.4961e-11
-4.10707e-11
1.78335e-11
-7.09617e-12
9.18402e-11
-8.32975e-12
1.26296e-11
1.06288e-11
-9.32457e-12
-1.98983e-15
5.23236e-13
1.17856e-09
-4.17987e-14
4.92787e-13
1.17863e-09
-8.62206e-14
5.89698e-13
1.17927e-09
-2.03322e-13
5.39659e-13
1.1793e-09
-2.82059e-13
5.64993e-13
1.18017e-09
-3.94153e-13
5.83595e-13
1.18081e-09
-4.21225e-13
4.74998e-13
1.18213e-09
-5.82365e-13
4.2946e-13
1.18402e-09
-1.56784e-12
5.08808e-13
1.19669e-09
-1.45938e-12
-1.42878e-13
1.22556e-09
-1.35451e-12
1.9097e-12
1.18888e-09
6.36478e-11
-2.72537e-12
8.19404e-10
4.53022e-11
6.75744e-11
-4.68087e-11
-6.43464e-11
6.26361e-11
-6.23231e-11
-6.18105e-11
-3.94738e-11
1.05745e-11
-5.82179e-12
9.12357e-11
1.93889e-11
-9.48917e-12
-1.01422e-11
-1.04858e-11
1.34847e-11
1.4422e-11
-1.0045e-11
-7.0075e-14
4.25908e-13
1.17701e-09
-1.50066e-13
4.10767e-13
1.17712e-09
-1.74895e-13
4.42667e-13
1.17776e-09
-2.16942e-13
4.14298e-13
1.17796e-09
-3.0769e-13
4.30672e-13
1.17894e-09
-3.7185e-13
4.43359e-13
1.17974e-09
-4.68138e-13
3.79909e-13
1.18148e-09
-6.13987e-13
4.07646e-13
1.18216e-09
-4.40715e-13
4.86775e-14
1.18444e-09
-1.86139e-12
5.77205e-13
1.19657e-09
1.68527e-12
-1.23053e-12
1.20499e-09
6.10941e-11
2.0197e-12
9.42425e-10
4.65853e-11
-6.10701e-11
-4.77797e-11
-5.17995e-11
2.2981e-12
1.2258e-11
-4.77644e-12
1.03114e-10
1.02692e-12
5.91746e-13
-1.09666e-11
-2.32657e-13
9.58062e-12
-3.69807e-14
3.26014e-13
1.17606e-09
-8.68935e-14
3.20931e-13
1.17614e-09
-1.41158e-13
3.53204e-13
1.1765e-09
-2.19971e-13
3.37655e-13
1.1767e-09
-3.26954e-13
3.43213e-13
1.17747e-09
-4.34388e-13
3.4041e-13
1.17823e-09
-5.77257e-13
3.16367e-13
1.17977e-09
-5.78589e-13
2.97571e-13
1.18078e-09
-8.41807e-13
1.78609e-13
1.18188e-09
-9.2456e-13
1.96516e-13
1.18504e-09
-2.41508e-12
-5.61237e-13
1.20856e-09
-1.57141e-12
1.4545e-12
1.19594e-09
6.71495e-11
-2.75065e-12
8.04882e-10
4.61269e-11
6.5966e-11
-4.63922e-11
-6.40398e-11
6.49411e-11
-6.59777e-11
-6.4044e-11
-4.1431e-11
1.10899e-11
-4.87627e-12
9.43126e-11
1.61622e-11
-8.34888e-12
-7.94113e-12
-9.74673e-12
1.25348e-11
1.40264e-11
-8.63258e-12
-5.56118e-14
2.45368e-13
1.17549e-09
-1.17013e-13
2.43541e-13
1.17557e-09
-1.74732e-13
2.55672e-13
1.17587e-09
-2.36239e-13
2.43573e-13
1.1761e-09
-3.32813e-13
2.46707e-13
1.17684e-09
-4.21661e-13
2.32565e-13
1.17749e-09
-5.59302e-13
2.23615e-13
1.17891e-09
-6.10782e-13
2.16055e-13
1.18011e-09
-7.0801e-13
1.37294e-13
1.1822e-09
-8.49527e-13
6.44746e-14
1.18312e-09
-1.82118e-12
-3.35031e-13
1.19817e-09
-4.2246e-14
5.21454e-13
1.22163e-09
6.62458e-11
-1.61827e-12
9.75643e-10
6.4933e-11
-6.44751e-11
-6.55026e-11
-4.07876e-11
-2.6672e-13
5.62594e-12
9.25321e-11
-7.50107e-12
1.41211e-11
1.23163e-11
-9.79454e-12
-1.22744e-12
-3.54611e-13
-5.16492e-13
2.09855e-12
-4.56883e-14
1.76392e-13
1.17526e-09
-1.00015e-13
1.7443e-13
1.17528e-09
-1.64263e-13
1.85263e-13
1.17542e-09
-2.32723e-13
1.7533e-13
1.1756e-09
-3.26998e-13
1.84968e-13
1.1761e-09
-4.06349e-13
1.53466e-13
1.17668e-09
-5.37549e-13
1.79938e-13
1.17792e-09
-5.45496e-13
9.80166e-14
1.17925e-09
-7.49147e-13
1.76976e-13
1.18142e-09
-7.02501e-13
-2.70497e-13
1.18343e-09
-1.85472e-12
1.39107e-13
1.19529e-09
9.81989e-13
-9.77089e-13
1.21088e-09
6.54844e-11
-8.63486e-13
9.66001e-10
6.36318e-11
-6.47771e-11
-6.27063e-11
-1.99773e-12
-5.13166e-11
1.75828e-11
-9.03067e-13
1.02119e-10
1.27003e-12
9.08817e-13
-1.3804e-11
2.06266e-12
1.64175e-13
9.39828e-12
-5.07862e-14
1.15117e-13
1.17535e-09
-1.08358e-13
1.12363e-13
1.1753e-09
-1.74693e-13
1.19991e-13
1.17541e-09
-2.45114e-13
1.11782e-13
1.17547e-09
-3.44469e-13
1.2628e-13
1.17586e-09
-4.36672e-13
9.66115e-14
1.17647e-09
-5.88801e-13
1.54501e-13
1.17771e-09
-6.4496e-13
4.94275e-14
1.17921e-09
-9.25311e-13
2.72217e-13
1.18189e-09
-1.01728e-12
-3.20266e-13
1.18492e-09
-2.13313e-12
9.1525e-13
1.19604e-09
3.78503e-13
-1.90162e-12
1.20236e-09
6.08723e-11
2.43865e-12
9.60264e-10
4.71252e-11
-6.06907e-11
-4.767e-11
-4.39003e-11
4.79775e-12
1.40163e-11
-6.57648e-12
9.25352e-11
3.81526e-12
3.25241e-13
-1.33824e-11
2.37652e-12
-1.29016e-12
8.15559e-12
-4.84956e-14
5.83278e-14
1.17566e-09
-1.04166e-13
5.88716e-14
1.1755e-09
-1.65105e-13
6.26056e-14
1.17537e-09
-2.34205e-13
5.79948e-14
1.17529e-09
-3.13705e-13
6.55003e-14
1.17555e-09
-4.05249e-13
4.63463e-14
1.17611e-09
-4.91376e-13
7.53088e-14
1.17708e-09
-5.72503e-13
1.32181e-14
1.17857e-09
-6.30721e-13
1.23163e-13
1.18042e-09
-9.96261e-13
-1.67386e-13
1.18311e-09
-1.4554e-12
4.86635e-13
1.18867e-09
-2.87176e-12
-4.98609e-13
1.21424e-09
-1.6236e-12
1.06412e-12
1.20268e-09
7.05437e-11
-1.47731e-12
7.9358e-10
6.73219e-11
-7.00284e-11
-6.53998e-11
4.84047e-11
7.25121e-11
-4.8473e-11
-7.13204e-11
-6.13077e-11
2.05162e-11
-1.45785e-11
1.18696e-10
-9.91276e-12
1.09288e-11
1.37553e-11
-7.55342e-12
-4.73988e-14
1.17609e-09
-1.01326e-13
1.17569e-09
-1.65853e-13
1.17537e-09
-2.3971e-13
1.17526e-09
-3.22052e-13
1.17548e-09
-4.22711e-13
1.17604e-09
-5.24187e-13
1.17698e-09
-6.21515e-13
1.17852e-09
-6.45622e-13
1.18035e-09
-8.78486e-13
1.18284e-09
-1.16301e-12
1.18407e-09
-2.16421e-12
1.19839e-09
-8.52085e-13
1.22187e-09
6.71175e-11
9.76621e-10
6.6811e-11
-6.63025e-11
-6.62273e-11
-4.36413e-11
6.25751e-12
-1.7038e-12
9.70696e-11
-1.0228e-11
1.4903e-11
1.48851e-11
-1.04249e-11
-3.25866e-12
-8.84961e-14
-2.76016e-12
6.10589e-12
-2.80462e-12
2.22347e-13
-2.99024e-13
-2.75079e-12
5.63209e-12
3.51047e-13
-2.19214e-12
9.78443e-10
6.6413e-11
6.6822e-11
-6.64696e-11
-6.65726e-11
7.17782e-11
-1.55695e-12
7.95511e-10
6.70583e-11
7.03555e-11
-6.56589e-11
-7.01908e-11
4.80811e-11
-7.22586e-11
-4.90562e-11
1.73418e-11
-5.95917e-11
1.57181e-11
-1.49998e-11
1.13309e-10
1.32398e-11
-5.90703e-11
-6.53702e-12
1.66503e-12
-1.64875e-11
7.58045e-11
1.31519e-11
-1.10361e-11
-1.07303e-11
-4.89378e-11
1.29503e-11
-1.5552e-11
6.18941e-11
1.90909e-13
1.13042e-11
-1.06038e-11
-9.92256e-12
-1.04003e-11
1.3348e-11
8.46656e-12
-1.27377e-11
-3.91618e-12
-5.24847e-13
-3.34713e-13
-2.43292e-12
7.20866e-12
-1.42287e-14
-2.73104e-12
1.22247e-09
-2.67773e-13
-2.07663e-12
1.20358e-09
5.98331e-13
-3.59078e-12
9.62317e-10
4.73029e-11
6.14922e-11
-4.76839e-11
-6.03984e-11
7.31058e-13
-2.70542e-12
9.67141e-10
6.35499e-11
6.55272e-11
-6.28676e-11
-6.47077e-11
9.0195e-13
-1.66927e-12
9.76966e-10
6.45073e-11
6.60888e-11
-6.58416e-11
-6.45991e-11
6.53971e-11
3.38326e-13
8.05123e-10
6.45585e-11
6.70036e-11
-6.44254e-11
-6.62292e-11
4.58324e-11
-6.49637e-11
-4.69674e-11
-4.16731e-11
1.21439e-11
1.46125e-11
-1.19683e-11
9.23412e-11
1.6648e-11
-8.48258e-12
-8.22323e-12
-9.01831e-14
1.51954e-12
-1.43207e-11
2.14983e-12
-2.77364e-12
1.35152e-11
2.05676e-13
-3.26533e-12
1.19888e-09
8.97776e-13
-3.14269e-12
1.21478e-09
-3.38075e-13
-2.43006e-12
1.20254e-09
-1.47889e-12
-1.69492e-12
1.21112e-09
-1.77976e-12
-1.59008e-12
1.22188e-09
-1.23194e-12
-4.97777e-13
1.19623e-09
2.08615e-12
-2.7614e-12
9.4232e-10
4.67056e-11
6.15168e-11
-4.77647e-11
-6.08697e-11
6.73987e-11
5.49835e-13
8.19371e-10
6.24656e-11
6.35074e-11
-6.21448e-11
-6.26584e-11
4.50886e-11
-6.48507e-11
-4.72275e-11
-3.0289e-11
9.85102e-12
-3.2533e-12
8.08438e-11
1.65954e-11
-7.04984e-12
-7.57984e-12
-8.43961e-12
1.55021e-11
1.06685e-11
-9.4498e-12
-9.87313e-13
5.51816e-13
-1.9828e-12
2.4183e-12
-1.87526e-13
-2.78716e-12
1.18382e-09
-5.9725e-13
-2.67432e-12
1.18868e-09
-5.71842e-13
-2.79959e-12
1.19645e-09
-1.14193e-13
-2.38765e-12
1.19562e-09
6.15938e-14
-2.15951e-12
1.19867e-09
8.74627e-13
-1.80487e-12
1.20918e-09
-1.48777e-12
-6.91236e-13
1.20551e-09
-6.43394e-13
-8.80325e-13
1.18963e-09
6.58065e-11
-1.44236e-12
7.61644e-10
4.31555e-11
6.72485e-11
-4.5255e-11
-6.4871e-11
4.81644e-11
-6.54551e-11
-4.8114e-11
1.6993e-11
-6.22435e-11
1.18406e-11
-1.37495e-11
1.12967e-10
2.67273e-12
-9.97831e-12
1.50367e-12
5.80192e-12
7.64623e-14
-2.23624e-12
1.18231e-09
1.14551e-13
-2.20138e-12
1.18269e-09
-9.25627e-14
-2.12042e-12
1.18453e-09
-1.58985e-13
-1.82628e-12
1.18304e-09
4.42441e-14
-1.8374e-12
1.18269e-09
7.71776e-14
-1.39989e-12
1.18473e-09
1.16289e-12
-1.62852e-12
1.19659e-09
6.76021e-13
-8.18506e-13
1.22611e-09
9.05316e-14
-1.28877e-12
1.17885e-09
6.74754e-11
-1.05082e-13
7.6802e-10
4.96501e-11
6.74932e-11
-4.99002e-11
-6.72904e-11
4.96224e-11
-6.72745e-11
-4.98712e-11
1.77679e-11
-6.56284e-11
1.17194e-11
-1.36823e-11
1.173e-10
2.99085e-12
-1.08709e-11
1.64611e-12
6.23399e-12
4.49806e-14
-1.76702e-12
1.17988e-09
6.55508e-14
-1.73485e-12
1.17999e-09
8.54648e-14
-1.77135e-12
1.18158e-09
2.76825e-13
-1.57461e-12
1.18105e-09
3.92239e-13
-1.51656e-12
1.18185e-09
7.79277e-13
-1.34157e-12
1.18155e-09
7.70397e-13
-1.22529e-12
1.18414e-09
1.37697e-12
-1.169e-12
1.19651e-09
1.27608e-12
-1.37904e-12
1.2292e-09
1.44421e-12
-6.84259e-13
1.1785e-09
6.72568e-11
6.42919e-13
7.61206e-10
4.31712e-11
-6.48774e-11
-4.52714e-11
4.81863e-11
6.57308e-11
-4.81311e-11
-6.53722e-11
-4.12908e-11
1.77093e-11
-6.83577e-12
9.22992e-11
-8.44928e-12
1.26479e-11
1.05597e-11
-9.38267e-12
8.44987e-14
-1.38247e-12
1.1781e-09
1.69949e-13
-1.35052e-12
1.17816e-09
2.23182e-13
-1.35625e-12
1.1788e-09
3.3288e-13
-1.21246e-12
1.17883e-09
5.05627e-13
-1.22414e-12
1.17971e-09
6.80343e-13
-1.06397e-12
1.18036e-09
9.97005e-13
-1.07352e-12
1.18166e-09
1.1765e-12
-9.86612e-13
1.18366e-09
8.07729e-13
-7.5611e-13
1.19644e-09
8.80626e-13
-1.15117e-12
1.22595e-09
-5.5853e-13
1.49439e-12
1.18947e-09
6.35075e-11
-2.09433e-12
8.1935e-10
4.50774e-11
6.74017e-11
-4.72158e-11
-6.48427e-11
6.24774e-11
-6.26658e-11
-6.21498e-11
-4.0072e-11
1.05356e-11
-5.58219e-12
9.17376e-11
1.94064e-11
-9.57626e-12
-1.02277e-11
-1.05864e-11
1.35574e-11
1.4412e-11
-1.00963e-11
9.75829e-14
-1.08329e-12
1.17661e-09
2.04481e-13
-1.05618e-12
1.17672e-09
3.12749e-13
-1.07216e-12
1.17737e-09
4.92638e-13
-9.84583e-13
1.17755e-09
6.5365e-13
-9.87442e-13
1.17854e-09
8.71253e-13
-8.77377e-13
1.17934e-09
1.08222e-12
-8.60182e-13
1.18105e-09
1.22522e-12
-6.62038e-13
1.18169e-09
1.62503e-12
-7.66318e-13
1.18405e-09
6.72822e-13
-4.7911e-14
1.19642e-09
2.73667e-12
-8.86321e-13
1.20531e-09
6.15121e-11
1.24343e-12
9.42257e-10
4.67117e-11
-6.08858e-11
-4.77708e-11
-5.19488e-11
2.16815e-12
1.2161e-11
-4.42357e-12
1.03555e-10
9.82713e-13
5.86111e-13
-1.10043e-11
-2.17414e-13
9.65295e-12
1.12466e-13
-8.21037e-13
1.17569e-09
2.33103e-13
-8.00743e-13
1.17577e-09
3.53603e-13
-8.07119e-13
1.17611e-09
5.12501e-13
-7.47735e-13
1.1763e-09
6.86541e-13
-7.53213e-13
1.17706e-09
8.88737e-13
-6.72421e-13
1.17783e-09
1.07046e-12
-6.39916e-13
1.17937e-09
1.34417e-12
-4.86147e-13
1.18033e-09
1.39126e-12
-3.7999e-13
1.18145e-09
1.78755e-12
-9.03347e-15
1.1846e-09
4.59017e-13
-6.72522e-14
1.20907e-09
-3.5902e-13
1.80059e-12
1.1962e-09
6.70167e-11
-9.02792e-13
8.05169e-10
4.58337e-11
6.54143e-11
-4.69686e-11
-6.4958e-11
6.45887e-11
-6.6245e-11
-6.44272e-11
-4.21028e-11
1.10794e-11
-4.59617e-12
9.48702e-11
1.61507e-11
-8.43239e-12
-8.01634e-12
-9.83831e-12
1.2581e-11
1.39981e-11
-8.67644e-12
1.24525e-13
-6.09342e-13
1.17516e-09
2.57061e-13
-5.94765e-13
1.17523e-09
3.95693e-13
-6.01331e-13
1.17552e-09
5.74787e-13
-5.61415e-13
1.17574e-09
7.64733e-13
-5.62863e-13
1.17646e-09
9.96717e-13
-4.97415e-13
1.17708e-09
1.23095e-12
-4.802e-13
1.17851e-09
1.51936e-12
-3.13785e-13
1.17965e-09
1.83182e-12
-2.67717e-13
1.18178e-09
2.14145e-12
1.99667e-13
1.1826e-09
1.55553e-12
1.13114e-13
1.19858e-09
1.64637e-12
1.49589e-12
1.22184e-09
6.60845e-11
-7.13169e-13
9.76969e-10
6.45111e-11
-6.46133e-11
-6.58535e-11
-4.13105e-11
-4.15057e-13
5.81508e-12
9.30632e-11
-7.57986e-12
1.41098e-11
1.22527e-11
-9.85074e-12
-1.22026e-12
-3.74721e-13
-5.18498e-13
2.11348e-12
1.2831e-13
-4.25085e-13
1.17495e-09
2.61498e-13
-4.1631e-13
1.17497e-09
4.01965e-13
-4.17578e-13
1.1751e-09
5.72919e-13
-3.90841e-13
1.17526e-09
7.57812e-13
-3.84047e-13
1.17573e-09
9.92841e-13
-3.39406e-13
1.17629e-09
1.21766e-12
-3.02182e-13
1.17752e-09
1.5751e-12
-2.04899e-13
1.17878e-09
1.81982e-12
-7.34616e-14
1.18098e-09
2.37217e-12
1.19692e-13
1.18295e-09
1.66765e-12
5.76721e-13
1.19553e-09
2.66273e-12
3.46479e-13
1.21103e-09
6.55178e-11
-5.93312e-13
9.67085e-10
6.35433e-11
-6.47248e-11
-6.28778e-11
-2.06579e-12
-5.16682e-11
1.73897e-11
-6.872e-13
1.02549e-10
1.19558e-12
9.15632e-13
-1.37997e-11
2.07161e-12
1.71068e-13
9.44582e-12
1.35112e-13
-2.70165e-13
1.17507e-09
2.76253e-13
-2.65855e-13
1.17501e-09
4.27616e-13
-2.66661e-13
1.1751e-09
6.11045e-13
-2.50907e-13
1.17515e-09
8.15305e-13
-2.46233e-13
1.17552e-09
1.07849e-12
-2.19821e-13
1.17609e-09
1.35901e-12
-1.94414e-13
1.17733e-09
1.76794e-12
-1.50991e-13
1.17874e-09
2.11393e-12
-5.56822e-14
1.18153e-09
2.78465e-12
-8.82092e-14
1.18446e-09
2.41395e-12
5.99811e-13
1.19639e-09
3.56333e-12
-8.97952e-13
1.20246e-09
6.14874e-11
2.68118e-13
9.6228e-10
4.7286e-11
-6.04062e-11
-4.76826e-11
-4.38405e-11
4.63148e-12
1.39825e-11
-6.17489e-12
9.28893e-11
3.69402e-12
3.3126e-13
-1.33966e-11
2.3939e-12
-1.20037e-12
8.17782e-12
1.33113e-13
-1.30181e-13
1.17539e-09
2.72872e-13
-1.26595e-13
1.17522e-09
4.24249e-13
-1.26206e-13
1.17508e-09
6.03227e-13
-1.17895e-13
1.17497e-09
8.07239e-13
-1.14264e-13
1.17521e-09
1.06087e-12
-1.01013e-13
1.17574e-09
1.3523e-12
-8.86509e-14
1.17668e-09
1.73116e-12
-6.72145e-14
1.17811e-09
2.19328e-12
-4.00486e-14
1.17994e-09
2.65069e-12
-5.34463e-14
1.18261e-09
3.11415e-12
1.9071e-13
1.18861e-09
1.9971e-12
-2.09061e-13
1.21467e-09
1.50357e-12
8.74762e-15
1.20343e-09
7.03374e-11
-3.39618e-13
7.95355e-10
6.70256e-11
-7.01995e-11
-6.56472e-11
4.80973e-11
7.18104e-11
-4.90824e-11
-7.22747e-11
-6.18993e-11
2.04035e-11
-1.44382e-11
1.19246e-10
-1.00051e-11
1.09289e-11
1.37133e-11
-7.61164e-12
1.3671e-13
1.17583e-09
2.79155e-13
1.17542e-09
4.34017e-13
1.17508e-09
6.16375e-13
1.17495e-09
8.25945e-13
1.17515e-09
1.08728e-12
1.17567e-09
1.38213e-12
1.17659e-09
1.76046e-12
1.17807e-09
2.21777e-12
1.17984e-09
2.75534e-12
1.18224e-09
3.22289e-12
1.18378e-09
2.63343e-12
1.19877e-09
2.13173e-12
1.22238e-09
6.67792e-11
9.78275e-10
6.6403e-11
-6.65557e-11
-6.64884e-11
-4.41552e-11
6.16641e-12
-1.66511e-12
9.76042e-11
-1.0332e-11
1.48556e-11
1.48223e-11
-1.05171e-11
-3.27017e-12
-8.7749e-14
-2.76287e-12
6.11911e-12
-2.81699e-12
2.21556e-13
-2.98737e-13
-2.7536e-12
5.64777e-12
1.63241e-13
-5.17522e-12
9.83482e-10
6.65109e-11
6.69368e-11
-6.66776e-11
-6.68001e-11
7.12926e-11
-5.52493e-12
8.02893e-10
6.72485e-11
7.0682e-11
-6.5852e-11
-7.02651e-11
4.7777e-11
-7.30306e-11
-4.95485e-11
1.72569e-11
-5.97878e-11
1.53964e-11
-1.53831e-11
1.1381e-10
1.3253e-11
-5.93412e-11
-6.29097e-12
1.47115e-12
-1.67072e-11
7.62379e-11
1.32208e-11
-1.1103e-11
-1.07404e-11
-4.91429e-11
1.29709e-11
-1.56439e-11
6.22301e-11
2.68829e-13
1.13461e-11
-1.06501e-11
-9.93652e-12
-1.04466e-11
1.33331e-11
8.47921e-12
-1.28083e-11
-3.92962e-12
-5.1897e-13
-3.42128e-13
-2.43423e-12
7.22495e-12
1.70387e-12
-7.51399e-12
1.22311e-09
2.14604e-12
-7.27357e-12
1.20488e-09
5.73674e-13
-7.5733e-12
9.68956e-10
4.76652e-11
6.23748e-11
-4.76114e-11
-5.99211e-11
-5.03352e-13
-5.16282e-12
9.70532e-10
6.39389e-11
6.61197e-11
-6.27911e-11
-6.44177e-11
-9.19568e-13
-3.83896e-12
9.80875e-10
6.46029e-11
6.63375e-11
-6.59982e-11
-6.45948e-11
6.47973e-11
-1.57191e-12
8.07614e-10
6.45534e-11
6.71965e-11
-6.46323e-11
-6.62075e-11
4.548e-11
-6.56353e-11
-4.73885e-11
-4.17667e-11
1.21113e-11
1.43469e-11
-1.23243e-11
9.25269e-11
1.66597e-11
-8.52701e-12
-8.22906e-12
-1.03857e-13
1.50687e-12
-1.428e-11
2.13277e-12
-2.77936e-12
1.35236e-11
-2.50117e-13
-7.25676e-12
1.19889e-09
-3.71817e-13
-7.40332e-12
1.21503e-09
-2.50854e-12
-6.86795e-12
1.20398e-09
-2.75749e-12
-5.08254e-12
1.21129e-09
-2.06179e-12
-4.91716e-12
1.22226e-09
-2.85537e-13
-3.27741e-12
1.19616e-09
2.14737e-12
-4.30713e-12
9.43104e-10
4.69637e-11
6.20934e-11
-4.75886e-11
-6.03787e-11
6.72396e-11
-7.56226e-13
8.2118e-10
6.2496e-11
6.35608e-11
-6.21495e-11
-6.26146e-11
4.49362e-11
-6.50067e-11
-4.73655e-11
-3.03236e-11
9.83826e-12
-3.37898e-12
8.09088e-11
1.66103e-11
-7.06663e-12
-7.5748e-12
-8.44792e-12
1.54856e-11
1.06587e-11
-9.4696e-12
-9.88237e-13
5.52518e-13
-1.98368e-12
2.4194e-12
2.69213e-13
-6.309e-12
1.18261e-09
1.15283e-13
-6.15131e-12
1.18758e-09
-1.02694e-12
-6.34692e-12
1.19707e-09
-6.33617e-13
-5.18693e-12
1.19533e-09
-6.40139e-13
-4.97444e-12
1.19874e-09
5.23949e-13
-4.37312e-12
1.20911e-09
-1.45441e-12
-2.98374e-12
1.20617e-09
-1.11528e-13
-2.70041e-12
1.19024e-09
6.56884e-11
-2.4504e-12
7.63462e-10
4.32206e-11
6.73987e-11
-4.52179e-11
-6.47755e-11
4.80593e-11
-6.56103e-11
-4.82408e-11
1.69551e-11
-6.23567e-11
1.17852e-11
-1.37667e-11
1.13072e-10
2.66911e-12
-9.98509e-12
1.50652e-12
5.80948e-12
-1.10746e-14
-5.09942e-12
1.18112e-09
-2.71892e-14
-4.98414e-12
1.18154e-09
-3.81784e-13
-5.11551e-12
1.18365e-09
-1.16429e-13
-4.35539e-12
1.18194e-09
4.01376e-13
-4.39278e-12
1.18159e-09
7.3404e-13
-3.68251e-12
1.18371e-09
2.03541e-12
-3.61178e-12
1.19591e-09
1.86383e-12
-2.74264e-12
1.22632e-09
7.0536e-13
-2.58407e-12
1.18015e-09
6.75708e-11
-7.20888e-13
7.6938e-10
4.96465e-11
6.75906e-11
-4.99363e-11
-6.7265e-11
4.9617e-11