/*--------------------------------*- C++ -*----------------------------------*\
| =========                 |                                                 |
| \\      /  F ield         | OpenFOAM: The Open Source CFD Toolbox           |
|  \\    /   O peration     | Version:  2.1.1                                 |
|   \\  /    A nd           | Web:      www.OpenFOAM.org                      |
|    \\/     M anipulation  |                                                 |
\*---------------------------------------------------------------------------*/
FoamFile
{
    version     2.0;
    format      ascii;
    class       volScalarField;
    location    "0.0045";
    object      Th;
}
// * * * * * * * * * * * * * * * * * * * * * * * * * * * * * * * * * * * * * //

dimensions      [0 0 0 0 0 0 0];

internalField   nonuniform List<scalar> 
10260
(
4.79262e-13
5.28179e-13
1.17779e-14
1.44253e-14
1e-14
1.54279e-14
6.94095e-14
3.29207e-13
1.00089e-14
1.00231e-14
1e-14
1.0124e-14
1.024e-14
1.55085e-14
1.09135e-14
1e-14
1.00001e-14
1.00002e-14
1e-14
1.00002e-14
1.00006e-14
1.0018e-14
1.01999e-14
1.96907e-14
2.86684e-14
1.08053e-12
1.00001e-14
1.00001e-14
1e-14
1e-14
1e-14
1e-14
1.00002e-14
1.0023e-14
1.1297e-14
1e-14
2.40918e-13
1.00001e-14
1e-14
1e-14
1e-14
1e-14
1e-14
1e-14
1.00001e-14
1.00025e-14
1.13698e-14
1e-14
1.38406e-13
1.00002e-14
1e-14
1e-14
1e-14
1e-14
1e-14
1e-14
1e-14
1.00001e-14
1.00025e-14
1.12999e-14
1.32514e-14
1.00002e-14
1e-14
1e-14
1e-14
1e-14
1e-14
1e-14
1e-14
1e-14
1.00001e-14
1.0023e-14
1.96908e-14
7.46562e-14
1.00002e-14
1e-14
1e-14
1e-14
1.00001e-14
1.00002e-14
1.00001e-14
1e-14
1e-14
1e-14
1.00002e-14
1.02007e-14
1e-14
3.75582e-14
1.00001e-14
1e-14
1e-14
1e-14
1.00002e-14
1.00001e-14
1e-14
1.00001e-14
1e-14
1e-14
1e-14
1.00193e-14
1.55966e-14
4.91793e-14
1e-14
1e-14
1e-14
1.00001e-14
1.00002e-14
1e-14
1e-14
1.00001e-14
1e-14
1e-14
1e-14
1.00006e-14
1.02423e-14
1.02879e-14
1.46318e-12
1.00001e-14
1e-14
1.00001e-14
1.00001e-14
1.00001e-14
1e-14
1.00001e-14
1.00001e-14
1.00001e-14
1e-14
1e-14
1.00003e-14
1.01246e-14
1e-14
1e-14
1.00001e-14
1.00001e-14
1e-14
1e-14
1.00001e-14
1.00001e-14
1.00001e-14
1.00001e-14
1.00001e-14
1e-14
1e-14
1.00001e-14
1e-14
1e-14
1e-14
1.00002e-14
1.00001e-14
1e-14
1.00001e-14
1.00002e-14
1.00001e-14
1e-14
1e-14
1.00001e-14
1e-14
1e-14
1.00002e-14
1.00238e-14
1.44903e-14
2.15556e-14
1.00002e-14
1e-14
1.00002e-14
1.00002e-14
1.00001e-14
1.00001e-14
1.00002e-14
1.00002e-14
1.00002e-14
1.00001e-14
1e-14
1.00002e-14
1.00099e-14
1.18668e-14
2.47335e-14
4.85128e-13
5.38009e-13
1.15798e-14
1.40549e-14
1e-14
1.50303e-14
6.69982e-14
3.34127e-13
1.00042e-14
1.00123e-14
1e-14
1.0104e-14
1.02014e-14
1.52322e-14
1.06945e-14
1e-14
1.00001e-14
1.00001e-14
1e-14
1.00001e-14
1.00003e-14
1.00106e-14
1.01772e-14
1.90846e-14
2.80892e-14
1.0838e-12
1.00002e-14
1.00001e-14
1e-14
1e-14
1e-14
1e-14
1e-14
1.00129e-14
1.11785e-14
1e-14
2.76794e-13
1.00002e-14
1e-14
1e-14
1e-14
1e-14
1e-14
1e-14
1e-14
1.00005e-14
1.12563e-14
1e-14
1.7225e-13
1.00003e-14
1e-14
1e-14
1e-14
1e-14
1e-14
1e-14
1e-14
1e-14
1.00006e-14
1.11809e-14
1.265e-14
1.00003e-14
1e-14
1e-14
1e-14
1e-14
1e-14
1e-14
1e-14
1e-14
1e-14
1.0013e-14
1.90875e-14
7.82594e-14
1.00003e-14
1e-14
1e-14
1e-14
1.00001e-14
1.00001e-14
1.00001e-14
1e-14
1e-14
1e-14
1e-14
1.01778e-14
1e-14
5.03613e-14
1.00001e-14
1e-14
1e-14
1e-14
1.00001e-14
1.00001e-14
1e-14
1e-14
1e-14
1e-14
1e-14
1.0011e-14
1.5249e-14
4.78998e-14
1e-14
1e-14
1e-14
1.00001e-14
1.00001e-14
1e-14
1e-14
1.00001e-14
1e-14
1e-14
1e-14
1.00003e-14
1.02031e-14
1.03596e-14
1.45315e-12
1e-14
1e-14
1.00001e-14
1.00001e-14
1e-14
1e-14
1e-14
1.00001e-14
1.00001e-14
1e-14
1e-14
1.00001e-14
1.01047e-14
1e-14
1e-14
1.00001e-14
1e-14
1e-14
1e-14
1.00001e-14
1.00001e-14
1e-14
1.00001e-14
1.00001e-14
1e-14
1e-14
1.00001e-14
1e-14
1e-14
1e-14
1.00003e-14
1e-14
1e-14
1e-14
1.00001e-14
1e-14
1e-14
1e-14
1e-14
1e-14
1e-14
1.00001e-14
1.00126e-14
1.40696e-14
2.07189e-14
1e-14
1e-14
1.00002e-14
1.00001e-14
1e-14
1.00001e-14
1.00001e-14
1.00001e-14
1e-14
1e-14
1e-14
1.00001e-14
1.00048e-14
1.1609e-14
2.44446e-14
4.85773e-13
5.38845e-13
1.15296e-14
1.39434e-14
1e-14
1.50481e-14
6.74481e-14
3.34392e-13
1.00003e-14
1.00022e-14
1e-14
1.00971e-14
1.01932e-14
1.51358e-14
1.07341e-14
1e-14
1.00002e-14
1.00001e-14
1e-14
1e-14
1e-14
1.00056e-14
1.01706e-14
1.88324e-14
2.82211e-14
1.08308e-12
1.00002e-14
1.00001e-14
1e-14
1e-14
1e-14
1e-14
1e-14
1.0008e-14
1.1152e-14
1e-14
2.78518e-13
1.00002e-14
1e-14
1e-14
1e-14
1e-14
1e-14
1e-14
1e-14
1e-14
1.12262e-14
1e-14
1.73567e-13
1.00002e-14
1e-14
1e-14
1e-14
1e-14
1e-14
1e-14
1e-14
1.00001e-14
1e-14
1.1154e-14
1.24881e-14
1.00003e-14
1e-14
1e-14
1e-14
1e-14
1e-14
1e-14
1e-14
1e-14
1e-14
1.00082e-14
1.88357e-14
7.96149e-14
1.00002e-14
1e-14
1e-14
1e-14
1e-14
1.00001e-14
1.00001e-14
1e-14
1e-14
1e-14
1e-14
1.0171e-14
1e-14
5.01528e-14
1.00001e-14
1e-14
1e-14
1e-14
1.00001e-14
1.00001e-14
1e-14
1e-14
1e-14
1e-14
1e-14
1.0006e-14
1.51412e-14
4.82458e-14
1e-14
1e-14
1e-14
1.00001e-14
1.00001e-14
1e-14
1e-14
1.00001e-14
1e-14
1e-14
1e-14
1e-14
1.0194e-14
1.03735e-14
1.44922e-12
1e-14
1e-14
1.00001e-14
1.00001e-14
1e-14
1e-14
1e-14
1.00001e-14
1e-14
1e-14
1e-14
1.00001e-14
1.00976e-14
1e-14
1e-14
1e-14
1e-14
1e-14
1e-14
1.00001e-14
1.00001e-14
1e-14
1.00001e-14
1e-14
1e-14
1e-14
1.00001e-14
1e-14
1e-14
1e-14
1.00002e-14
1e-14
1e-14
1e-14
1.00001e-14
1e-14
1e-14
1e-14
1e-14
1e-14
1e-14
1e-14
1.00024e-14
1.39487e-14
2.06248e-14
1.00002e-14
1e-14
1.00002e-14
1.00002e-14
1.00001e-14
1.00001e-14
1.00001e-14
1.00001e-14
1.00001e-14
1.00001e-14
1.00001e-14
1e-14
1.00006e-14
1.15394e-14
2.45463e-14
4.85697e-13
5.38594e-13
1.14284e-14
1.38564e-14
1e-14
1.50571e-14
6.76905e-14
3.34468e-13
1e-14
1e-14
1e-14
1.00937e-14
1.01849e-14
1.50597e-14
1.07839e-14
1e-14
1.00001e-14
1e-14
1e-14
1e-14
1e-14
1e-14
1.01655e-14
1.8816e-14
2.82721e-14
1.0831e-12
1.00002e-14
1e-14
1e-14
1e-14
1e-14
1e-14
1e-14
1.00004e-14
1.11541e-14
1e-14
2.78258e-13
1.00001e-14
1e-14
1e-14
1e-14
1e-14
1e-14
1e-14
1e-14
1e-14
1.1223e-14
1e-14
1.73123e-13
1.00001e-14
1e-14
1e-14
1e-14
1e-14
1e-14
1e-14
1e-14
1e-14
1e-14
1.11563e-14
1.24648e-14
1.00002e-14
1.00001e-14
1e-14
1e-14
1e-14
1e-14
1e-14
1e-14
1e-14
1e-14
1.00005e-14
1.88187e-14
7.96592e-14
1.00003e-14
1e-14
1e-14
1e-14
1e-14
1.00001e-14
1.00001e-14
1e-14
1e-14
1e-14
1e-14
1.01658e-14
1e-14
4.96332e-14
1.00001e-14
1e-14
1e-14
1e-14
1.00001e-14
1.00001e-14
1e-14
1e-14
1e-14
1e-14
1e-14
1e-14
1.50616e-14
4.81348e-14
1e-14
1e-14
1e-14
1.00001e-14
1e-14
1e-14
1e-14
1.00001e-14
1e-14
1e-14
1e-14
1e-14
1.01851e-14
1.03669e-14
1.448e-12
1e-14
1e-14
1e-14
1e-14
1e-14
1e-14
1e-14
1e-14
1e-14
1e-14
1e-14
1e-14
1.00939e-14
1e-14
1e-14
1e-14
1e-14
1e-14
1e-14
1e-14
1e-14
1e-14
1e-14
1e-14
1e-14
1e-14
1e-14
1e-14
1e-14
1e-14
1.00002e-14
1e-14
1e-14
1e-14
1e-14
1e-14
1e-14
1e-14
1e-14
1e-14
1e-14
1e-14
1e-14
1.38586e-14
2.0409e-14
1.00001e-14
1e-14
1.00002e-14
1.00002e-14
1e-14
1e-14
1.00001e-14
1.00001e-14
1.00001e-14
1.00001e-14
1.00001e-14
1e-14
1e-14
1.14307e-14
2.45382e-14
4.84477e-13
5.3697e-13
1.17223e-14
1.42019e-14
1e-14
1.50799e-14
6.82002e-14
3.34312e-13
1e-14
1e-14
1e-14
1.00958e-14
1.02183e-14
1.52897e-14
1.08819e-14
1e-14
1.00001e-14
1e-14
1e-14
1e-14
1e-14
1e-14
1.01614e-14
1.86225e-14
2.81755e-14
1.08286e-12
1.00001e-14
1e-14
1e-14
1e-14
1e-14
1e-14
1e-14
1e-14
1.1119e-14
1e-14
2.78023e-13
1.00001e-14
1e-14
1e-14
1e-14
1e-14
1e-14
1e-14
1e-14
1e-14
1.1204e-14
1e-14
1.72654e-13
1.00001e-14
1e-14
1e-14
1e-14
1e-14
1e-14
1e-14
1e-14
1e-14
1e-14
1.11215e-14
1.24202e-14
1.00002e-14
1e-14
1e-14
1e-14
1e-14
1e-14
1e-14
1e-14
1e-14
1e-14
1e-14
1.86232e-14
7.9158e-14
1.00003e-14
1e-14
1e-14
1e-14
1e-14
1e-14
1e-14
1e-14
1e-14
1e-14
1e-14
1.01617e-14
1e-14
4.8166e-14
1.00002e-14
1e-14
1e-14
1e-14
1e-14
1e-14
1e-14
1e-14
1e-14
1e-14
1e-14
1e-14
1.52909e-14
4.77647e-14
1.00001e-14
1e-14
1e-14
1e-14
1e-14
1e-14
1e-14
1e-14
1e-14
1e-14
1.00001e-14
1e-14
1.02185e-14
1.03474e-14
1.44592e-12
1e-14
1e-14
1e-14
1e-14
1e-14
1e-14
1e-14
1e-14
1e-14
1e-14
1.00001e-14
1e-14
1.00959e-14
1e-14
1e-14
1.00001e-14
1e-14
1e-14
1e-14
1e-14
1e-14
1e-14
1e-14
1e-14
1.00001e-14
1e-14
1e-14
1e-14
1e-14
1e-14
1.00002e-14
1e-14
1e-14
1e-14
1e-14
1e-14
1e-14
1e-14
1.00001e-14
1.00001e-14
1e-14
1e-14
1e-14
1.42019e-14
1.99701e-14
1.00002e-14
1e-14
1e-14
1e-14
1e-14
1e-14
1.00001e-14
1.00001e-14
1e-14
1.00001e-14
1e-14
1e-14
1e-14
1.17221e-14
2.44896e-14
4.80077e-13
5.31191e-13
1.09644e-14
1.33836e-14
1e-14
1.50846e-14
6.94729e-14
3.33072e-13
1e-14
1e-14
1e-14
1.00814e-14
1.01279e-14
1.45025e-14
1.08831e-14
1e-14
1.00001e-14
1e-14
1e-14
1e-14
1e-14
1e-14
1.01459e-14
1.86917e-14
2.7598e-14
1.08098e-12
1e-14
1e-14
1e-14
1e-14
1e-14
1e-14
1e-14
1e-14
1.12614e-14
1e-14
2.76584e-13
1.00001e-14
1e-14
1e-14
1e-14
1e-14
1e-14
1e-14
1e-14
1e-14
1.12741e-14
1e-14
1.70816e-13
1.00001e-14
1e-14
1e-14
1e-14
1e-14
1e-14
1e-14
1e-14
1e-14
1e-14
1.12639e-14
1.22477e-14
1.00002e-14
1.00001e-14
1e-14
1e-14
1e-14
1e-14
1e-14
1e-14
1e-14
1e-14
1e-14
1.86938e-14
7.75768e-14
1.00001e-14
1e-14
1e-14
1e-14
1e-14
1e-14
1e-14
1e-14
1e-14
1e-14
1e-14
1.01462e-14
1e-14
4.31786e-14
1e-14
1e-14
1e-14
1e-14
1.00001e-14
1.00001e-14
1e-14
1e-14
1e-14
1.00001e-14
1.00001e-14
1e-14
1.45031e-14
4.66907e-14
1.00001e-14
1e-14
1e-14
1e-14
1.00001e-14
1.00001e-14
1e-14
1e-14
1e-14
1.00001e-14
1.00001e-14
1e-14
1.01279e-14
1.02572e-14
1.43905e-12
1e-14
1e-14
1e-14
1e-14
1e-14
1e-14
1e-14
1e-14
1e-14
1.00001e-14
1.00001e-14
1e-14
1.00815e-14
1e-14
1e-14
1.00001e-14
1e-14
1e-14
1e-14
1e-14
1e-14
1e-14
1e-14
1.00001e-14
1.00001e-14
1e-14
1e-14
1e-14
1e-14
1e-14
1e-14
1e-14
1e-14
1e-14
1e-14
1e-14
1e-14
1.00001e-14
1.00001e-14
1e-14
1e-14
1e-14
1e-14
1.33851e-14
1.8496e-14
1.00003e-14
1e-14
1e-14
1e-14
1.00002e-14
1.00002e-14
1.00001e-14
1.00001e-14
1e-14
1e-14
1e-14
1e-14
1e-14
1.09617e-14
2.34093e-14
4.5407e-13
5.04059e-13
1.34373e-14
1.70424e-14
1e-14
1.25224e-14
6.30976e-14
3.23429e-13
1e-14
1e-14
1e-14
1.01228e-14
1.04287e-14
1.75129e-14
1.2279e-14
1e-14
1e-14
1e-14
1e-14
1e-14
1e-14
1e-14
1.01346e-14
1.98984e-14
2.66697e-14
1.07729e-12
1e-14
1e-14
1e-14
1e-14
1e-14
1e-14
1e-14
1e-14
1.09247e-14
1e-14
2.76032e-13
1e-14
1e-14
1e-14
1e-14
1e-14
1e-14
1e-14
1e-14
1e-14
1.10421e-14
1e-14
1.63452e-13
1.00001e-14
1e-14
1e-14
1e-14
1e-14
1e-14
1e-14
1e-14
1e-14
1e-14
1.09307e-14
1.33398e-14
1.00001e-14
1e-14
1e-14
1e-14
1e-14
1e-14
1e-14
1e-14
1e-14
1e-14
1e-14
1.98993e-14
9.45832e-14
1.00001e-14
1e-14
1e-14
1.00001e-14
1e-14
1e-14
1e-14
1e-14
1e-14
1e-14
1e-14
1.01352e-14
1e-14
1.00114e-14
1e-14
1e-14
1e-14
1.00001e-14
1e-14
1e-14
1e-14
1e-14
1e-14
1.00001e-14
1.00001e-14
1e-14
1.75149e-14
4.12881e-14
1e-14
1e-14
1e-14
1.00001e-14
1e-14
1e-14
1e-14
1e-14
1.00001e-14
1.00001e-14
1.00001e-14
1e-14
1.04289e-14
1.01087e-14
1.44556e-12
1e-14
1e-14
1e-14
1e-14
1e-14
1e-14
1e-14
1e-14
1.00001e-14
1e-14
1e-14
1e-14
1.01229e-14
1e-14
1e-14
1e-14
1e-14
1e-14
1e-14
1e-14
1e-14
1e-14
1.00001e-14
1e-14
1e-14
1e-14
1.00001e-14
1e-14
1e-14
1e-14
1e-14
1e-14
1e-14
1e-14
1e-14
1.00001e-14
1.00001e-14
1e-14
1e-14
1e-14
1.00001e-14
1.00001e-14
1e-14
1.70339e-14
1.61603e-14
1.00002e-14
1e-14
1e-14
1e-14
1.00001e-14
1.00001e-14
1.00001e-14
1.00001e-14
1e-14
1.00001e-14
1.00001e-14
1e-14
1e-14
1.34376e-14
1.30464e-14
9.39324e-14
7.80853e-14
1.1379e-14
1.21322e-14
1e-14
1.32367e-14
3.98913e-14
8.51013e-14
1e-14
1e-14
1e-14
1.00383e-14
1.01517e-14
1.16568e-14
1.18256e-14
5.52995e-14
1e-14
1e-14
1e-14
1e-14
1e-14
1e-14
1.00235e-14
1.22582e-14
2.05227e-14
1e-14
1e-14
1e-14
1e-14
1e-14
1e-14
1e-14
1e-14
1e-14
1.01981e-14
1e-14
1e-14
1.00001e-14
1e-14
1e-14
1e-14
1e-14
1e-14
1e-14
1.00001e-14
1e-14
1.02407e-14
1.00077e-14
1e-14
1.00001e-14
1e-14
1e-14
1.00001e-14
1e-14
1e-14
1e-14
1e-14
1e-14
1e-14
1.01994e-14
1e-14
1.00001e-14
1e-14
1.00001e-14
1e-14
1e-14
1e-14
1e-14
1e-14
1e-14
1e-14
1e-14
1.22583e-14
4.50891e-14
1e-14
1e-14
1e-14
1e-14
1e-14
1e-14
1e-14
1e-14
1e-14
1e-14
1e-14
1.00238e-14
1.0207e-14
1e-14
1e-14
1e-14
1e-14
1e-14
1e-14
1e-14
1e-14
1e-14
1.00001e-14
1.00001e-14
1e-14
1e-14
1.16576e-14
3.90288e-14
1e-14
1e-14
1e-14
1e-14
1e-14
1e-14
1e-14
1.00001e-14
1.00001e-14
1e-14
1e-14
1e-14
1.01519e-14
1e-14
1e-14
1e-14
1e-14
1e-14
1e-14
1e-14
1e-14
1e-14
1.00001e-14
1e-14
1e-14
1e-14
1e-14
1.00383e-14
1.00048e-14
1.05692e-13
1e-14
1e-14
1e-14
1e-14
1e-14
1e-14
1.00001e-14
1e-14
1e-14
1e-14
1e-14
1.00001e-14
1e-14
1e-14
2.25407e-14
1e-14
1e-14
1e-14
1.00001e-14
1.00001e-14
1.00001e-14
1.00001e-14
1e-14
1e-14
1e-14
1.00001e-14
1.00001e-14
1e-14
1.21289e-14
2.86221e-14
1e-14
1e-14
1.00001e-14
1.00001e-14
1.00002e-14
1.00001e-14
1.00001e-14
1e-14
1e-14
1.00002e-14
1.00001e-14
1e-14
1e-14
1.13794e-14
1.06369e-14
1.28832e-14
1.13223e-14
1.01662e-14
1.04401e-14
1.06646e-14
1e-14
1.00509e-14
1.09689e-14
1.15884e-14
1e-14
1e-14
1e-14
1.00106e-14
1.00481e-14
1.04229e-14
1.01272e-14
1.04972e-14
1e-14
1e-14
1e-14
1e-14
1e-14
1e-14
1.00031e-14
1.05873e-14
1.0648e-14
1.0035e-14
1e-14
1e-14
1e-14
1e-14
1e-14
1e-14
1e-14
1e-14
1.00334e-14
1e-14
1.00087e-14
1e-14
1e-14
1e-14
1.00001e-14
1e-14
1e-14
1e-14
1.00001e-14
1e-14
1.00503e-14
1e-14
1.00318e-14
1e-14
1e-14
1e-14
1e-14
1e-14
1e-14
1e-14
1e-14
1e-14
1e-14
1.00337e-14
1e-14
1e-14
1e-14
1e-14
1e-14
1e-14
1e-14
1e-14
1e-14
1e-14
1e-14
1e-14
1.05874e-14
1.15964e-14
1e-14
1e-14
1e-14
1e-14
1e-14
1e-14
1e-14
1e-14
1e-14
1e-14
1e-14
1.00031e-14
1e-14
1.00073e-14
1e-14
1e-14
1e-14
1e-14
1e-14
1e-14
1e-14
1e-14
1.00001e-14
1e-14
1e-14
1e-14
1.04231e-14
1.13697e-14
1e-14
1e-14
1e-14
1e-14
1e-14
1e-14
1e-14
1.00001e-14
1.00001e-14
1e-14
1e-14
1e-14
1.00482e-14
1e-14
1e-14
1e-14
1e-14
1e-14
1e-14
1e-14
1.00001e-14
1e-14
1e-14
1e-14
1.00001e-14
1e-14
1.00107e-14
1.00511e-14
1.19311e-14
1e-14
1e-14
1e-14
1e-14
1e-14
1e-14
1e-14
1e-14
1e-14
1e-14
1.00001e-14
1.00001e-14
1.00001e-14
1e-14
1.03566e-14
1e-14
1e-14
1e-14
1e-14
1e-14
1.00001e-14
1e-14
1e-14
1e-14
1e-14
1.00001e-14
1.00001e-14
1e-14
1.06633e-14
1.11797e-14
1.00001e-14
1e-14
1e-14
1.00001e-14
1.00002e-14
1e-14
1e-14
1e-14
1e-14
1.00002e-14
1.00001e-14
1e-14
1e-14
1.04405e-14
1e-14
1.00735e-14
1.00271e-14
1.00015e-14
1.0119e-14
1.01846e-14
1.00017e-14
1.00052e-14
1.0024e-14
1.00227e-14
1e-14
1e-14
1e-14
1.0003e-14
1.00124e-14
1.00972e-14
1.00098e-14
1.00078e-14
1e-14
1e-14
1e-14
1e-14
1e-14
1e-14
1.00005e-14
1.01361e-14
1.00278e-14
1.00005e-14
1e-14
1e-14
1e-14
1e-14
1e-14
1e-14
1e-14
1e-14
1.00048e-14
1.00036e-14
1e-14
1e-14
1e-14
1e-14
1e-14
1e-14
1e-14
1e-14
1.00001e-14
1e-14
1.00094e-14
1.00037e-14
1.00001e-14
1e-14
1e-14
1e-14
1e-14
1e-14
1e-14
1e-14
1e-14
1e-14
1e-14
1.00049e-14
1.00007e-14
1e-14
1e-14
1e-14
1e-14
1e-14
1e-14
1e-14
1e-14
1e-14
1e-14
1e-14
1.01362e-14
1.00479e-14
1e-14
1e-14
1e-14
1e-14
1e-14
1e-14
1e-14
1e-14
1e-14
1e-14
1e-14
1.00006e-14
1e-14
1.00002e-14
1e-14
1e-14
1e-14
1e-14
1e-14
1e-14
1e-14
1e-14
1e-14
1e-14
1e-14
1e-14
1.00972e-14
1.00493e-14
1e-14
1e-14
1e-14
1e-14
1e-14
1e-14
1e-14
1.00001e-14
1e-14
1e-14
1.00001e-14
1e-14
1.00125e-14
1.0001e-14
1e-14
1e-14
1e-14
1e-14
1e-14
1e-14
1e-14
1e-14
1e-14
1e-14
1e-14
1e-14
1.0003e-14
1.00053e-14
1.00446e-14
1e-14
1e-14
1e-14
1e-14
1e-14
1e-14
1e-14
1e-14
1e-14
1e-14
1.00001e-14
1.00001e-14
1e-14
1.00016e-14
1.00078e-14
1e-14
1e-14
1e-14
1e-14
1e-14
1e-14
1e-14
1e-14
1e-14
1e-14
1.00001e-14
1.00001e-14
1e-14
1.01841e-14
1.0052e-14
1.00002e-14
1e-14
1e-14
1e-14
1.00001e-14
1e-14
1e-14
1e-14
1e-14
1.00001e-14
1e-14
1e-14
1e-14
1.01192e-14
1.00095e-14
1.00019e-14
1.00008e-14
1.00001e-14
1.00284e-14
1.00449e-14
1.00006e-14
1.00006e-14
1.00003e-14
1.00003e-14
1e-14
1e-14
1e-14
1.00007e-14
1.00028e-14
1.00196e-14
1.00017e-14
1.00002e-14
1e-14
1e-14
1e-14
1e-14
1e-14
1e-14
1.00001e-14
1.00268e-14
1.00018e-14
1.00001e-14
1e-14
1e-14
1e-14
1e-14
1e-14
1e-14
1e-14
1e-14
1.00006e-14
1.00004e-14
1e-14
1e-14
1e-14
1e-14
1e-14
1e-14
1e-14
1e-14
1e-14
1e-14
1.00018e-14
1.00006e-14
1e-14
1e-14
1e-14
1e-14
1e-14
1e-14
1e-14
1e-14
1e-14
1e-14
1e-14
1.00007e-14
1.00002e-14
1e-14
1e-14
1e-14
1e-14
1e-14
1e-14
1e-14
1e-14
1e-14
1e-14
1e-14
1.00269e-14
1.0002e-14
1e-14
1e-14
1e-14
1e-14
1e-14
1e-14
1e-14
1e-14
1e-14
1e-14
1e-14
1.00002e-14
1e-14
1e-14
1e-14
1e-14
1e-14
1e-14
1e-14
1e-14
1e-14
1e-14
1e-14
1e-14
1e-14
1e-14
1.00196e-14
1.00016e-14
1e-14
1e-14
1e-14
1e-14
1e-14
1e-14
1e-14
1e-14
1e-14
1e-14
1e-14
1e-14
1.00028e-14
1.00003e-14
1e-14
1e-14
1e-14
1e-14
1e-14
1e-14
1e-14
1e-14
1e-14
1e-14
1e-14
1e-14
1.00008e-14
1.00007e-14
1.00005e-14
1e-14
1e-14
1e-14
1e-14
1e-14
1e-14
1e-14
1e-14
1e-14
1e-14
1e-14
1e-14
1e-14
1.00006e-14
1.00001e-14
1e-14
1e-14
1e-14
1e-14
1e-14
1e-14
1e-14
1e-14
1e-14
1e-14
1e-14
1e-14
1e-14
1.00448e-14
1.00043e-14
1.00002e-14
1e-14
1.00001e-14
1.00001e-14
1e-14
1e-14
1e-14
1e-14
1e-14
1.00001e-14
1e-14
1e-14
1e-14
1.00286e-14
1.00025e-14
1.00001e-14
1.00001e-14
1e-14
1.00062e-14
1.00098e-14
1.00001e-14
1.00001e-14
1e-14
1e-14
1e-14
1e-14
1e-14
1.00001e-14
1.00005e-14
1.00035e-14
1.00004e-14
1.00004e-14
1e-14
1e-14
1e-14
1e-14
1e-14
1e-14
1e-14
1.00046e-14
1.00002e-14
1.00001e-14
1e-14
1e-14
1e-14
1e-14
1e-14
1e-14
1e-14
1e-14
1e-14
1.00001e-14
1e-14
1e-14
1e-14
1e-14
1e-14
1e-14
1e-14
1.00001e-14
1e-14
1e-14
1.00004e-14
1.00001e-14
1e-14
1e-14
1e-14
1e-14
1e-14
1e-14
1.00001e-14
1e-14
1e-14
1e-14
1e-14
1.00001e-14
1e-14
1e-14
1e-14
1e-14
1e-14
1e-14
1e-14
1e-14
1e-14
1.00001e-14
1e-14
1e-14
1.00047e-14
1.00003e-14
1e-14
1e-14
1e-14
1e-14
1e-14
1e-14
1e-14
1e-14
1e-14
1e-14
1e-14
1.00001e-14
1e-14
1e-14
1e-14
1e-14
1e-14
1e-14
1e-14
1e-14
1e-14
1e-14
1e-14
1e-14
1e-14
1e-14
1.00035e-14
1.00002e-14
1e-14
1e-14
1e-14
1e-14
1e-14
1e-14
1e-14
1e-14
1e-14
1e-14
1e-14
1e-14
1.00006e-14
1e-14
1e-14
1.00001e-14
1e-14
1e-14
1e-14
1e-14
1e-14
1e-14
1e-14
1e-14
1e-14
1e-14
1.00002e-14
1.00002e-14
1e-14
1.00001e-14
1.00001e-14
1e-14
1e-14
1e-14
1e-14
1e-14
1e-14
1e-14
1e-14
1e-14
1e-14
1e-14
1.00001e-14
1.00002e-14
1.00001e-14
1e-14
1e-14
1e-14
1e-14
1e-14
1e-14
1e-14
1e-14
1e-14
1e-14
1e-14
1e-14
1.00098e-14
1.00008e-14
1.00003e-14
1.00001e-14
1.00001e-14
1.00001e-14
1e-14
1e-14
1.00001e-14
1.00001e-14
1e-14
1e-14
1e-14
1e-14
1e-14
1.00062e-14
1.00005e-14
1e-14
1e-14
1e-14
1.00012e-14
1.00019e-14
1e-14
1e-14
1e-14
1e-14
1e-14
1e-14
1e-14
1e-14
1.00001e-14
1.00006e-14
1e-14
1e-14
1e-14
1e-14
1e-14
1e-14
1e-14
1e-14
1.00001e-14
1.00007e-14
1e-14
1e-14
1e-14
1e-14
1e-14
1e-14
1e-14
1.00001e-14
1.00001e-14
1.00001e-14
1e-14
1e-14
1e-14
1e-14
1e-14
1e-14
1e-14
1.00001e-14
1.00001e-14
1.00001e-14
1e-14
1e-14
1.00001e-14
1.00001e-14
1e-14
1e-14
1.00001e-14
1e-14
1e-14
1e-14
1e-14
1e-14
1e-14
1e-14
1.00001e-14
1e-14
1e-14
1e-14
1e-14
1e-14
1e-14
1e-14
1e-14
1e-14
1e-14
1e-14
1.00001e-14
1e-14
1.00008e-14
1.00002e-14
1e-14
1e-14
1e-14
1e-14
1e-14
1e-14
1e-14
1e-14
1e-14
1e-14
1e-14
1.00001e-14
1.00002e-14
1.00002e-14
1e-14
1e-14
1e-14
1e-14
1e-14
1e-14
1e-14
1e-14
1e-14
1e-14
1e-14
1e-14
1.00005e-14
1e-14
1e-14
1e-14
1e-14
1e-14
1e-14
1e-14
1e-14
1e-14
1e-14
1e-14
1e-14
1e-14
1.00001e-14
1e-14
1.00001e-14
1.00001e-14
1e-14
1e-14
1e-14
1e-14
1e-14
1e-14
1e-14
1e-14
1e-14
1e-14
1.00001e-14
1e-14
1e-14
1.00002e-14
1.00001e-14
1e-14
1e-14
1e-14
1e-14
1e-14
1e-14
1e-14
1e-14
1e-14
1e-14
1e-14
1e-14
1.00002e-14
1.00001e-14
1e-14
1e-14
1e-14
1e-14
1e-14
1e-14
1e-14
1e-14
1e-14
1e-14
1e-14
1e-14
1.00019e-14
1e-14
1.00003e-14
1.00001e-14
1.00001e-14
1.00001e-14
1.00001e-14
1e-14
1e-14
1e-14
1e-14
1e-14
1.00001e-14
1.00001e-14
1e-14
1.00012e-14
1.00001e-14
1e-14
1e-14
1e-14
1.00002e-14
1.00004e-14
1e-14
1e-14
1e-14
1e-14
1.00001e-14
1e-14
1e-14
1e-14
1e-14
1.00001e-14
1.00001e-14
1e-14
1.00001e-14
1e-14
1e-14
1e-14
1e-14
1e-14
1e-14
1.00001e-14
1e-14
1.00001e-14
1.00001e-14
1e-14
1e-14
1.00001e-14
1e-14
1.00001e-14
1e-14
1e-14
1e-14
1.00001e-14
1e-14
1.00001e-14
1.00001e-14
1e-14
1e-14
1.00001e-14
1.00001e-14
1e-14
1e-14
1e-14
1.00001e-14
1.00001e-14
1e-14
1.00002e-14
1e-14
1e-14
1e-14
1.00001e-14
1e-14
1e-14
1.00001e-14
1.00001e-14
1e-14
1.00001e-14
1e-14
1.00001e-14
1e-14
1e-14
1e-14
1e-14
1e-14
1e-14
1.00001e-14
1.00001e-14
1.00001e-14
1.00001e-14
1.00002e-14
1e-14
1.00001e-14
1e-14
1e-14
1e-14
1e-14
1e-14
1.00001e-14
1.00001e-14
1.00001e-14
1e-14
1e-14
1e-14
1e-14
1.00002e-14
1.00001e-14
1e-14
1e-14
1e-14
1e-14
1e-14
1e-14
1e-14
1e-14
1e-14
1e-14
1e-14
1.00001e-14
1e-14
1.00002e-14
1.00001e-14
1.00001e-14
1e-14
1e-14
1e-14
1e-14
1e-14
1e-14
1e-14
1e-14
1e-14
1e-14
1e-14
1.00001e-14
1e-14
1e-14
1e-14
1e-14
1e-14
1e-14
1e-14
1e-14
1e-14
1e-14
1e-14
1.00001e-14
1e-14
1e-14
1.00001e-14
1e-14
1e-14
1e-14
1e-14
1e-14
1e-14
1e-14
1e-14
1e-14
1e-14
1.00001e-14
1.00001e-14
1e-14
1e-14
1.00002e-14
1e-14
1e-14
1e-14
1e-14
1e-14
1e-14
1e-14
1e-14
1e-14
1.00001e-14
1.00001e-14
1.00001e-14
1.00004e-14
1e-14
1.00006e-14
1.00001e-14
1.00001e-14
1e-14
1e-14
1e-14
1e-14
1e-14
1.00001e-14
1.00002e-14
1.00001e-14
1e-14
1e-14
1.00003e-14
1e-14
1.00003e-14
1e-14
1e-14
1.00001e-14
1.00001e-14
1e-14
1e-14
1.00001e-14
1e-14
1.00002e-14
1e-14
1.00001e-14
1e-14
1e-14
1e-14
1e-14
1e-14
1e-14
1e-14
1e-14
1e-14
1.00001e-14
1.00001e-14
1e-14
1e-14
1e-14
1.00001e-14
1e-14
1e-14
1e-14
1e-14
1.00001e-14
1.00001e-14
1.00001e-14
1.00001e-14
1e-14
1.00001e-14
1e-14
1e-14
1e-14
1e-14
1e-14
1.00001e-14
1.00001e-14
1e-14
1.00001e-14
1.00001e-14
1.00001e-14
1.00002e-14
1.00002e-14
1e-14
1.00001e-14
1e-14
1e-14
1e-14
1.00001e-14
1e-14
1.00001e-14
1.00001e-14
1.00001e-14
1.00001e-14
1.00001e-14
1e-14
1e-14
1e-14
1e-14
1e-14
1e-14
1.00001e-14
1.00001e-14
1.00001e-14
1.00001e-14
1e-14
1e-14
1e-14
1.00001e-14
1e-14
1e-14
1e-14
1.00001e-14
1.00001e-14
1e-14
1.00001e-14
1.00001e-14
1e-14
1e-14
1e-14
1e-14
1.00001e-14
1.00001e-14
1e-14
1e-14
1e-14
1e-14
1e-14
1e-14
1e-14
1e-14
1e-14
1e-14
1e-14
1.00001e-14
1e-14
1e-14
1e-14
1e-14
1e-14
1e-14
1e-14
1e-14
1e-14
1e-14
1.00001e-14
1e-14
1e-14
1e-14
1e-14
1e-14
1e-14
1e-14
1e-14
1e-14
1e-14
1e-14
1e-14
1e-14
1e-14
1e-14
1e-14
1e-14
1e-14
1e-14
1e-14
1e-14
1.00001e-14
1e-14
1e-14
1e-14
1e-14
1.00001e-14
1e-14
1e-14
1e-14
1e-14
1e-14
1e-14
1e-14
1e-14
1e-14
1.00001e-14
1e-14
1e-14
1e-14
1e-14
1e-14
1e-14
1e-14
1e-14
1e-14
1e-14
1.00001e-14
1e-14
1.00005e-14
1.00002e-14
1.00002e-14
1.00002e-14
1e-14
1e-14
1e-14
1e-14
1e-14
1.00001e-14
1e-14
1e-14
1e-14
1e-14
1.00001e-14
7.32232e-13
7.81353e-13
4.03596e-14
4.49372e-14
8.24477e-13
5.51794e-14
7.7577e-14
1.35851e-13
1.79851e-14
1.21316e-14
1.50667e-13
2.0354e-13
1.71254e-12
9.43976e-14
8.03728e-14
1.75803e-14
1.01245e-14
4.9312e-13
3.39442e-14
1.24691e-13
1.02432e-14
5.95547e-13
1.47838e-12
2.52121e-14
1.00023e-13
1.05057e-14
1.60264e-14
2.13149e-13
2.28146e-14
2.09269e-13
1e-14
5.87041e-14
6.18513e-13
1.11217e-14
3.08814e-14
1.54326e-12
1.87239e-13
1.29734e-12
1.35755e-12
1.70198e-13
1.3614e-12
1.29891e-12
1.87339e-13
1.54352e-12
3.09058e-14
6.18457e-13
1.11257e-14
5.87141e-14
1e-14
2.09325e-13
2.2856e-14
2.13854e-13
1.47667e-12
1.6074e-14
1.0087e-13
1.05586e-14
2.60339e-14
5.96145e-13
1.16465e-14
1.20816e-13
3.38781e-14
4.94606e-13
1.02106e-14
8.01916e-14
1.72677e-14
9.16241e-14
1.71343e-12
1.84318e-13
1.47547e-13
1.14293e-14
1.84138e-14
1.36004e-13
7.61326e-14
5.45014e-14
8.2823e-13
4.452e-14
7.84781e-13
3.97436e-14
7.3513e-13
4.96149e-13
2.26365e-14
2.46542e-14
7.21181e-13
7.71091e-13
3.64701e-14
4.09353e-14
3.52129e-14
2.16123e-14
8.14602e-13
4.97737e-14
6.83046e-14
6.37129e-14
1e-14
1.21344e-13
1.64132e-14
1.0649e-14
1e-14
1.16247e-14
1.36815e-13
1e-14
1.44892e-12
1.75517e-13
1.69919e-12
1e-14
1e-14
1.02446e-14
8.22728e-14
7.42331e-14
1.51378e-14
1.02217e-14
2.3883e-14
4.99552e-14
4.88961e-13
3.11685e-14
1.12617e-13
1.16138e-14
3.41929e-14
1.27666e-14
6.01219e-13
9.83763e-13
1.46805e-12
6.92614e-14
1.05967e-14
1e-14
2.34815e-14
9.20484e-14
1.03316e-14
1.49972e-14
1.80245e-14
7.47436e-14
2.03434e-13
2.16863e-14
1.93947e-13
1e-14
1e-14
3.98255e-13
1.05905e-14
1.32492e-14
5.52363e-14
6.06253e-13
1.06258e-14
2.75612e-14
7.1815e-14
1.39545e-13
1.52269e-12
1.7151e-13
1.32569e-12
5.73173e-14
2.40533e-13
1.37972e-12
1.54779e-13
1.38387e-12
7.18401e-14
1.08052e-12
1.32709e-12
1.71649e-13
1.52268e-12
3.98164e-13
1.05899e-14
2.86694e-14
2.75852e-14
6.06252e-13
1.06302e-14
5.52343e-14
1e-14
1e-14
1.80168e-14
1e-14
1.93947e-13
2.16708e-14
2.03023e-13
9.84909e-13
1.46828e-12
6.95473e-14
1.06098e-14
1.10259e-14
1.50387e-14
9.22977e-14
1.03392e-14
2.36017e-14
1.08931e-14
6.01473e-13
1.27453e-14
2.40287e-14
3.3229e-13
1.13097e-13
3.14391e-14
4.89523e-13
1e-14
1e-14
6.93245e-14
1.02111e-14
7.43101e-14
1.52568e-14
8.31184e-14
1e-14
1.69992e-12
1.76912e-13
1.07509e-14
1.37918e-13
1.15878e-14
6.51179e-14
1.65159e-14
1.22611e-13
3.51358e-14
5.35844e-13
6.88336e-14
5.00097e-14
8.1517e-13
5.03039e-13
2.26801e-14
4.85691e-13
4.11576e-14
7.71702e-13
3.67275e-14
7.22411e-13
5.03298e-13
2.23515e-14
2.43578e-14
7.21018e-13
7.70551e-13
3.62716e-14
4.07321e-14
3.40404e-14
2.05847e-14
8.14678e-13
4.95039e-14
6.75967e-14
6.55077e-14
1e-14
1.20806e-13
1.6295e-14
1.05859e-14
1e-14
1.14949e-14
1.3758e-13
1e-14
1.45339e-12
1.77332e-13
1.70044e-12
1e-14
1e-14
1.03648e-14
8.17939e-14
7.2462e-14
1.48747e-14
1.01796e-14
2.34536e-14
4.76022e-14
4.89707e-13
3.10551e-14
1.12657e-13
1.01976e-14
5.06343e-14
1.35265e-14
5.97847e-13
9.96826e-13
1.46872e-12
6.89858e-14
1.05344e-14
1e-14
2.3639e-14
9.25138e-14
1.03112e-14
1.47078e-14
1.76408e-14
7.82621e-14
2.06515e-13
2.1426e-14
1.93391e-13
1e-14
1e-14
4.00945e-13
1.05722e-14
1.26498e-14
5.57458e-14
6.0636e-13
1.06514e-14
2.69275e-14
7.43425e-14
1.73261e-13
1.52518e-12
1.69633e-13
1.31573e-12
5.91157e-14
2.76387e-13
1.37012e-12
1.53581e-13
1.37416e-12
7.43668e-14
1.08371e-12
1.31705e-12
1.69768e-13
1.52512e-12
4.00924e-13
1.0572e-14
2.80903e-14
2.69506e-14
6.06364e-13
1.06538e-14
5.57392e-14
1e-14
1e-14
1.76371e-14
1e-14
1.93434e-13
2.14289e-14
2.06445e-13
9.96868e-13
1.46913e-12
6.91122e-14
1.05355e-14
1.07255e-14
1.47119e-14
9.25612e-14
1.03127e-14
2.36554e-14
1.02302e-14
5.97881e-13
1.3513e-14
2.35578e-14
3.34085e-13
1.1281e-13
3.11083e-14
4.89701e-13
1e-14
1e-14
6.73786e-14
1.01763e-14
7.24346e-14
1.4888e-14
8.19754e-14
1e-14
1.70121e-12
1.77437e-13
1.06011e-14
1.37693e-13
1.1498e-14
6.5955e-14
1.6316e-14
1.21002e-13
3.41288e-14
5.38136e-13
6.76955e-14
4.9542e-14
8.14498e-13
5.03535e-13
2.24481e-14
4.85721e-13
4.07461e-14
7.70595e-13
3.6332e-14
7.21505e-13
5.03995e-13
2.25305e-14
2.45386e-14
7.21188e-13
7.70527e-13
3.6377e-14
4.08583e-14
3.4143e-14
2.05936e-14
8.14652e-13
4.96722e-14
6.7695e-14
6.66661e-14
1e-14
1.21226e-13
1.6281e-14
1.0584e-14
1e-14
1.14774e-14
1.37525e-13
1e-14
1.44935e-12
1.77672e-13
1.70074e-12
1e-14
1e-14
1.03743e-14
8.20311e-14
7.20768e-14
1.48458e-14
1.01695e-14
2.35743e-14
4.82037e-14
4.9016e-13
3.11828e-14
1.13065e-13
1.01317e-14
5.02817e-14
1.36499e-14
5.9628e-13
9.98472e-13
1.46925e-12
6.97006e-14
1.05162e-14
1e-14
2.377e-14
9.29087e-14
1.03007e-14
1.46432e-14
1.75833e-14
7.96112e-14
2.08388e-13
2.14109e-14
1.93488e-13
1e-14
1e-14
4.01567e-13
1.05642e-14
1.24876e-14
5.59273e-14
6.06512e-13
1.06457e-14
2.68843e-14
7.56196e-14
1.74695e-13
1.52551e-12
1.69526e-13
1.31334e-12
6.01266e-14
2.78062e-13
1.36778e-12
1.53579e-13
1.37185e-12
7.56443e-14
1.08301e-12
1.31476e-12
1.69656e-13
1.52563e-12
4.01509e-13
1.05634e-14
2.82149e-14
2.69076e-14
6.06487e-13
1.06479e-14
5.59289e-14
1e-14
1e-14
1.75832e-14
1e-14
1.93518e-13
2.14154e-14
2.08364e-13
9.98704e-13
1.4693e-12
6.97307e-14
1.05168e-14
1.07376e-14
1.4646e-14
9.29236e-14
1.03019e-14
2.37749e-14
1.01371e-14
5.96274e-13
1.36454e-14
2.35875e-14
3.34388e-13
1.13093e-13
3.11921e-14
4.90161e-13
1e-14
1e-14
6.75108e-14
1.01686e-14
7.20686e-14
1.48493e-14
8.20674e-14
1e-14
1.70096e-12
1.77685e-13
1.05899e-14
1.37554e-13
1.14733e-14
6.67417e-14
1.62828e-14
1.21275e-13
3.41599e-14
5.38978e-13
6.77393e-14
4.96735e-14
8.1463e-13
5.04043e-13
2.25483e-14
4.86251e-13
4.0835e-14
7.70491e-13
3.64028e-14
7.21411e-13
5.03638e-13
2.25317e-14
2.45434e-14
7.21061e-13
7.70776e-13
3.64945e-14
4.10237e-14
3.41617e-14
2.03991e-14
8.1498e-13
4.99432e-14
6.81216e-14
6.70801e-14
1e-14
1.21926e-13
1.62721e-14
1.05796e-14
1e-14
1.14917e-14
1.37301e-13
1e-14
1.44797e-12
1.77699e-13
1.70055e-12
1e-14
1e-14
1.03676e-14
8.22749e-14
7.15198e-14
1.48311e-14
1.0162e-14
2.35955e-14
4.81017e-14
4.90859e-13
3.12765e-14
1.13276e-13
1.01048e-14
4.96649e-14
1.37607e-14
5.9498e-13
9.98983e-13
1.46944e-12
6.98344e-14
1.05052e-14
1e-14
2.38506e-14
9.30116e-14
1.02863e-14
1.45791e-14
1.75553e-14
7.96505e-14
2.10086e-13
2.14053e-14
1.93247e-13
1e-14
1e-14
4.01779e-13
1.05567e-14
1.24657e-14
5.59334e-14
6.06473e-13
1.06337e-14
2.68681e-14
7.57833e-14
1.74177e-13
1.52549e-12
1.69558e-13
1.31299e-12
6.02638e-14
2.77838e-13
1.36728e-12
1.53648e-13
1.37132e-12
7.58277e-14
1.08301e-12
1.31432e-12
1.69694e-13
1.5256e-12
4.01729e-13
1.05563e-14
2.8271e-14
2.68938e-14
6.06487e-13
1.06356e-14
5.59352e-14
1e-14
1e-14
1.75564e-14
1e-14
1.9327e-13
2.14095e-14
2.10081e-13
9.98726e-13
1.46941e-12
6.98423e-14
1.05054e-14
1.0785e-14
1.45818e-14
9.30266e-14
1.02869e-14
2.38542e-14
1.01074e-14
5.94946e-13
1.3758e-14
2.3598e-14
3.34464e-13
1.13296e-13
3.12798e-14
4.90879e-13
1e-14
1e-14
6.77072e-14
1.0162e-14
7.15309e-14
1.48312e-14
8.22824e-14
1e-14
1.70043e-12
1.77656e-13
1.05811e-14
1.37294e-13
1.149e-14
6.70887e-14
1.62756e-14
1.21935e-13
3.41591e-14
5.38728e-13
6.81346e-14
4.99302e-14
8.1482e-13
5.03776e-13
2.25394e-14
4.86025e-13
4.09866e-14
7.70698e-13
3.65114e-14
7.21559e-13
5.02593e-13
2.24885e-14
2.44993e-14
7.21324e-13
7.7145e-13
3.6749e-14
4.14402e-14
3.41703e-14
1.99667e-14
8.14895e-13
5.06936e-14
6.94854e-14
6.78698e-14
1e-14
1.23356e-13
1.64185e-14
1.05539e-14
1e-14
1.16701e-14
1.37223e-13
1e-14
1.44585e-12
1.78299e-13
1.69999e-12
1e-14
1e-14
1.03472e-14
8.31622e-14
7.01607e-14
1.47981e-14
1.0147e-14
2.35771e-14
4.77539e-14
4.92749e-13
3.14665e-14
1.13808e-13
1.00711e-14
4.81956e-14
1.39149e-14
5.93005e-13
9.9885e-13
1.46954e-12
6.98573e-14
1.05141e-14
1e-14
2.39444e-14
9.33139e-14
1.02652e-14
1.45134e-14
1.74252e-14
7.91321e-14
2.12369e-13
2.14773e-14
1.93191e-13
1e-14
1e-14
4.02e-13
1.05158e-14
1.24212e-14
5.60131e-14
6.06358e-13
1.06183e-14