/*--------------------------------*- C++ -*----------------------------------*\
| =========                 |                                                 |
| \\      /  F ield         | OpenFOAM: The Open Source CFD Toolbox           |
|  \\    /   O peration     | Version:  2.1.1                                 |
|   \\  /    A nd           | Web:      www.OpenFOAM.org                      |
|    \\/     M anipulation  |                                                 |
\*---------------------------------------------------------------------------*/
FoamFile
{
    version     2.0;
    format      ascii;
    class       surfaceScalarField;
    location    "0.004";
    object      phi;
}
// * * * * * * * * * * * * * * * * * * * * * * * * * * * * * * * * * * * * * //

dimensions      [0 3 -1 0 0 0 0];

internalField   nonuniform List<scalar> 
29776
(
-3.06595e-12
-2.93811e-12
-9.40565e-14
6.09739e-12
5.06822e-12
2.29689e-12
9.8034e-10
6.92231e-11
6.93556e-11
-6.6759e-11
-6.68708e-11
6.68456e-12
-1.21792e-13
1.2219e-09
6.08636e-12
9.51984e-13
1.198e-09
4.99761e-12
-8.19346e-13
1.1833e-09
3.75467e-12
1.54273e-13
1.18287e-09
3.0979e-12
-2.9822e-13
1.18022e-09
2.44746e-12
-8.55426e-14
1.17843e-09
1.94655e-12
-2.38562e-13
1.17681e-09
1.47641e-12
-1.88097e-13
1.1759e-09
1.10234e-12
-2.36053e-13
1.17533e-09
7.75004e-13
-2.21537e-13
1.17512e-09
4.95982e-13
-2.37976e-13
1.17522e-09
2.3625e-13
-2.28433e-13
1.17553e-09
-2.28632e-13
1.17596e-09
-2.61326e-12
2.22841e-13
-2.94162e-12
-3.05984e-13
5.63803e-12
4.61883e-12
7.47944e-11
7.97038e-10
6.99668e-11
7.30951e-11
-6.57569e-11
-7.03745e-11
4.96782e-11
-7.04548e-11
-4.70084e-11
5.98686e-12
-1.35407e-12
1.20246e-09
5.73202e-12
2.25017e-12
1.21437e-09
4.94871e-12
-1.61492e-12
1.18777e-09
3.65758e-12
3.16443e-13
1.18296e-09
2.98281e-12
-6.13982e-13
1.18022e-09
2.35821e-12
-2.35013e-13
1.17847e-09
1.89147e-12
-5.09732e-13
1.17692e-09
1.44668e-12
-4.1208e-13
1.17597e-09
1.08271e-12
-4.93857e-13
1.1754e-09
7.6156e-13
-4.64592e-13
1.17514e-09
4.87344e-13
-4.94726e-13
1.17516e-09
2.36047e-13
-4.80799e-13
1.17537e-09
-4.82297e-13
1.17557e-09
1.95148e-11
-5.82518e-11
-1.63264e-11
1.81605e-11
1.11698e-10
2.28382e-12
2.45981e-12
9.62768e-10
4.79015e-11
6.17367e-11
-4.66917e-11
-6.06043e-11
5.82834e-12
1.63913e-12
1.20408e-09
5.17182e-12
-4.12769e-13
1.19569e-09
4.22161e-12
5.15878e-13
1.1848e-09
3.19194e-12
-4.05794e-13
1.18172e-09
2.58354e-12
-3.71244e-13
1.17912e-09
1.97834e-12
-6.6841e-13
1.17754e-09
1.52091e-12
-6.45579e-13
1.17632e-09
1.11491e-12
-7.534e-13
1.17569e-09
7.85963e-13
-7.36065e-13
1.17527e-09
5.03989e-13
-7.79474e-13
1.17526e-09
2.45642e-13
-7.5554e-13
1.17524e-09
-7.6559e-13
1.17524e-09
1.38667e-11
-5.83386e-11
-7.7376e-12
-1.85982e-11
2.37066e-12
7.59085e-11
1.37222e-11
-1.0692e-11
-1.05016e-11
1.85901e-12
2.61519e-12
9.67388e-10
6.48226e-11
6.70551e-11
-6.28122e-11
-6.51916e-11
5.06965e-12
9.06923e-15
1.21238e-09
4.35554e-12
7.99873e-14
1.19463e-09
3.61234e-12
1.65114e-14
1.18319e-09
2.795e-12
-4.62228e-13
1.18128e-09
2.33888e-12
-7.13218e-13
1.17914e-09
1.83408e-12
-9.32147e-13
1.17775e-09
1.4339e-12
-9.68678e-13
1.17651e-09
1.05523e-12
-1.06086e-12
1.17593e-09
7.41057e-13
-1.04732e-12
1.17545e-09
4.7536e-13
-1.10848e-12
1.17533e-09
2.31579e-13
-1.07748e-12
1.17515e-09
-1.09992e-12
1.17513e-09
-4.86369e-11
1.35015e-11
-1.836e-11
6.19815e-11
-2.86572e-13
1.18715e-11
-1.02907e-11
-9.69846e-12
-1.01202e-11
1.38426e-11
8.7186e-12
-1.25229e-11
2.84758e-12
4.38655e-12
9.7796e-10
6.71378e-11
6.76001e-11
-6.55623e-11
-6.51096e-11
5.30328e-12
-5.12095e-13
1.22246e-09
4.5485e-12
2.51671e-13
1.19743e-09
3.56759e-12
-4.68146e-13
1.18288e-09
2.88662e-12
-7.49555e-13
1.1821e-09
2.39401e-12
-1.048e-12
1.17998e-09
1.86856e-12
-1.27009e-12
1.17867e-09
1.45649e-12
-1.34826e-12
1.17725e-09
1.06034e-12
-1.44189e-12
1.17663e-09
7.56684e-13
-1.42877e-12
1.17594e-09
5.00647e-13
-1.51676e-12
1.1757e-09
2.45756e-13
-1.44301e-12
1.1754e-09
-1.47617e-12
1.17534e-09
-3.72614e-12
-5.95659e-13
-2.55019e-12
-3.2335e-13
7.19535e-12
3.46005e-12
6.68379e-11
8.07152e-10
6.77419e-11
6.84923e-11
-6.3724e-11
-6.56548e-11
4.69409e-11
-6.27043e-11
-4.46924e-11
4.93866e-12
-6.17727e-13
1.19614e-09
3.93869e-12
2.13641e-13
1.20776e-09
3.32964e-12
-1.5395e-12
1.18458e-09
2.59972e-12
-1.08095e-12
1.18178e-09
2.25746e-12
-1.52505e-12
1.18064e-09
1.77577e-12
-1.61726e-12
1.1795e-09
1.36156e-12
-1.76809e-12
1.178e-09
9.69599e-13
-1.86533e-12
1.17729e-09
6.54297e-13
-1.83042e-12
1.17653e-09
4.22585e-13
-1.97659e-12
1.17633e-09
1.99617e-13
-1.88629e-12
1.17597e-09
-1.94691e-12
1.1759e-09
-4.02784e-11
1.31592e-11
-1.40003e-11
1.63081e-11
9.00678e-11
1.717e-11
-7.76915e-12
-7.81922e-12
1.2848e-12
2.88238e-12
9.44171e-10
4.78178e-11
6.2255e-11
-4.69318e-11
-6.12166e-11
4.61468e-12
-2.25058e-12
1.20551e-09
2.94558e-12
-1.62991e-12
1.19587e-09
2.67389e-12
-2.25526e-12
1.18414e-09
2.10305e-12
-2.07626e-12
1.18193e-09
1.62675e-12
-2.09113e-12
1.18126e-09
1.26561e-12
-2.25595e-12
1.17955e-09
9.28595e-13
-2.39074e-12
1.17869e-09
6.72605e-13
-2.33688e-12
1.17777e-09
5.14905e-13
-2.58266e-12
1.17755e-09
2.49403e-13
-2.35907e-12
1.17693e-09
-2.454e-12
1.17682e-09
3.68134e-13
-1.46264e-11
1.51392e-12
-2.99333e-12
2.31331e-12
1.34244e-11
2.07594e-12
6.82596e-11
8.21855e-10
6.42282e-11
6.43472e-11
-6.13969e-11
-6.19017e-11
4.64537e-11
-6.38691e-11
-4.52604e-11
3.62491e-12
-8.6609e-13
1.19043e-09
4.0117e-12
-1.93414e-12
1.22485e-09
2.76451e-12
-2.81732e-12
1.19587e-09
2.08073e-12
-2.7706e-12
1.1837e-09
1.52332e-12
-2.67453e-12
1.182e-09
1.05236e-12
-2.61512e-12
1.18069e-09
7.24761e-13
-2.88989e-12
1.18002e-09
3.96338e-13
-2.79938e-12
1.17916e-09
2.59975e-13
-3.19707e-12
1.17914e-09
1.01362e-13
-2.97606e-12
1.17847e-09
-3.10503e-12
1.17843e-09
-2.87668e-11
1.05246e-11
-5.42469e-12
7.87799e-11
1.69072e-11
-6.47544e-12
-7.20696e-12
-7.9985e-12
1.58391e-11
1.11458e-11
-9.06363e-12
1.62614e-12
6.73323e-11
7.62575e-10
4.46271e-11
6.79679e-11
-4.40736e-11
-6.52539e-11
4.93213e-11
-6.44816e-11
-4.64038e-11
2.80613e-12
-1.87109e-12
1.18013e-09
2.82245e-12
-2.79256e-12
1.22814e-09
2.2558e-12
-4.01622e-12
1.19595e-09
1.06939e-12
-2.9348e-12
1.18422e-09
7.39377e-13
-3.34899e-12
1.18182e-09
4.69211e-13
-3.58091e-12
1.18214e-09
4.15531e-13
-3.62648e-12
1.18132e-09
6.15021e-13
-4.2385e-12
1.18176e-09
3.05033e-13
-3.67066e-12
1.18025e-09
-3.78174e-12
1.18023e-09
-9.6333e-13
5.97313e-13
-2.03506e-12
2.40107e-12
1.83893e-11
-6.02208e-11
-1.52451e-11
1.36759e-11
1.10734e-10
1.8684e-12
6.84368e-11
7.68914e-10
5.04783e-11
6.83283e-11
-4.82612e-11
-6.67265e-11
5.05443e-11
-6.68302e-11
-4.83093e-11
1.9204e-12
-1.61693e-12
1.18026e-09
1.60265e-12
-3.64465e-12
1.22509e-09
1.52629e-12
-4.64618e-12
1.19597e-09
4.85473e-13
-4.00996e-12
1.18466e-09
3.52013e-14
-4.59908e-12
1.18294e-09
-4.45086e-13
-4.3883e-12
1.18322e-09
-2.5498e-13
-5.22281e-12
1.18485e-09
-1.02959e-13
-4.96128e-12
1.18295e-09
-5.02202e-12
1.18283e-09
2.90136e-12
-1.01105e-11
1.42958e-12
5.77958e-12
1.89352e-11
-6.36289e-11
-1.55044e-11
1.33592e-11
1.15276e-10
9.07224e-13
6.79606e-11
7.63115e-10
4.45951e-11
-6.52681e-11
-4.40652e-11
4.92827e-11
6.73214e-11
-4.63707e-11
-6.4469e-11
2.26609e-12
-2.08644e-12
1.19078e-09
-2.47242e-13
-1.24044e-12
1.20555e-09
-2.99999e-13
-5.05291e-12
1.20781e-09
-1.10467e-13
-5.44621e-12
1.19747e-09
4.63588e-13
-5.2309e-12
1.19466e-09
1.60051e-12
-5.95016e-12
1.19578e-09
8.21435e-13
-5.805e-12
1.18785e-09
-6.16685e-12
1.18336e-09
3.22156e-12
-1.10091e-11
1.57324e-12
6.21432e-12
-3.97891e-11
1.91761e-11
-8.92203e-12
9.04861e-11
-7.95194e-12
1.2919e-11
1.11527e-11
-9.10954e-12
-2.97022e-12
6.43421e-11
8.22004e-10
4.64729e-11
6.82834e-11
-4.52647e-11
-6.38491e-11
6.42366e-11
-6.19005e-11
-6.13539e-11
6.7489e-13
6.20917e-11
9.44451e-10
4.76737e-11
-6.11878e-11
-4.69314e-11
6.45977e-13
-3.62925e-12
1.19632e-09
1.80957e-13
-3.07532e-12
1.22254e-09
-1.41495e-12
-2.05065e-12
1.21229e-09
-2.07421e-12
-2.42757e-12
1.20406e-09
-8.50515e-13
-6.09949e-12
1.21433e-09
-6.78927e-12
1.19791e-09
-3.85498e-11
1.10521e-11
-7.18188e-12
8.95112e-11
1.96933e-11
-9.05816e-12
-9.76555e-12
-1.00804e-11
1.3581e-11
1.47788e-11
-9.63789e-12
-5.02369e-11
2.99386e-12
-6.09911e-12
1.40918e-11
1.01342e-10
-4.41154e-12
6.79965e-11
8.07499e-10
4.69109e-11
6.70229e-11
-4.46963e-11
-6.25866e-11
6.71194e-11
-6.59854e-11
-6.40634e-11
-2.65306e-12
6.75343e-11
9.7814e-10
6.66062e-11
-6.52353e-11
-6.56208e-11
-2.29433e-12
6.67193e-11
9.67543e-10
6.44119e-11
-6.51159e-11
-6.2856e-11
1.44487e-12
6.15383e-11
9.62984e-10
4.78643e-11
-6.06385e-11
-4.67344e-11
1.32606e-13
-4.54703e-12
1.2028e-09
-5.05835e-12
1.22225e-09
1.30361e-12
-1.12439e-11
6.56267e-13
-1.89553e-13
9.47361e-12
-4.07886e-11
1.16093e-11
-6.11788e-12
9.26974e-11
1.655e-11
-7.90225e-12
-7.62067e-12
-9.38593e-12
1.28876e-11
1.44183e-11
-8.35078e-12
-4.02005e-11
1.79172e-13
5.55357e-12
9.14255e-11
-7.20778e-12
1.4497e-11
1.28402e-11
-9.5527e-12
-2.05449e-12
-5.04817e-11
-1.13968e-12
1.94e-11
1.00995e-10
-4.24252e-11
5.3414e-12
-8.25689e-12
1.56406e-11
9.12385e-11
-2.28674e-12
7.22748e-11
7.97592e-10
6.96561e-11
-7.06779e-11
-6.58604e-11
4.96205e-11
7.46697e-11
-4.69955e-11
-7.03254e-11
6.89416e-11
9.8073e-10
6.85702e-11
-6.70566e-11
-6.70028e-11
-1.2506e-12
-3.14677e-13
-5.07003e-13
2.07229e-12
1.63272e-12
9.12501e-13
-1.41713e-11
1.80776e-13
2.06497e-12
9.38038e-12
4.23574e-12
3.38691e-13
-1.37453e-11
-1.48404e-12
2.32636e-12
8.32853e-12
-6.07388e-11
2.19466e-11
-1.53123e-11
1.178e-10
-9.59461e-12
1.12293e-11
1.42354e-11
-7.29046e-12
-4.29557e-11
6.58206e-12
-1.8516e-12
9.63562e-11
-9.88557e-12
1.53942e-11
1.54095e-11
-1.01077e-11
-3.22865e-12
-2.77825e-12
-9.1164e-14
6.09996e-12
9.29897e-13
1.50828e-12
9.76628e-10
6.67778e-11
6.70754e-11
-6.62539e-11
-6.63259e-11
2.05689e-12
-9.99315e-13
1.22177e-09
1.11828e-12
5.17057e-13
1.19842e-09
8.34579e-13
-4.89848e-13
1.18407e-09
6.29814e-13
1.81089e-13
1.18289e-09
6.18861e-13
-1.25291e-13
1.18035e-09
5.20705e-13
-6.28324e-15
1.17854e-09
4.22277e-13
-7.31998e-14
1.17698e-09
3.22552e-13
-4.0732e-14
1.17604e-09
2.42648e-13
-5.92318e-14
1.17547e-09
1.74444e-13
-4.91115e-14
1.17524e-09
1.13984e-13
-5.36603e-14
1.17534e-09
5.58667e-14
-5.03358e-14
1.17565e-09
-4.76945e-14
1.17607e-09
-2.7697e-12
2.2283e-13
-2.76306e-12
-3.0303e-13
5.61296e-12
1.63229e-12
7.24526e-11
7.93536e-10
6.7265e-11
7.05086e-11
-6.54192e-11
-7.00554e-11
4.84206e-11
-7.13381e-11
-4.84579e-11
2.72916e-12
-2.28739e-12
1.20265e-09
1.40128e-12
1.9375e-12
1.21427e-09
9.55602e-13
-9.20245e-13
1.18864e-09
6.1601e-13
3.4046e-13
1.18315e-09
5.69898e-13
-2.76887e-13
1.18042e-09
4.91433e-13
-4.61765e-14
1.17859e-09
4.07948e-13
-1.53586e-13
1.17708e-09
3.17821e-13
-9.09612e-14
1.17611e-09
2.41054e-13
-1.21766e-13
1.17554e-09
1.7245e-13
-1.041e-13
1.17526e-09
1.11437e-13
-1.12205e-13
1.17529e-09
5.77722e-14
-1.06749e-13
1.17548e-09
-1.03495e-13
1.17568e-09
1.77132e-11
-5.93924e-11
-1.49187e-11
1.61711e-11
1.1288e-10
-6.17496e-13
9.81878e-13
9.60277e-10
4.71746e-11
6.09282e-11
-4.76263e-11
-6.06382e-11
2.02517e-12
1.01739e-12
1.20236e-09
9.67441e-13
-1.56514e-13
1.19599e-09
9.06484e-13
2.93041e-13
1.18491e-09
6.39967e-13
-1.76799e-13
1.18189e-09
5.87437e-13
-9.11532e-14
1.17921e-09
4.38824e-13
-1.78422e-13
1.17771e-09
3.49299e-13
-1.4666e-13
1.17647e-09
2.52399e-13
-1.80551e-13
1.17584e-09
1.82847e-13
-1.69305e-13
1.17541e-09
1.18677e-13
-1.79068e-13
1.17539e-09
6.18645e-14
-1.68023e-13
1.17536e-09
-1.67943e-13
1.17536e-09
1.32747e-11
-5.87223e-11
-6.8826e-12
-1.67099e-11
1.9239e-12
7.55832e-11
1.31319e-11
-1.09225e-11
-1.06764e-11
-1.23902e-12
1.70654e-12
9.6611e-10
6.36722e-11
6.54825e-11
-6.26502e-11
-6.47126e-11
1.73878e-12
-4.92823e-13
1.21091e-09
6.51168e-13
3.00627e-13
1.19526e-09
7.30754e-13
-4.80914e-14
1.18345e-09
5.37895e-13
-1.28145e-13
1.18143e-09
5.36189e-13
-2.07782e-13
1.17926e-09
4.10182e-13
-2.2199e-13
1.17792e-09
3.33702e-13
-2.25362e-13
1.17667e-09
2.40542e-13
-2.42166e-13
1.17608e-09
1.72814e-13
-2.37533e-13
1.17558e-09
1.1101e-13
-2.49709e-13
1.17546e-09
5.85396e-14
-2.37053e-13
1.17528e-09
-2.4179e-13
1.17526e-09
-4.86956e-11
1.29612e-11
-1.58549e-11
6.1777e-11
8.19218e-14
1.12996e-11
-1.05232e-11
-9.86886e-12
-1.03022e-11
1.33389e-11
8.45305e-12
-1.26669e-11
-6.13059e-14
2.80804e-12
9.75677e-10
6.48912e-11
6.62688e-11
-6.54745e-11
-6.44428e-11
1.72352e-12
-1.39742e-12
1.22158e-09
8.07306e-13
5.08966e-13
1.19814e-09
6.89541e-13
-1.86484e-13
1.18314e-09
6.06251e-13
-1.68222e-13
1.18223e-09
5.61321e-13
-2.92005e-13
1.18011e-09
4.25979e-13
-3.12674e-13
1.1789e-09
3.38932e-13
-3.29838e-13
1.17744e-09
2.42327e-13
-3.36456e-13
1.17683e-09
1.82457e-13
-3.31978e-13
1.17609e-09
1.26028e-13
-3.4865e-13
1.17586e-09
6.70996e-14
-3.16195e-13
1.17554e-09
-3.23472e-13
1.17548e-09
-3.87841e-12
-5.36317e-13
-2.43444e-12
-3.33062e-13
7.18223e-12
1.57401e-12
6.5931e-11
8.04788e-10
6.49164e-11
6.71163e-11
-6.40689e-11
-6.5995e-11
4.61327e-11
-6.40514e-11
-4.63822e-11
2.32596e-12
-1.90966e-12
1.1959e-09
8.8609e-13
1.17223e-12
1.20854e-09
8.16022e-13
-5.71925e-13
1.18503e-09
5.7688e-13
-5.00767e-14
1.18191e-09
5.80783e-13
-4.07799e-13
1.18076e-09
4.38894e-13
-3.78761e-13
1.17971e-09
3.31582e-13
-4.36164e-13
1.17822e-09
2.26511e-13
-4.26094e-13
1.17749e-09
1.51225e-13
-4.10999e-13
1.17668e-09
9.77583e-14
-4.40587e-13
1.17648e-09
4.93598e-14
-4.06908e-13
1.17611e-09
-4.2411e-13
1.17604e-09
-4.1349e-11
1.22273e-11
-1.19397e-11
1.49518e-11
9.18869e-11
1.66541e-11
-8.35331e-12
-8.14689e-12
-1.7367e-12
2.71884e-12
9.4242e-10
4.65863e-11
6.11042e-11
-4.7775e-11
-6.10547e-11
1.82369e-12
-1.91832e-12
1.20504e-09
4.18813e-13
1.68388e-13
1.19654e-09
6.12375e-13
-5.10006e-13
1.18441e-09
4.7897e-13
-4.32653e-13
1.18209e-09
3.74709e-13
-4.77274e-13
1.18146e-09
3.07286e-13
-5.85037e-13
1.17977e-09
2.17647e-13
-5.65276e-13
1.17892e-09
1.78899e-13
-5.41756e-13
1.17794e-09
1.56928e-13
-5.90917e-13
1.17773e-09
8.07948e-14
-4.94162e-13
1.17709e-09
-5.27116e-13
1.17699e-09
4.06161e-15
-1.43245e-11
1.52296e-12
-2.81886e-12
2.16967e-12
1.34467e-11
1.33807e-12
6.75641e-11
8.19376e-10
6.26316e-11
6.36574e-11
-6.18051e-11
-6.23116e-11
4.52992e-11
-6.43598e-11
-4.68127e-11
1.46127e-12
-4.12906e-13
1.1888e-09
1.55482e-12
-5.27639e-13
1.22546e-09
5.74445e-13
-2.92751e-13
1.19664e-09
4.28294e-13
-5.84415e-13
1.184e-09
4.0146e-13
-6.23124e-13
1.18218e-09
2.91499e-13
-5.86886e-13
1.18081e-09
2.12652e-13
-6.16332e-13
1.18015e-09
1.02582e-13
-5.48429e-13
1.17928e-09
6.27418e-14
-6.48667e-13
1.17923e-09
2.28603e-14
-5.71787e-13
1.17859e-09
-6.28604e-13
1.17854e-09
-3.00726e-11
9.9168e-12
-3.30681e-12
8.04211e-11
1.65665e-11
-6.94586e-12
-7.52173e-12
-8.33264e-12
1.54971e-11
1.07104e-11
-9.36726e-12
-7.26141e-13
6.594e-11
7.61059e-10
4.31656e-11
6.71109e-11
-4.51598e-11
-6.47907e-11
4.83465e-11
-6.50107e-11
-4.777e-11
7.57798e-13
-1.09674e-13
1.17823e-09
2.87983e-13
-6.7473e-13
1.22899e-09
5.04851e-13
-1.57607e-12
1.19672e-09
4.21354e-14
-4.41556e-13
1.1845e-09
1.75325e-13
-8.43535e-13
1.18194e-09
1.3566e-13
-7.04846e-13
1.18227e-09
1.80732e-13
-7.44621e-13
1.18147e-09
2.8181e-13
-9.22351e-13
1.18193e-09
1.34332e-13
-6.26082e-13
1.18045e-09
-6.52319e-13
1.18037e-09
-9.88528e-13
5.60225e-13
-1.9835e-12
2.4118e-12
1.72445e-11
-6.18176e-11
-1.39102e-11
1.20561e-11
1.12367e-10
1.15305e-13
6.74612e-11
7.6778e-10
4.96714e-11
6.73575e-11
-4.95663e-11
-6.70078e-11
4.97287e-11
-6.71185e-11
-4.96186e-11
5.9638e-13
7.306e-13
1.17837e-09
-1.52918e-13
-1.45707e-12
1.22572e-09
5.69131e-13
-1.86213e-12
1.19667e-09
1.97029e-13
-9.19746e-13
1.18511e-09
7.08018e-14
-8.39314e-13
1.1832e-09
-2.58642e-13
-6.89764e-13
1.18349e-09
-3.05501e-13
-1.00474e-12
1.18498e-09
-1.49805e-13
-9.79445e-13
1.18315e-09
-8.79875e-13
1.18288e-09
2.70968e-12
-9.93575e-12
1.47287e-12
5.75321e-12
1.79159e-11
-6.53176e-11
-1.3945e-11
1.18982e-11
1.1691e-10
4.18199e-13
6.71066e-11
7.61607e-10
4.31414e-11
-6.48013e-11
-4.51432e-11
4.83108e-11
6.59363e-11
-4.77369e-11
-6.49918e-11
1.90887e-12
-1.35101e-12
1.18919e-09
-1.23042e-12
1.68425e-12
1.20515e-09
-5.57984e-13
-2.40777e-12
1.20862e-09
-3.34496e-13
-1.81372e-12
1.19822e-09
1.39602e-13
-1.84223e-12
1.19534e-09
9.31998e-13
-2.12235e-12
1.1961e-09
5.06628e-13
-1.43265e-12
1.18872e-09
-1.16084e-12
1.18411e-09
3.02169e-12
-1.08334e-11
1.612e-12
6.19977e-12
-4.10951e-11
1.78344e-11
-7.10228e-12
9.18705e-11
-8.32805e-12
1.26269e-11
1.06247e-11
-9.32418e-12
-2.72951e-12
6.3643e-11
8.19507e-10
4.53162e-11
6.75795e-11
-4.68204e-11
-6.4349e-11
6.26291e-11
-6.23184e-11
-6.18024e-11
2.01818e-12
6.10868e-11
9.4256e-10
4.65802e-11
-6.10647e-11
-4.77745e-11
1.45329e-12
-1.56997e-12
1.19605e-09
5.19097e-13
-3.78275e-14
1.2217e-09
-9.628e-13
9.86376e-13
1.21094e-09
-1.87642e-12
3.90508e-13
1.20247e-09
-4.11085e-13
-2.86013e-12
1.21429e-09
-2.15094e-12
1.19846e-09
-3.94729e-11
1.05744e-11
-5.82052e-12
9.12301e-11
1.93884e-11
-9.48944e-12
-1.01421e-11
-1.0485e-11
1.34841e-11
1.44211e-11
-1.00448e-11
-5.17983e-11
2.29888e-12
-4.77826e-12
1.22557e-11
1.03109e-10
-2.74909e-12
6.7148e-11
8.04946e-10
4.61292e-11
6.59681e-11
-4.63945e-11
-6.40407e-11
6.49392e-11
-6.59756e-11
-6.4042e-11
-1.61574e-12
6.62443e-11
9.75766e-10
6.49318e-11
-6.44731e-11
-6.55011e-11
-8.53088e-13
6.54839e-11
9.66132e-10
6.36315e-11
-6.47755e-11
-6.27068e-11
2.46792e-12
6.08761e-11
9.60412e-10
4.71295e-11
-6.06909e-11
-4.76762e-11
1.09487e-12
-1.6006e-12
1.20291e-09
-8.43787e-13
1.222e-09
1.02655e-12
-1.09661e-11
5.91711e-13
-2.3271e-13
9.58054e-12
-4.14305e-11
1.10899e-11
-4.87629e-12
9.43108e-11
1.6162e-11
-8.34891e-12
-7.94108e-12
-9.74653e-12
1.25346e-11
1.40262e-11
-8.63243e-12
-4.07867e-11
-2.66503e-13
5.62604e-12
9.25295e-11
-7.50099e-12
1.41209e-11
1.23162e-11
-9.79437e-12
-1.99853e-12
-5.13155e-11
-9.01243e-13
1.75829e-11
1.02116e-10
-4.3902e-11
4.79443e-12
-6.56897e-12
1.40171e-11
9.25357e-11
-1.44974e-12
7.05548e-11
7.93883e-10
6.73451e-11
-7.00336e-11
-6.54262e-11
4.8386e-11
7.24995e-11
-4.84607e-11
-7.13071e-11
6.7165e-11
9.76998e-10
6.68114e-11
-6.63204e-11
-6.62381e-11
-1.22741e-12
-3.54599e-13
-5.16481e-13
2.0985e-12
1.26998e-12
9.08808e-13
-1.38038e-11
1.64198e-13
2.06269e-12
9.39816e-12
3.81496e-12
3.25169e-13
-1.33824e-11
-1.28988e-12
2.37659e-12
8.15559e-12
-6.13197e-11
2.0513e-11
-1.45725e-11
1.18713e-10
-9.91439e-12
1.09294e-11
1.37584e-11
-7.55291e-12
-4.36797e-11
6.25325e-12
-1.69418e-12
9.713e-11
-1.02373e-11
1.49222e-11
1.49029e-11
-1.04324e-11
-3.26741e-12
-2.76447e-12
-8.89803e-14
6.12101e-12
-2.19305e-12
3.51746e-13
9.78271e-10
6.64079e-11
6.67838e-11
-6.64648e-11
-6.65336e-11
-2.73377e-12
-2.06504e-14
1.22232e-09
-3.26711e-12
1.99775e-13
1.19875e-09
-2.78196e-12
-2.00442e-13
1.18377e-09
-2.22788e-12
6.5992e-14
1.18227e-09
-1.76701e-12
3.82761e-14
1.17985e-09
-1.38569e-12
7.30914e-14
1.17808e-09
-1.08652e-12
8.95867e-14
1.17659e-09
-8.23868e-13
1.04426e-13
1.17567e-09
-6.11515e-13
1.17531e-13
1.17514e-09
-4.26458e-13
1.22176e-13
1.17494e-09
-2.70698e-13
1.29864e-13
1.17506e-09
-1.30929e-13
1.29341e-13
1.17538e-09
1.34011e-13
1.17581e-09
-2.80312e-12
2.22276e-13
-2.74741e-12
-2.99343e-13
5.62759e-12
-1.56002e-12
7.17872e-11
7.95339e-10
6.70262e-11
7.03405e-11
-6.56282e-11
-7.01769e-11
4.80944e-11
-7.22664e-11
-4.90696e-11
-2.07995e-12
-2.74684e-13
1.20342e-09
-3.14547e-12
8.85415e-13
1.21465e-09
-2.67313e-12
-6.12473e-13
1.18858e-09
-2.20191e-12
1.05069e-13
1.18264e-09
-1.73632e-12
5.24675e-14
1.17994e-09
-1.35444e-12
1.59448e-13
1.17812e-09
-1.05969e-12
1.95367e-13
1.17668e-09
-8.03561e-13
2.2399e-13
1.17574e-09
-5.96862e-13
2.49163e-13
1.17521e-09
-4.17741e-13
2.5472e-13
1.17495e-09
-2.66299e-13
2.70378e-13
1.17499e-09
-1.26585e-13
2.68775e-13
1.1752e-09
2.75561e-13
1.17541e-09
1.73431e-11
-5.95813e-11
-1.49985e-11
1.57221e-11
1.13301e-10
-3.59689e-12
5.90737e-13
9.62295e-10
4.72939e-11
6.14865e-11
-4.76748e-11
-6.0393e-11
-2.43912e-12
-3.4674e-13
1.20243e-09
-2.80362e-12
-5.90546e-13
1.19633e-09
-2.11803e-12
-1.0913e-13
1.18444e-09
-1.77173e-12
7.26599e-14
1.18152e-09
-1.3607e-12
2.14915e-13
1.17875e-09
-1.07713e-12
3.03042e-13
1.17732e-09
-8.11678e-13
3.43758e-13
1.17608e-09
-6.05067e-13
3.87081e-13
1.1755e-09
-4.20268e-13
3.94772e-13
1.17508e-09
-2.68132e-13
4.21433e-13
1.17509e-09
-1.26839e-13
4.19898e-13
1.17507e-09
4.30622e-13
1.17507e-09
1.32396e-11
-5.90683e-11
-6.53883e-12
-1.64876e-11
1.66558e-12
7.58032e-11
1.31517e-11
-1.10355e-11
-1.07299e-11
-2.70622e-12
7.23062e-13
9.67181e-10
6.3547e-11
6.55251e-11
-6.2863e-11
-6.47063e-11
-1.69848e-12
-1.49299e-12
1.21105e-09
-2.39028e-12
-1.40785e-13
1.1955e-09
-1.82577e-12
-1.85179e-13
1.18296e-09
-1.57914e-12
2.66945e-13
1.18099e-09
-1.21959e-12
3.23571e-13
1.17879e-09
-9.91128e-13
4.81948e-13
1.17752e-09
-7.53031e-13
5.01758e-13
1.17627e-09
-5.65627e-13
5.65441e-13
1.17572e-09
-3.9382e-13
5.65232e-13
1.17524e-09
-2.5216e-13
6.04602e-13
1.17514e-09
-1.17901e-13
5.98746e-13
1.17497e-09
6.13e-13
1.17495e-09
-4.89366e-11
1.29502e-11
-1.5554e-11
6.18935e-11
1.91081e-13
1.13042e-11
-1.06033e-11
-9.92219e-12
-1.04003e-11
1.33481e-11
8.4666e-12
-1.27373e-11
-1.67164e-12
9.09085e-13
9.77019e-10
6.45046e-11
6.60782e-11
-6.58404e-11
-6.46003e-11
-1.59402e-12
-1.79526e-12
1.22181e-09
-2.16236e-12
4.28423e-14
1.19853e-09
-1.84019e-12
2.2224e-14
1.18261e-09
-1.52222e-12
3.78787e-13
1.1818e-09
-1.23206e-12
4.94509e-13
1.17965e-09
-9.95091e-13
6.44169e-13
1.1785e-09
-7.59446e-13
6.77588e-13
1.17703e-09
-5.6798e-13
7.559e-13
1.17644e-09
-3.87489e-13
7.50237e-13
1.17572e-09
-2.47676e-13
8.09216e-13
1.17551e-09
-1.14104e-13
8.02858e-13
1.17521e-09
8.22986e-13
1.17515e-09
-3.91603e-12
-5.25089e-13
-2.43375e-12
-3.34036e-13
7.2089e-12
3.37694e-13
6.53942e-11
8.05146e-10
6.45662e-11
6.70079e-11
-6.44252e-11
-6.6228e-11
4.58283e-11
-6.49619e-11
-4.69662e-11
-4.99514e-13
-1.24416e-12
1.19619e-09
-1.8108e-12
8.57183e-13
1.20904e-09
-1.40474e-12
5.50564e-14
1.1846e-09
-1.34998e-12
7.61875e-13
1.18147e-09
-1.07388e-12
6.63581e-13
1.18031e-09
-8.88192e-13
8.62052e-13
1.1793e-09
-6.81478e-13
8.80853e-13
1.17781e-09
-5.03738e-13
9.88611e-13
1.17708e-09
-3.42719e-13
9.8568e-13
1.17628e-09
-2.20359e-13
1.07289e-12
1.17609e-09
-9.9965e-14
1.05724e-12
1.17574e-09
1.08478e-12
1.17568e-09
-4.1671e-11
1.21445e-11
-1.19704e-11
1.46116e-11
9.23378e-11
1.66483e-11
-8.48212e-12
-8.22324e-12
-2.76787e-12
2.07539e-12
9.42279e-10
4.67108e-11
6.15226e-11
-4.7767e-11
-6.08735e-11
-6.92312e-13
-1.50616e-12
1.20533e-09
-1.6319e-12
1.14698e-12
1.19639e-09
-1.22942e-12
7.5086e-13
1.18402e-09
-1.08057e-12
9.81655e-13
1.18162e-09
-8.71578e-13
1.07181e-12
1.18104e-09
-6.5164e-13
1.06298e-12
1.17937e-09
-4.87693e-13
1.22361e-12
1.17852e-09
-3.05101e-13
1.21162e-12
1.17753e-09
-1.94562e-13
1.35499e-12
1.17734e-09
-8.71026e-14
1.3503e-12
1.17669e-09
1.3797e-12
1.1766e-09
-9.01706e-14
-1.43202e-11
1.5196e-12
-2.77393e-12
2.14974e-12
1.3515e-11
5.5278e-13
6.73926e-11
8.19333e-10
6.24708e-11
6.35109e-11
-6.21513e-11
-6.2661e-11
4.50725e-11
-6.4849e-11
-4.72172e-11
-8.85469e-13
-6.49591e-13
1.18938e-09
-8.17533e-13
6.66748e-13
1.22587e-09
-1.17841e-12
1.37032e-12
1.19638e-09
-9.92914e-13
1.16013e-12
1.18363e-09
-6.73908e-13
1.21704e-12
1.18171e-09
-4.9837e-13
1.33454e-12
1.18036e-09
-3.22774e-13
1.51148e-12
1.17968e-09
-2.08253e-13
1.56827e-12
1.17881e-09
-1.49057e-13
1.76313e-12
1.17877e-09
-6.25482e-14
1.7291e-12
1.17812e-09
1.75558e-12
1.17808e-09
-3.0287e-11
9.85254e-12
-3.26175e-12
8.08437e-11
1.65965e-11
-7.04985e-12
-7.57914e-12
-8.43791e-12
1.55013e-11
1.06652e-11
-9.45017e-12
-1.43728e-12
6.57683e-11
7.6116e-10
4.31733e-11
6.72543e-11
-4.52726e-11
-6.48686e-11
4.81926e-11
-6.54233e-11
-4.81382e-11
-1.27763e-12
1.02417e-13
1.17864e-09
-1.37897e-12
1.28785e-12
1.22917e-09
-7.63954e-13
8.086e-13
1.19646e-09
-7.75863e-13
1.61981e-12
1.18411e-09
-3.89132e-13
1.38409e-12
1.18151e-09
-2.73094e-13
1.82633e-12
1.18184e-09
-7.31503e-14
1.81483e-12
1.18103e-09
-4.98761e-14
2.10965e-12
1.18156e-09
-3.03909e-14
2.19104e-12
1.17997e-09
2.20836e-12
1.17986e-09
-9.87062e-13
5.52322e-13
-1.98365e-12
2.41838e-12
1.70176e-11
-6.21576e-11
-1.37549e-11
1.182e-11
1.12844e-10
-9.02915e-14
6.75354e-11
7.68067e-10
4.96071e-11
6.74327e-11
-4.98587e-11
-6.72269e-11
4.96642e-11
-6.73376e-11
-4.99113e-11
-6.89193e-13
1.45082e-12
1.17881e-09
-1.16535e-12
8.7796e-13
1.22613e-09
-6.67643e-14
6.73197e-13
1.19652e-09
-2.00686e-14
1.7843e-12
1.18467e-09
1.97674e-13
2.14289e-12
1.18267e-09
1.25857e-13
2.37363e-12
1.18301e-09
-8.47252e-14
2.79048e-12
1.18451e-09
-4.90677e-14
2.65315e-12
1.18265e-09
2.74642e-12
1.18227e-09
2.67696e-12
-9.9626e-12
1.49929e-12
5.78637e-12
1.77439e-11
-6.56942e-11
-1.36624e-11
1.17449e-11
1.17404e-10
6.38742e-13
6.72524e-11
7.61732e-10
4.31529e-11
-6.48786e-11
-4.5254e-11
4.8156e-11
6.57655e-11
-4.8105e-11
-6.54015e-11
1.47905e-12
-5.53439e-13
1.18978e-09
-8.98358e-13
2.73188e-12
1.20547e-09
-7.09908e-14
4.61566e-13
1.20912e-09
1.17919e-13
1.55877e-12
1.19861e-09
5.87577e-13
1.67412e-12
1.19556e-09
6.16247e-13
2.42365e-12
1.19644e-09
2.17366e-13
3.12638e-12
1.18865e-09
3.22464e-12
1.18382e-09
2.988e-12
-1.08696e-11
1.6441e-12
6.23748e-12
-4.13153e-11
1.77101e-11
-6.8424e-12
9.23294e-11
-8.44735e-12
1.26452e-11
1.05556e-11
-9.38212e-12
-2.10339e-12
6.35019e-11
8.19459e-10
4.5091e-11
6.74067e-11
-4.72257e-11
-6.48434e-11
6.24697e-11
-6.2661e-11
-6.21415e-11
1.23442e-12
6.15039e-11
9.4239e-10
4.67059e-11
-6.08801e-11
-4.77659e-11
1.79743e-12
-3.5724e-13
1.1963e-09
1.49762e-12
1.64739e-12
1.22191e-09
3.54157e-13
2.6656e-12
1.21109e-09
-8.64426e-13
3.57534e-12
1.20253e-09
-1.93891e-13
2.01767e-12
1.21473e-09
2.65474e-12
1.19879e-09
-4.00709e-11
1.05352e-11
-5.58064e-12
9.17316e-11
1.94055e-11
-9.57651e-12
-1.02275e-11
-1.05856e-11
1.35565e-11
1.44108e-11
-1.00961e-11
-5.19472e-11
2.16879e-12
-4.42537e-12
1.21583e-11
1.03549e-10
-9.01905e-13
6.70145e-11
8.05233e-10
4.58359e-11
6.5416e-11
-4.69701e-11
-6.49583e-11
6.4586e-11
-6.62431e-11
-6.44247e-11
-7.09821e-13
6.60827e-11
9.7709e-10
6.45091e-11
-6.46105e-11
-6.58518e-11
-5.85536e-13
6.55174e-11
9.67211e-10
6.35437e-11
-6.47225e-11
-6.28768e-11
2.93362e-13
6.14899e-11
9.6242e-10
4.72905e-11
-6.04062e-11
-4.76861e-11
5.69524e-14
1.53519e-12
1.20362e-09
2.17399e-12
1.22246e-09
9.82346e-13
-1.10037e-11
5.8602e-13
-2.17436e-13
9.6528e-12
-4.21023e-11
1.10793e-11
-4.59598e-12
9.4868e-11
1.61503e-11
-8.43241e-12
-8.01625e-12
-9.83816e-12
1.25807e-11
1.39977e-11
-8.67627e-12
-4.13094e-11
-4.14883e-13
5.81506e-12
9.30604e-11
-7.57977e-12
1.41096e-11
1.22524e-11
-9.85057e-12
-2.06612e-12
-5.16667e-11
-6.85824e-13
1.73897e-11
1.02546e-10
-4.38416e-11
4.62829e-12
-6.16797e-12
1.39825e-11
9.28892e-11
-2.91287e-13
7.03527e-11
7.95606e-10
6.7056e-11
-7.01948e-11
-6.56515e-11
4.80786e-11
7.17999e-11
-4.90753e-11
-7.22631e-11
6.68402e-11
9.78561e-10
6.64014e-11
-6.65383e-11
-6.64959e-11
-1.22025e-12
-3.74727e-13
-5.1847e-13
2.11345e-12
1.1955e-12
9.1559e-13
-1.37994e-11
1.71081e-13
2.07155e-12
9.44568e-12
3.69372e-12
3.31164e-13
-1.33962e-11
-1.20027e-12
2.39391e-12
8.17774e-12
-6.19101e-11
2.04006e-11
-1.44292e-11
1.19261e-10
-1.00057e-11
1.09295e-11
1.37172e-11
-7.61083e-12
-4.41865e-11
6.14893e-12
-1.63281e-12
9.76531e-11
-1.03389e-11
1.48767e-11
1.48412e-11
-1.05215e-11
-3.27908e-12
-2.76717e-12
-8.83975e-14
6.13432e-12
-5.17035e-12
1.67682e-13
9.83284e-10
6.6505e-11
6.69011e-11
-6.66718e-11
-6.67567e-11
-7.50671e-12
1.68487e-12
1.22295e-09
-7.2458e-12
-2.75013e-13
1.19875e-09
-6.29975e-12
2.50849e-13
1.18256e-09
-5.09446e-12
-3.84312e-14
1.18109e-09
-4.16205e-12
2.22442e-13
1.17868e-09
-3.2795e-12
1.78071e-13
1.17701e-09
-2.56818e-12
2.5341e-13
1.17561e-09
-1.94688e-12
2.49667e-13
1.17479e-09
-1.44656e-12
2.92483e-13
1.17435e-09
-1.01181e-12
2.90222e-13
1.17421e-09
-6.43738e-13
3.09426e-13
1.17437e-09
-3.09389e-13
3.04467e-13
1.17473e-09
3.11318e-13
1.17519e-09
-2.81547e-12
2.2143e-13
-2.75016e-12
-2.99043e-13
5.64325e-12
-5.53705e-12
7.13011e-11
8.02744e-10
6.72138e-11
7.06655e-11
-6.58221e-11
-7.02502e-11
4.77894e-11
-7.30379e-11
-4.95628e-11
-7.28237e-12
2.13076e-12
1.20472e-09
-7.40936e-12
-3.97997e-13
1.2149e-09
-6.1547e-12
8.69207e-14
1.18749e-09
-4.99032e-12
-5.47324e-14
1.18149e-09
-4.03746e-12
4.24962e-13
1.17879e-09
-3.17996e-12
3.77478e-13
1.17706e-09
-2.49834e-12
5.44387e-13
1.1757e-09
-1.90226e-12
5.36908e-13
1.17485e-09
-1.41664e-12
6.14713e-13
1.1744e-09
-9.93547e-13
6.07412e-13
1.17421e-09
-6.33655e-13
6.45126e-13
1.1743e-09
-3.0315e-13
6.35018e-13
1.17454e-09
6.46352e-13
1.17476e-09
1.72588e-11
-5.97774e-11
-1.5382e-11
1.53999e-11
1.13802e-10
-7.58545e-12
5.62549e-13
9.68941e-10
4.76556e-11
6.23688e-11
-4.76016e-11
-5.9915e-11
-6.87837e-12
-2.53922e-12
1.20386e-09
-6.34895e-12
-1.06202e-12
1.19695e-09
-5.1159e-12
-4.13377e-13
1.18357e-09
-4.18109e-12
4.06619e-13
1.1806e-09
-3.30528e-12
5.28916e-13
1.17772e-09
-2.57122e-12
7.81319e-13
1.17635e-09
-1.95427e-12
8.294e-13
1.17517e-09
-1.44551e-12
9.46771e-13
1.17466e-09
-1.01021e-12
9.48006e-13
1.17431e-09
-6.44897e-13
1.00987e-12
1.17436e-09
-3.08663e-13
9.9406e-13
1.17437e-09
1.01507e-12
1.17439e-09
1.32528e-11
-5.93393e-11
-6.29278e-12
-1.67075e-11
1.47184e-12
7.62367e-11
1.32205e-11
-1.11022e-11
-1.074e-11
-5.16161e-12
-5.22806e-13
9.70579e-10
6.39358e-11
6.61163e-11
-6.27858e-11
-6.44164e-11
-5.0845e-12
-2.78718e-12
1.21123e-09
-5.18982e-12
-6.66458e-13
1.19521e-09
-4.36183e-12
-1.40527e-13
1.18186e-09
-3.68585e-12
7.31738e-13
1.17999e-09
-2.97514e-12
8.77053e-13
1.17773e-09
-2.37268e-12
1.1819e-12
1.17651e-09
-1.82336e-12
1.22228e-12
1.17533e-09
-1.35754e-12
1.36236e-12
1.17483e-09
-9.49244e-13
1.35388e-12
1.17443e-09
-6.07633e-13
1.44259e-12
1.17436e-09
-2.88535e-13
1.4167e-12
1.17423e-09
1.44881e-12
1.17422e-09
-4.91421e-11
1.29708e-11
-1.56458e-11
6.22298e-11
2.68889e-13
1.13458e-11
-1.06495e-11
-9.9361e-12
-1.04465e-11
1.33332e-11
8.47906e-12
-1.28077e-11
-3.84593e-12
-9.20116e-13
9.80927e-10
6.4601e-11
6.63281e-11
-6.59955e-11
-6.45965e-11
-4.92414e-12
-2.08736e-12
1.22219e-09
-4.97708e-12
-6.77976e-13
1.1986e-09
-4.39946e-12
3.68029e-13
1.18152e-09
-3.6824e-12
9.99821e-13
1.18081e-09
-3.04204e-12
1.34185e-12
1.17855e-09
-2.4046e-12
1.6114e-12
1.17743e-09
-1.84555e-12
1.68177e-12