/*--------------------------------*- C++ -*----------------------------------*\
| =========                 |                                                 |
| \\      /  F ield         | OpenFOAM: The Open Source CFD Toolbox           |
|  \\    /   O peration     | Version:  2.1.1                                 |
|   \\  /    A nd           | Web:      www.OpenFOAM.org                      |
|    \\/     M anipulation  |                                                 |
\*---------------------------------------------------------------------------*/
FoamFile
{
    version     2.0;
    format      ascii;
    class       volScalarField;
    location    "0.004";
    object      Th;
}
// * * * * * * * * * * * * * * * * * * * * * * * * * * * * * * * * * * * * * //

dimensions      [0 0 0 0 0 0 0];

internalField   nonuniform List<scalar> 
10260
(
4.42861e-13
1.10825e-14
1.00045e-14
1.00002e-14
1.00001e-14
1.00001e-14
1.00002e-14
1.00002e-14
1.00002e-14
1.00001e-14
1e-14
1.00001e-14
1.00001e-14
1.00002e-14
1.00001e-14
4.90345e-13
1.28373e-14
1.00122e-14
1.00001e-14
1.00001e-14
1e-14
1e-14
1e-14
1e-14
1e-14
1e-14
1e-14
1e-14
1.00001e-14
1e-14
1e-14
1e-14
1e-14
1e-14
1e-14
1e-14
1e-14
1e-14
1e-14
1e-14
1e-14
1e-14
1e-14
1.00002e-14
1.38523e-14
1.00691e-14
1e-14
1e-14
1e-14
1e-14
1e-14
1e-14
1e-14
1.00001e-14
1.00001e-14
1e-14
1.00001e-14
1.00002e-14
5.17789e-14
1.01328e-14
1.00003e-14
1e-14
1e-14
1e-14
1e-14
1.00001e-14
1.00002e-14
1.00001e-14
1.00001e-14
1.00001e-14
1.00002e-14
1.00001e-14
3.04157e-13
1.37247e-14
1.00104e-14
1e-14
1e-14
1e-14
1e-14
1.00002e-14
1.00001e-14
1e-14
1e-14
1.00001e-14
1e-14
1.00001e-14
1.11275e-14
1.01133e-14
1e-14
1e-14
1e-14
1e-14
1e-14
1e-14
1e-14
1e-14
1.00001e-14
1e-14
1.00002e-14
1e-14
1.66801e-14
1.00123e-14
1e-14
1e-14
1e-14
1e-14
1.00001e-14
1.00001e-14
1.00001e-14
1.00001e-14
1e-14
1.00001e-14
2.35481e-14
1.06656e-14
1.0001e-14
1.00001e-14
1e-14
1e-14
1e-14
1e-14
1.00001e-14
1.00001e-14
1e-14
1.00001e-14
9.92309e-13
1e-14
1.07102e-14
1.00011e-14
1.00001e-14
1e-14
1e-14
1e-14
1e-14
1e-14
1e-14
1.00001e-14
3.44148e-13
1e-14
1.06632e-14
1.00124e-14
1.00001e-14
1e-14
1e-14
1e-14
1e-14
1e-14
1e-14
2.63111e-13
1.355e-14
1.66783e-14
1.01137e-14
1.00111e-14
1.00003e-14
1.00002e-14
1.00001e-14
1.00001e-14
1.00001e-14
5.01248e-14
1e-14
1.37804e-14
1.01345e-14
1.00696e-14
1e-14
1.00125e-14
1.00052e-14
8.56127e-14
3.57957e-14
1.02935e-14
1e-14
1e-14
1.28769e-14
1.11403e-14
1.31856e-12
1e-14
1e-14
1.76109e-14
2.09295e-14
4.47471e-13
1.09639e-14
1.00019e-14
1.00002e-14
1.00002e-14
1.00002e-14
1.00003e-14
1.00003e-14
1.00003e-14
1.00001e-14
1e-14
1e-14
1.00001e-14
1.00003e-14
1e-14
4.98231e-13
1.25971e-14
1.00062e-14
1e-14
1.00001e-14
1e-14
1e-14
1e-14
1e-14
1e-14
1e-14
1e-14
1e-14
1e-14
1e-14
1e-14
1e-14
1e-14
1e-14
1e-14
1e-14
1e-14
1e-14
1e-14
1e-14
1e-14
1e-14
1e-14
1.00002e-14
1.3588e-14
1.00582e-14
1e-14
1e-14
1e-14
1e-14
1e-14
1e-14
1e-14
1e-14
1.00001e-14
1e-14
1e-14
1.00001e-14
5.04583e-14
1.01118e-14
1.00001e-14
1e-14
1e-14
1e-14
1e-14
1.00001e-14
1.00001e-14
1.00001e-14
1e-14
1.00001e-14
1.00001e-14
1e-14
3.08129e-13
1.3524e-14
1.00058e-14
1e-14
1e-14
1e-14
1e-14
1.00001e-14
1.00001e-14
1e-14
1e-14
1.00001e-14
1e-14
1.00001e-14
1.09392e-14
1.01005e-14
1e-14
1e-14
1e-14
1e-14
1e-14
1e-14
1e-14
1e-14
1e-14
1e-14
1.00001e-14
1e-14
1.62448e-14
1.00068e-14
1e-14
1e-14
1e-14
1e-14
1e-14
1.00001e-14
1.00001e-14
1.00001e-14
1e-14
1e-14
2.3212e-14
1.06005e-14
1.00001e-14
1e-14
1e-14
1e-14
1e-14
1e-14
1.00001e-14
1.00001e-14
1e-14
1e-14
9.94855e-13
1e-14
1.06466e-14
1.00002e-14
1e-14
1e-14
1e-14
1e-14
1e-14
1e-14
1e-14
1e-14
3.72499e-13
1e-14
1.05981e-14
1.00069e-14
1e-14
1e-14
1e-14
1e-14
1e-14
1e-14
1e-14
2.90111e-13
1.3115e-14
1.62449e-14
1.01008e-14
1.0006e-14
1.00001e-14
1.00001e-14
1.00001e-14
1e-14
1e-14
5.32082e-14
1e-14
1.35317e-14
1.01129e-14
1.00588e-14
1e-14
1.00063e-14
1.00024e-14
9.58873e-14
3.51936e-14
1.03285e-14
1e-14
1e-14
1.26045e-14
1.09816e-14
1.31077e-12
1e-14
1e-14
1.72073e-14
2.07566e-14
4.4802e-13
1.09327e-14
1e-14
1.00002e-14
1.00002e-14
1.00002e-14
1.00002e-14
1.00002e-14
1.00002e-14
1e-14
1e-14
1e-14
1e-14
1.00002e-14
1.00002e-14
4.98907e-13
1.25269e-14
1.00007e-14
1e-14
1.00001e-14
1e-14
1e-14
1e-14
1e-14
1e-14
1e-14
1e-14
1e-14
1e-14
1e-14
1e-14
1e-14
1e-14
1e-14
1e-14
1e-14
1e-14
1e-14
1e-14
1e-14
1e-14
1e-14
1e-14
1.00002e-14
1.36054e-14
1.00548e-14
1e-14
1e-14
1e-14
1e-14
1e-14
1e-14
1e-14
1e-14
1.00001e-14
1e-14
1e-14
1.00002e-14
5.08345e-14
1.0108e-14
1e-14
1e-14
1e-14
1e-14
1e-14
1e-14
1.00001e-14
1e-14
1e-14
1.00001e-14
1e-14
1.00001e-14
3.08349e-13
1.34572e-14
1.00028e-14
1e-14
1e-14
1e-14
1e-14
1.00001e-14
1.00001e-14
1e-14
1e-14
1e-14
1e-14
1e-14
1.09681e-14
1.00971e-14
1e-14
1e-14
1e-14
1e-14
1e-14
1e-14
1e-14
1e-14
1e-14
1e-14
1.00001e-14
1e-14
1.60955e-14
1.0004e-14
1e-14
1e-14
1e-14
1e-14
1e-14
1.00001e-14
1.00001e-14
1.00001e-14
1e-14
1e-14
2.33155e-14
1.05873e-14
1e-14
1.00001e-14
1e-14
1e-14
1e-14
1e-14
1e-14
1e-14
1e-14
1.00001e-14
9.94298e-13
1e-14
1.06315e-14
1e-14
1e-14
1e-14
1e-14
1e-14
1e-14
1e-14
1e-14
1.00001e-14
3.73417e-13
1e-14
1.05848e-14
1.00041e-14
1e-14
1e-14
1e-14
1e-14
1e-14
1e-14
1.00001e-14
2.90714e-13
1.30247e-14
1.60956e-14
1.00973e-14
1.0003e-14
1e-14
1.00001e-14
1.00001e-14
1e-14
1e-14
5.41004e-14
1e-14
1.34597e-14
1.01084e-14
1.00551e-14
1e-14
1.00007e-14
1.00002e-14
9.56259e-14
3.54515e-14
1.03375e-14
1e-14
1e-14
1.25284e-14
1.09376e-14
1.30767e-12
1e-14
1e-14
1.71737e-14
2.08422e-14
4.4797e-13
1.08881e-14
1e-14
1.00001e-14
1.00002e-14
1.00001e-14
1.00001e-14
1.00002e-14
1.00003e-14
1.00002e-14
1e-14
1e-14
1e-14
1.00002e-14
1.00001e-14
4.98722e-13
1.24905e-14
1e-14
1e-14
1e-14
1e-14
1e-14
1.00001e-14
1e-14
1e-14
1e-14
1e-14
1e-14
1e-14
1e-14
1e-14
1e-14
1e-14
1e-14
1e-14
1e-14
1e-14
1e-14
1e-14
1e-14
1e-14
1e-14
1e-14
1.00001e-14
1.3611e-14
1.00533e-14
1e-14
1e-14
1e-14
1e-14
1e-14
1e-14
1e-14
1e-14
1e-14
1e-14
1e-14
1.00001e-14
5.10107e-14
1.01052e-14
1e-14
1e-14
1e-14
1e-14
1e-14
1e-14
1.00001e-14
1e-14
1e-14
1e-14
1e-14
1e-14
3.08428e-13
1.34238e-14
1e-14
1e-14
1e-14
1e-14
1e-14
1e-14
1.00001e-14
1e-14
1e-14
1e-14
1e-14
1e-14
1.10017e-14
1.00943e-14
1e-14
1e-14
1e-14
1e-14
1e-14
1e-14
1e-14
1e-14
1e-14
1e-14
1.00001e-14
1e-14
1.60928e-14
1e-14
1e-14
1e-14
1e-14
1e-14
1e-14
1.00001e-14
1e-14
1e-14
1e-14
1.00001e-14
2.33507e-14
1.05876e-14
1e-14
1e-14
1e-14
1e-14
1e-14
1e-14
1e-14
1e-14
1e-14
1.00001e-14
9.94322e-13
1e-14
1.06298e-14
1e-14
1e-14
1e-14
1e-14
1e-14
1e-14
1e-14
1.00001e-14
1.00001e-14
3.73096e-13
1e-14
1.05851e-14
1e-14
1e-14
1e-14
1e-14
1e-14
1e-14
1e-14
1.00001e-14
2.90283e-13
1.30113e-14
1.60923e-14
1.00944e-14
1e-14
1e-14
1e-14
1e-14
1e-14
1e-14
5.40659e-14
1e-14
1.34246e-14
1.01053e-14
1.00534e-14
1e-14
1e-14
1e-14
9.5127e-14
3.5349e-14
1.03343e-14
1e-14
1e-14
1.24896e-14
1.08891e-14
1.30672e-12
1e-14
1e-14
1.70307e-14
2.08357e-14
4.47006e-13
1.10394e-14
1e-14
1.00001e-14
1.00001e-14
1.00001e-14
1.00001e-14
1.00002e-14
1.00002e-14
1.00001e-14
1.00001e-14
1e-14
1.00001e-14
1.00001e-14
1.00002e-14
4.97449e-13
1.26726e-14
1e-14
1e-14
1e-14
1e-14
1e-14
1.00001e-14
1e-14
1e-14
1e-14
1e-14
1e-14
1e-14
1e-14
1e-14
1e-14
1e-14
1e-14
1e-14
1e-14
1e-14
1e-14
1e-14
1e-14
1e-14
1e-14
1e-14
1e-14
1.36288e-14
1.00539e-14
1e-14
1e-14
1e-14
1e-14
1e-14
1e-14
1e-14
1e-14
1e-14
1e-14
1e-14
1e-14
5.13914e-14
1.01211e-14
1e-14
1e-14
1e-14
1e-14
1e-14
1e-14
1e-14
1e-14
1.00001e-14
1e-14
1e-14
1e-14
3.08355e-13
1.35331e-14
1e-14
1e-14
1e-14
1e-14
1e-14
1e-14
1e-14
1.00001e-14
1e-14
1e-14
1e-14
1e-14
1.10579e-14
1.0092e-14
1e-14
1e-14
1e-14
1e-14
1e-14
1e-14
1e-14
1e-14
1e-14
1e-14
1.00001e-14
1e-14
1.59397e-14
1e-14
1e-14
1e-14
1e-14
1e-14
1e-14
1e-14
1e-14
1e-14
1e-14
1.00001e-14
2.32929e-14
1.05711e-14
1e-14
1e-14
1e-14
1e-14
1e-14
1e-14
1e-14
1e-14
1.00001e-14
1e-14
9.94132e-13
1e-14
1.06214e-14
1e-14
1e-14
1e-14
1e-14
1e-14
1e-14
1.00001e-14
1.00001e-14
1e-14
3.72862e-13
1e-14
1.05686e-14
1e-14
1e-14
1e-14
1.00001e-14
1.00001e-14
1e-14
1e-14
1e-14
2.89917e-13
1.29858e-14
1.59372e-14
1.0092e-14
1e-14
1e-14
1e-14
1e-14
1e-14
1e-14
5.36534e-14
1e-14
1.35331e-14
1.01212e-14
1.0054e-14
1e-14
1e-14
1e-14
9.3857e-14
3.50505e-14
1.03228e-14
1e-14
1e-14
1.26722e-14
1.1039e-14
1.30511e-12
1e-14
1e-14
1.67666e-14
2.08054e-14
4.4357e-13
1.06148e-14
1e-14
1.00001e-14
1e-14
1.00001e-14
1.00001e-14
1.00002e-14
1.00001e-14
1e-14
1e-14
1e-14
1e-14
1e-14
1.00003e-14
4.9291e-13
1.2254e-14
1e-14
1e-14
1e-14
1e-14
1e-14
1e-14
1e-14
1e-14
1e-14
1e-14
1e-14
1e-14
1e-14
1e-14
1e-14
1e-14
1e-14
1e-14
1e-14
1e-14
1e-14
1e-14
1e-14
1e-14
1e-14
1e-14
1e-14
1.36655e-14
1.00473e-14
1e-14
1e-14
1e-14
1e-14
1e-14
1e-14
1e-14
1e-14
1e-14
1e-14
1e-14
1e-14
5.24656e-14
1.0076e-14
1e-14
1e-14
1e-14
1e-14
1e-14
1e-14
1e-14
1.00001e-14
1e-14
1e-14
1e-14
1.00002e-14
3.07545e-13
1.31379e-14
1e-14
1e-14
1e-14
1e-14
1e-14
1e-14
1.00001e-14
1e-14
1e-14
1e-14
1e-14
1.00002e-14
1.10727e-14
1.00819e-14
1e-14
1e-14
1e-14
1e-14
1e-14
1e-14
1e-14
1e-14
1e-14
1e-14
1.00001e-14
1e-14
1.61746e-14
1e-14
1e-14
1e-14
1e-14
1e-14
1e-14
1e-14
1e-14
1.00001e-14
1.00001e-14
1.00001e-14
2.29381e-14
1.06554e-14
1e-14
1e-14
1e-14
1e-14
1e-14
1e-14
1e-14
1.00001e-14
1e-14
1e-14
9.92674e-13
1e-14
1.06624e-14
1e-14
1e-14
1e-14
1.00001e-14
1.00001e-14
1.00001e-14
1e-14
1e-14
1e-14
3.71644e-13
1e-14
1.06524e-14
1e-14
1e-14
1.00001e-14
1.00001e-14
1e-14
1e-14
1e-14
1e-14
2.88315e-13
1.28759e-14
1.61727e-14
1.00818e-14
1e-14
1e-14
1e-14
1e-14
1e-14
1e-14
5.22926e-14
1e-14
1.31378e-14
1.00759e-14
1.00474e-14
1e-14
1e-14
1e-14
8.96543e-14
3.43271e-14
1.02728e-14
1e-14
1e-14
1.22543e-14
1.06152e-14
1.29983e-12
1e-14
1e-14
1.59339e-14
2.02057e-14
4.23097e-13
1.21705e-14
1e-14
1e-14
1e-14
1e-14
1.00001e-14
1.00001e-14
1e-14
1e-14
1e-14
1e-14
1e-14
1e-14
1.00002e-14
4.71508e-13
1.4532e-14
1e-14
1e-14
1e-14
1e-14
1e-14
1e-14
1e-14
1e-14
1e-14
1e-14
1e-14
1e-14
1e-14
1e-14
1e-14
1e-14
1e-14
1e-14
1e-14
1e-14
1e-14
1e-14
1e-14
1e-14
1e-14
1e-14
1e-14
1.2013e-14
1.00686e-14
1e-14
1e-14
1e-14
1e-14
1e-14
1.00001e-14
1.00001e-14
1.00001e-14
1e-14
1e-14
1e-14
1e-14
4.92187e-14
1.02478e-14
1e-14
1e-14
1e-14
1e-14
1e-14
1e-14
1e-14
1e-14
1e-14
1e-14
1e-14
1.00001e-14
3.00829e-13
1.49411e-14
1e-14
1e-14
1e-14
1e-14
1e-14
1e-14
1e-14
1e-14
1e-14
1e-14
1.00001e-14
1.00001e-14
1.18388e-14
1.00756e-14
1e-14
1e-14
1e-14
1e-14
1e-14
1e-14
1e-14
1e-14
1.00001e-14
1.00001e-14
1.00001e-14
1e-14
1.65255e-14
1e-14
1e-14
1e-14
1e-14
1e-14
1e-14
1e-14
1e-14
1.00001e-14
1e-14
1e-14
2.26493e-14
1.04133e-14
1e-14
1e-14
1e-14
1e-14
1e-14
1.00001e-14
1.00001e-14
1e-14
1e-14
1e-14
9.89131e-13
1e-14
1.05058e-14
1e-14
1e-14
1e-14
1.00001e-14
1.00001e-14
1e-14
1e-14
1e-14
1.00001e-14
3.71341e-13
1e-14
1.04094e-14
1e-14
1e-14
1.00001e-14
1.00001e-14
1e-14
1e-14
1.00001e-14
1.00001e-14
2.81877e-13
1.3656e-14
1.65256e-14
1.00753e-14
1e-14
1e-14
1e-14
1e-14
1.00001e-14
1e-14
6.65442e-14
1e-14
1.49417e-14
1.02478e-14
1.00687e-14
1e-14
1e-14
1e-14
6.24968e-14
3.13449e-14
1.01599e-14
1e-14
1e-14
1.45334e-14
1.21708e-14
1.30429e-12
1e-14
1e-14
1.44327e-14
1.31868e-14
7.58487e-14
1.07885e-14
1e-14
1e-14
1e-14
1.00001e-14
1.00001e-14
1.00001e-14
1e-14
1e-14
1e-14
1e-14
1e-14
1e-14
1e-14
6.31113e-14
1.12294e-14
1e-14
1e-14
1e-14
1e-14
1e-14
1e-14
1e-14
1e-14
1e-14
1e-14
1e-14
1e-14
1e-14
1e-14
1.00001e-14
1e-14
1e-14
1e-14
1e-14
1.00001e-14
1e-14
1e-14
1e-14
1e-14
1e-14
1e-14
1.00001e-14
1.21947e-14
1.00185e-14
1e-14
1e-14
1e-14
1e-14
1e-14
1e-14
1e-14
1e-14
1e-14
1e-14
1.00001e-14
1.00001e-14
2.94527e-14
1.00786e-14
1e-14
1e-14
1e-14
1e-14
1e-14
1e-14
1e-14
1e-14
1e-14
1e-14
1.00001e-14
1.00002e-14
6.87217e-14
1.09572e-14
1e-14
1e-14
1e-14
1e-14
1e-14
1e-14
1e-14
1e-14
1e-14
1e-14
1.00001e-14
1.00001e-14
1.13019e-14
1.00122e-14
1e-14
1e-14
1e-14
1e-14
1e-14
1e-14
1e-14
1.00001e-14
1e-14
1e-14
1.00001e-14
4.43651e-14
1.12992e-14
1e-14
1.00001e-14
1e-14
1e-14
1e-14
1e-14
1.00001e-14
1.00001e-14
1e-14
1e-14
1e-14
1.69337e-14
1.00727e-14
1e-14
1e-14
1e-14
1e-14
1.00001e-14
1.00001e-14
1e-14
1e-14
1e-14
1e-14
1e-14
1e-14
1.00997e-14
1e-14
1e-14
1e-14
1.00001e-14
1e-14
1e-14
1e-14
1e-14
1.00002e-14
1e-14
1e-14
1.00719e-14
1e-14
1e-14
1e-14
1e-14
1e-14
1e-14
1.00001e-14
1.00001e-14
1e-14
1e-14
1.12992e-14
1.0012e-14
1e-14
1e-14
1e-14
1.00001e-14
1.00001e-14
1e-14
3.19836e-14
1.01169e-14
1.09574e-14
1.00786e-14
1.00185e-14
1.00001e-14
1e-14
1e-14
1e-14
2.89283e-14
1e-14
1.00248e-14
1e-14
1.12299e-14
1.07888e-14
1e-14
8.51564e-14
1.86225e-14
2.24168e-14
1.0145e-14
1.17872e-14
1.02245e-14
1e-14
1e-14
1e-14
1e-14
1e-14
1e-14
1e-14
1e-14
1e-14
1e-14
1e-14
1e-14
1.00001e-14
1.08126e-14
1.03414e-14
1e-14
1e-14
1e-14
1e-14
1e-14
1e-14
1e-14
1e-14
1e-14
1e-14
1e-14
1e-14
1e-14
1.00799e-14
1e-14
1e-14
1e-14
1e-14
1e-14
1e-14
1e-14
1e-14
1e-14
1e-14
1e-14
1e-14
1e-14
1e-14
1.00191e-14
1.00047e-14
1e-14
1e-14
1e-14
1e-14
1e-14
1e-14
1e-14
1e-14
1e-14
1e-14
1e-14
1.00001e-14
1.04927e-14
1.00222e-14
1e-14
1e-14
1e-14
1e-14
1e-14
1e-14
1e-14
1e-14
1e-14
1e-14
1e-14
1.00001e-14
1.09713e-14
1.02197e-14
1e-14
1e-14
1e-14
1e-14
1e-14
1e-14
1e-14
1e-14
1e-14
1e-14
1.00001e-14
1e-14
1.00661e-14
1.00017e-14
1e-14
1e-14
1e-14
1e-14
1e-14
1e-14
1e-14
1.00001e-14
1e-14
1e-14
1e-14
1.02925e-14
1.02959e-14
1e-14
1.00001e-14
1e-14
1e-14
1e-14
1e-14
1.00001e-14
1e-14
1e-14
1e-14
1e-14
1.03328e-14
1.001e-14
1e-14
1e-14
1e-14
1e-14
1e-14
1e-14
1e-14
1e-14
1e-14
1e-14
1.00154e-14
1e-14
1.00176e-14
1e-14
1e-14
1e-14
1e-14
1e-14
1e-14
1e-14
1e-14
1.00002e-14
1.00034e-14
1e-14
1.00099e-14
1e-14
1e-14
1e-14
1e-14
1.00001e-14
1.00001e-14
1.00001e-14
1.00001e-14
1.00126e-14
1e-14
1.02959e-14
1.00016e-14
1e-14
1e-14
1e-14
1.00001e-14
1.00001e-14
1e-14
1.07543e-14
1e-14
1.02197e-14
1.00222e-14
1.00048e-14
1.00001e-14
1e-14
1e-14
1.00031e-14
1.06981e-14
1e-14
1.00193e-14
1e-14
1.03416e-14
1.02248e-14
1.11852e-14
1.01854e-14
1.06191e-14
1e-14
1.00359e-14
1.00542e-14
1e-14
1e-14
1e-14
1e-14
1e-14
1e-14
1e-14
1e-14
1e-14
1e-14
1e-14
1e-14
1.00002e-14
1.00128e-14
1.00843e-14
1e-14
1e-14
1e-14
1e-14
1e-14
1e-14
1e-14
1e-14
1e-14
1e-14
1e-14
1e-14
1e-14
1.00006e-14
1.00007e-14
1e-14
1e-14
1e-14
1e-14
1e-14
1e-14
1e-14
1e-14
1e-14
1e-14
1e-14
1e-14
1e-14
1.00016e-14
1.00012e-14
1e-14
1e-14
1e-14
1e-14
1e-14
1e-14
1e-14
1e-14
1e-14
1e-14
1e-14
1e-14
1.00095e-14
1.00051e-14
1e-14
1e-14
1e-14
1e-14
1e-14
1e-14
1e-14
1e-14
1e-14
1e-14
1e-14
1.00001e-14
1.00109e-14
1.00448e-14
1e-14
1e-14
1e-14
1e-14
1e-14
1e-14
1e-14
1e-14
1e-14
1e-14
1e-14
1e-14
1.0004e-14
1.00003e-14
1e-14
1e-14
1e-14
1e-14
1e-14
1e-14
1e-14
1e-14
1e-14
1e-14
1e-14
1.00034e-14
1.00592e-14
1e-14
1.00001e-14
1e-14
1e-14
1e-14
1e-14
1e-14
1e-14
1e-14
1e-14
1e-14
1.0011e-14
1.00012e-14
1e-14
1e-14
1e-14
1e-14
1e-14
1e-14
1e-14
1e-14
1e-14
1e-14
1.00002e-14
1.00012e-14
1.00028e-14
1e-14
1e-14
1e-14
1e-14
1e-14
1e-14
1e-14
1e-14
1.00001e-14
1e-14
1.00013e-14
1.00012e-14
1e-14
1e-14
1e-14
1.00001e-14
1e-14
1.00001e-14
1.00001e-14
1e-14
1e-14
1.00002e-14
1.00593e-14
1.00003e-14
1e-14
1e-14
1e-14
1.00001e-14
1e-14
1e-14
1.00172e-14
1e-14
1.00449e-14
1.00051e-14
1.00012e-14
1.00001e-14
1e-14
1e-14
1e-14
1.00195e-14
1.00003e-14
1.00016e-14
1.00007e-14
1.00843e-14
1.00543e-14
1.00214e-14
1.00032e-14
1.0021e-14
1.00037e-14
1.00011e-14
1.00116e-14
1e-14
1e-14
1e-14
1e-14
1e-14
1e-14
1e-14
1e-14
1e-14
1e-14
1e-14
1e-14
1.00002e-14
1.00004e-14
1.00182e-14
1e-14
1e-14
1e-14
1e-14
1e-14
1e-14
1e-14
1e-14
1e-14
1e-14
1e-14
1e-14
1e-14
1e-14
1.00002e-14
1e-14
1e-14
1e-14
1e-14
1e-14
1e-14
1e-14
1e-14
1e-14
1e-14
1e-14
1e-14
1.00001e-14
1.00001e-14
1.00002e-14
1e-14
1e-14
1e-14
1e-14
1e-14
1e-14
1e-14
1e-14
1e-14
1e-14
1e-14
1.00001e-14
1.00001e-14
1.0001e-14
1e-14
1e-14
1e-14
1e-14
1e-14
1e-14
1e-14
1e-14
1e-14
1e-14
1e-14
1e-14
1.00001e-14
1.0008e-14
1e-14
1e-14
1e-14
1e-14
1e-14
1e-14
1e-14
1e-14
1e-14
1e-14
1e-14
1e-14
1.00006e-14
1.00001e-14
1e-14
1e-14
1e-14
1e-14
1e-14
1e-14
1e-14
1e-14
1e-14
1e-14
1e-14
1e-14
1.00101e-14
1e-14
1e-14
1e-14
1e-14
1e-14
1e-14
1e-14
1e-14
1e-14
1e-14
1e-14
1.00006e-14
1.00001e-14
1e-14
1e-14
1e-14
1e-14
1e-14
1e-14
1e-14
1e-14
1e-14
1e-14
1e-14
1.00001e-14
1.00004e-14
1e-14
1e-14
1e-14
1e-14
1e-14
1e-14
1e-14
1e-14
1e-14
1e-14
1.00002e-14
1.00002e-14
1e-14
1e-14
1e-14
1e-14
1e-14
1e-14
1e-14
1e-14
1e-14
1.00001e-14
1.00102e-14
1.00001e-14
1e-14
1e-14
1e-14
1e-14
1e-14
1e-14
1.00007e-14
1e-14
1.0008e-14
1.0001e-14
1.00003e-14
1e-14
1e-14
1e-14
1e-14
1.00005e-14
1.00001e-14
1.00002e-14
1.00002e-14
1.00182e-14
1.00117e-14
1.00001e-14
1e-14
1.00015e-14
1.00009e-14
1.00001e-14
1.00023e-14
1e-14
1e-14
1e-14
1e-14
1e-14
1e-14
1e-14
1e-14
1e-14
1e-14
1.00001e-14
1.00001e-14
1.00002e-14
1.00001e-14
1.00035e-14
1e-14
1e-14
1e-14
1e-14
1e-14
1e-14
1e-14
1e-14
1e-14
1.00001e-14
1.00001e-14
1e-14
1.00001e-14
1e-14
1e-14
1e-14
1e-14
1e-14
1e-14
1e-14
1e-14
1e-14
1e-14
1e-14
1e-14
1e-14
1e-14
1.00001e-14
1e-14
1e-14
1e-14
1e-14
1e-14
1e-14
1e-14
1e-14
1e-14
1e-14
1e-14
1e-14
1e-14
1e-14
1e-14
1.00002e-14
1e-14
1e-14
1e-14
1e-14
1e-14
1e-14
1e-14
1e-14
1e-14
1e-14
1e-14
1e-14
1e-14
1.00013e-14
1e-14
1e-14
1e-14
1e-14
1e-14
1e-14
1e-14
1e-14
1e-14
1e-14
1e-14
1e-14
1.00002e-14
1e-14
1.00001e-14
1.00001e-14
1e-14
1e-14
1e-14
1e-14
1e-14
1e-14
1e-14
1e-14
1.00001e-14
1.00004e-14
1.00015e-14
1.00001e-14
1e-14
1e-14
1e-14
1e-14
1e-14
1e-14
1e-14
1e-14
1e-14
1.00001e-14
1.00001e-14
1e-14
1e-14
1e-14
1.00001e-14
1e-14
1e-14
1e-14
1e-14
1e-14
1e-14
1e-14
1.00001e-14
1e-14
1.00001e-14
1e-14
1e-14
1e-14
1e-14
1e-14
1e-14
1e-14
1e-14
1e-14
1e-14
1.00001e-14
1.00001e-14
1e-14
1e-14
1e-14
1e-14
1e-14
1e-14
1e-14
1e-14
1e-14
1e-14
1.00016e-14
1e-14
1e-14
1e-14
1e-14
1e-14
1e-14
1e-14
1e-14
1e-14
1.00013e-14
1.00002e-14
1e-14
1e-14
1e-14
1e-14
1e-14
1e-14
1e-14
1.00001e-14
1e-14
1.00035e-14
1.00023e-14
1e-14
1.00002e-14
1.00002e-14
1.00001e-14
1e-14
1.00004e-14
1e-14
1e-14
1e-14
1e-14
1.00001e-14
1e-14
1e-14
1e-14
1.00001e-14
1.00001e-14
1.00002e-14
1.00001e-14
1.00003e-14
1e-14
1.00006e-14
1e-14
1e-14
1e-14
1e-14
1.00001e-14
1e-14
1e-14
1e-14
1.00001e-14
1.00001e-14
1e-14
1e-14
1.00001e-14
1e-14
1e-14
1e-14
1e-14
1e-14
1e-14
1e-14
1e-14
1e-14
1e-14
1e-14
1e-14
1e-14
1e-14
1.00001e-14
1e-14
1e-14
1e-14
1e-14
1e-14
1e-14
1e-14
1e-14
1e-14
1e-14
1e-14
1e-14
1e-14
1.00001e-14
1e-14
1e-14
1e-14
1e-14
1.00001e-14
1e-14
1e-14
1e-14
1e-14
1e-14
1e-14
1e-14
1e-14
1e-14
1e-14
1.00002e-14
1e-14
1.00001e-14
1.00001e-14
1e-14
1e-14
1e-14
1e-14
1e-14
1e-14
1e-14
1e-14
1e-14
1e-14
1.00001e-14
1.00001e-14
1.00001e-14
1e-14
1e-14
1e-14
1e-14
1e-14
1e-14
1e-14
1e-14
1e-14
1e-14
1.00002e-14
1.00001e-14
1e-14
1e-14
1e-14
1e-14
1e-14
1e-14
1e-14
1e-14
1e-14
1e-14
1e-14
1e-14
1e-14
1e-14
1e-14
1e-14
1e-14
1e-14
1e-14
1e-14
1e-14
1e-14
1e-14
1e-14
1.00001e-14
1e-14
1.00001e-14
1e-14
1e-14
1e-14
1e-14
1e-14
1e-14
1.00001e-14
1e-14
1.00001e-14
1e-14
1e-14
1e-14
1e-14
1e-14
1e-14
1e-14
1e-14
1.00001e-14
1e-14
1e-14
1.00003e-14
1e-14
1e-14
1e-14
1e-14
1e-14
1e-14
1.00001e-14
1.00001e-14
1.00002e-14
1.00002e-14
1e-14
1e-14
1e-14
1.00001e-14
1e-14
1.00002e-14
1e-14
1e-14
1e-14
1e-14
1.00006e-14
1.00004e-14
1e-14
1.00002e-14
1e-14
1e-14
1e-14
1.00001e-14
1.00001e-14
1.00001e-14
1.00001e-14
1.00001e-14
1.00001e-14
1.00001e-14
1.00001e-14
1.00001e-14
1.00002e-14
1.00001e-14
1.00001e-14
1.00002e-14
1.00006e-14
1e-14
1.00001e-14
1e-14
1e-14
1e-14
1.00001e-14
1e-14
1e-14
1e-14
1e-14
1.00001e-14
1e-14
1e-14
1e-14
1.00001e-14
1e-14
1e-14
1e-14
1e-14
1e-14
1e-14
1e-14
1e-14
1e-14
1e-14
1.00001e-14
1e-14
1e-14
1e-14
1.00001e-14
1e-14
1e-14
1e-14
1.00001e-14
1e-14
1e-14
1e-14
1e-14
1e-14
1e-14
1e-14
1e-14
1e-14
1e-14
1e-14
1e-14
1e-14
1e-14
1.00001e-14
1.00001e-14
1e-14
1e-14
1e-14
1e-14
1e-14
1e-14
1e-14
1e-14
1e-14
1e-14
1e-14
1.00001e-14
1.00001e-14
1e-14
1e-14
1e-14
1e-14
1e-14
1e-14
1e-14
1e-14
1e-14
1.00001e-14
1e-14
1e-14
1e-14
1e-14
1.00001e-14
1.00001e-14
1e-14
1e-14
1e-14
1e-14
1e-14
1e-14
1e-14
1e-14
1e-14
1e-14
1.00001e-14
1.00001e-14
1.00001e-14
1e-14
1e-14
1e-14
1e-14
1e-14
1e-14
1e-14
1e-14
1e-14
1.00001e-14
1.00001e-14
1.00001e-14
1e-14
1e-14
1e-14
1e-14
1e-14
1e-14
1.00001e-14
1e-14
1.00001e-14
1.00001e-14
1.00001e-14
1.00001e-14
1e-14
1e-14
1e-14
1e-14
1e-14
1.00002e-14
1e-14
1.00001e-14
1.00001e-14
1.00001e-14
1e-14
1e-14
1e-14
1e-14
1e-14
1.00001e-14
1.00001e-14
1e-14
1e-14
1.00001e-14
1e-14
1e-14
1e-14
1e-14
1.00001e-14
1.00001e-14
1e-14
1e-14
1e-14
1e-14
1e-14
1e-14
1e-14
1e-14
1e-14
1.00001e-14
1e-14
1e-14
1e-14
1e-14
1.00002e-14
1.00001e-14
1e-14
1e-14
1e-14
1e-14
1.00003e-14
1.00001e-14
1.00002e-14
1e-14
1e-14
1e-14
1e-14
1e-14
1.00001e-14
1.00001e-14
1e-14
1e-14
1e-14
1e-14
1.00005e-14
1e-14
1e-14
1e-14
1e-14
1e-14
1e-14
1e-14
1e-14
1e-14
1e-14
1e-14
1e-14
1e-14
1e-14
1.00002e-14
1e-14
1e-14
1.00001e-14
1e-14
1e-14
1e-14
1e-14
1e-14
1e-14
1e-14
1e-14
1e-14
1.00001e-14
1.00001e-14
1.00002e-14
1e-14
1e-14
1e-14
1e-14
1e-14
1e-14
1e-14
1e-14
1e-14
1e-14
1e-14
1e-14
1e-14
1.00002e-14
1.00001e-14
1e-14
1.00001e-14
1.00001e-14
1.00001e-14
1e-14
1e-14
1e-14
1e-14
1e-14
1e-14
1e-14
1e-14
1e-14
1e-14
1e-14
1.00001e-14
1.00001e-14
1.00001e-14
1.00001e-14
1e-14
1.00001e-14
1e-14
1e-14
1e-14
1e-14
1e-14
1e-14
1e-14
1e-14
1.00001e-14
1e-14
1e-14
1.00001e-14
1e-14
1e-14
1e-14
1e-14
1e-14
1e-14
1e-14
1e-14
1e-14
1e-14
1.00001e-14
1.00001e-14
1.00001e-14
1.00001e-14
1e-14
1e-14
1e-14
1e-14
1e-14
1e-14
1e-14
1e-14
1.00001e-14
1.00001e-14
1.00001e-14
1.00001e-14
1e-14
1e-14
1e-14
1e-14
1e-14
1e-14
1.00001e-14
1.00001e-14
1.00001e-14
1.00001e-14
1.00001e-14
1e-14
1e-14
1e-14
1e-14
1e-14
1e-14
1e-14
1.00003e-14
1.00001e-14
1.00001e-14
1e-14
1e-14
1e-14
1e-14
1e-14
1e-14
1e-14
1e-14
1.00002e-14
1.00001e-14
1e-14
1e-14
1e-14
1e-14
1e-14
1e-14
1e-14
1e-14
1e-14
1e-14
1e-14
1e-14
1e-14
1e-14
1e-14
1.00001e-14
1.00001e-14
1e-14
1e-14
1e-14
1e-14
1.00001e-14
1.00001e-14
1e-14
1e-14
1e-14
1.00001e-14
6.4553e-13
3.19971e-14
6.87997e-13
3.52084e-14
7.26924e-13
4.24853e-14
6.00216e-14
1.06158e-13
1.57745e-14
1.15665e-14
1.24817e-13
1.68957e-13
1.5159e-12
7.17192e-14
1.49083e-14
6.66452e-14
1.01696e-14
4.34976e-13
2.72817e-14
9.66884e-14
1.09822e-14
5.49895e-13
2.09608e-14
1.03257e-14
7.6256e-14
1.39283e-14
1.3062e-12
1.77956e-13
1.92784e-14
1.64015e-13
1e-14
4.63114e-14
1.07605e-14
5.50039e-13
2.42042e-14
1.35759e-12
1.4161e-13
1.23772e-12
1.27884e-12
1.2861e-13
1.27522e-12
1.23622e-12
1.41361e-13
1.35768e-12
2.41822e-14
1.07615e-14
5.50029e-13
4.63158e-14
1e-14
1.64015e-13
1.92928e-14
1.7856e-13
1.39537e-14
1.03589e-14
7.6817e-14
2.15248e-14
1.30454e-12
5.50128e-13
1.2e-14
9.37719e-14
2.73103e-14
4.36215e-13
1.02338e-14
1.47113e-14
6.64935e-14
6.97283e-14
1.51632e-12
1.53463e-13
1.22279e-13
1.10499e-14
1.60864e-14
1.06293e-13
5.89061e-14
4.21298e-14
7.3023e-13
3.50551e-14
3.1593e-14
6.9096e-13
6.46654e-13
1.93086e-14
4.59855e-13
2.08264e-14
6.35861e-13
2.90274e-14
6.79575e-13
3.21719e-14
2.82945e-14
1.75399e-14
7.18917e-13
3.8385e-14
5.26507e-14
4.55315e-14
1e-14
9.39774e-14
1.46439e-14
1.04098e-14
1e-14
1.11823e-14
1.13246e-13
1e-14
1.30759e-12
1.45604e-13
1.50483e-12
1e-14
1e-14
1.02737e-14
6.22497e-14
1.3294e-14
6.17986e-14
1.0238e-14
2.01536e-14
3.62146e-14
4.31625e-13
2.51847e-14
8.6482e-14
1.03201e-14
8.28616e-14
1.28672e-14
5.52157e-13
1.03222e-14
5.14567e-14
1e-14
1.96845e-14
1.02088e-14
6.97764e-14
1.32248e-14
9.14138e-13
1.29726e-12
1.6056e-14
5.01582e-14
1.6966e-13
1.83471e-14
1.5054e-13
1e-14
1e-14
1.02615e-14
3.73333e-13
1.35477e-14
4.35778e-14
1.04382e-14
5.40064e-13
2.18042e-14
4.36845e-14
2.61743e-13
1.34123e-12
1.28238e-13
1.2558e-12
3.45174e-14
3.4424e-13
1.29237e-12
1.15625e-13
1.28847e-12
4.36562e-14
9.92401e-13
1.25417e-12
1.28072e-13
1.34111e-12
1.02626e-14
3.73261e-13
2.35522e-14
2.17914e-14
1.0439e-14
5.40068e-13
4.35728e-14
1e-14
1e-14
1.60455e-14
1e-14
1.50532e-13
1.8336e-14
1.69337e-13
1.03294e-14
5.16893e-14
1.11907e-14
1.32515e-14
1.02138e-14
6.99694e-14
1.97697e-14
9.14812e-13
1.29732e-12
1.0092e-14
5.52361e-13
1.28465e-14
2.0274e-14
3.06553e-13
8.69634e-14
2.53862e-14
4.32046e-13
1e-14
1e-14
5.1972e-14
1.02298e-14
1.33747e-14
6.18554e-14
6.29551e-14
1e-14
1.50539e-12
1.46786e-13
1.04767e-14
1.14161e-13
1.11566e-14
4.69782e-14
1.47182e-14
9.49754e-14
2.82966e-14
4.96142e-13
5.3058e-14
3.86044e-14
7.19498e-13
1.93696e-14
4.65019e-13
4.47156e-13
3.24065e-14
2.92175e-14
6.80191e-13
6.36235e-13
1.91643e-14
4.65633e-13
2.06782e-14
6.35794e-13
2.88955e-14
6.792e-13
3.20387e-14
2.75531e-14
1.71117e-14
7.19095e-13
3.82296e-14
5.21289e-14
4.7999e-14
1e-14
9.34325e-14
1.45619e-14
1.0377e-14
1e-14
1.10846e-14
1.13817e-13
1e-14
1.31097e-12
1.47035e-13
1.50557e-12
1e-14
1e-14
1.03305e-14
6.19926e-14
1.31264e-14
6.04209e-14
1.0208e-14
1.98681e-14
3.49704e-14
4.32206e-13
2.5122e-14
8.66042e-14
1e-14
9.60527e-14
1.34427e-14
5.49655e-13
1.02895e-14
5.15956e-14
1e-14
1.97966e-14
1.01989e-14
7.00848e-14
1.30337e-14
9.23898e-13
1.29804e-12
1.57546e-14
5.3203e-14
1.72199e-13
1.81672e-14
1.49536e-13
1e-14
1e-14
1.02699e-14
3.75432e-13
1.31118e-14
4.39533e-14
1.0454e-14
5.40359e-13
2.13696e-14
4.62834e-14
2.88728e-13
1.34322e-12
1.26238e-13
1.24873e-12
3.64681e-14
3.72489e-13
1.2856e-12
1.14167e-13
1.28169e-12
4.6254e-14
9.9489e-13
1.2471e-12
1.26075e-13
1.34308e-12
1.02709e-14
3.75395e-13
2.32148e-14
2.13575e-14
1.04535e-14
5.40353e-13
4.39459e-14
1e-14
1e-14
1.57537e-14
1e-14
1.49561e-13
1.8167e-14
1.72146e-13
1.029e-14
5.16837e-14
1.09601e-14
1.30353e-14
1.02001e-14
7.01103e-14
1.98071e-14
9.23872e-13
1.29825e-12
1e-14
5.49666e-13
1.34343e-14
1.99406e-14
3.08085e-13
8.67079e-14
2.51565e-14
4.32205e-13
1e-14
1e-14
5.07402e-14
1.02065e-14
1.31348e-14
6.04019e-14
6.21208e-14
1e-14
1.50614e-12
1.47138e-13
1.03864e-14
1.13913e-13
1.10873e-14
4.83296e-14
1.45782e-14
9.35539e-14
2.76339e-14
4.9813e-13
5.21814e-14
3.82843e-14
7.19054e-13
1.92378e-14
4.6558e-13
4.47335e-13
3.21052e-14
2.89305e-14
6.79347e-13
6.3556e-13
1.93033e-14
4.66213e-13
2.08195e-14
6.35932e-13
2.89642e-14
6.79197e-13
3.21225e-14
2.76487e-14
1.71515e-14
7.19099e-13
3.8346e-14
5.21749e-14
4.89566e-14
1e-14
9.37018e-14
1.45522e-14
1.0377e-14
1e-14
1.10735e-14
1.1378e-13
1e-14
1.30777e-12
1.47336e-13
1.50577e-12
1e-14
1e-14
1.03377e-14
6.21563e-14
1.31068e-14
6.01248e-14
1.02026e-14
1.99651e-14
3.54243e-14
4.32573e-13
2.52068e-14
8.6845e-14
1e-14
9.56775e-14
1.35554e-14
5.48484e-13
1.02796e-14
5.21374e-14
1e-14
1.98823e-14
1.01918e-14
7.03367e-14
1.29897e-14
9.25169e-13
1.29854e-12
1.57238e-14
5.40951e-14
1.73756e-13
1.81534e-14
1.49469e-13
1e-14
1e-14
1.02687e-14
3.75915e-13
1.30208e-14
4.40774e-14
1.04464e-14
5.40532e-13
2.13403e-14
4.71975e-14
2.89371e-13
1.3435e-12
1.26012e-13
1.24711e-12
3.71596e-14
3.73438e-13
1.28398e-12
1.14025e-13
1.2801e-12
4.71634e-14
9.94349e-13
1.24556e-12
1.2584e-13
1.34351e-12
1.02693e-14
3.75861e-13
2.33137e-14
2.13274e-14
1.04458e-14
5.40491e-13
4.40745e-14
1e-14
1e-14
1.57239e-14
1e-14
1.49479e-13
1.81528e-14
1.73734e-13
1.02801e-14
5.2154e-14
1.09706e-14
1.29903e-14
1.01927e-14
7.03386e-14
1.98844e-14
9.25285e-13
1.29849e-12
1e-14
5.48464e-13
1.35509e-14
1.99735e-14
3.08343e-13
8.68646e-14
2.52127e-14
4.32574e-13
1e-14
1e-14
5.08791e-14
1.02021e-14
1.31089e-14
6.01133e-14
6.21816e-14
1e-14
1.50596e-12
1.4735e-13
1.03818e-14
1.13805e-13
1.10703e-14
4.90159e-14
1.45538e-14
9.37226e-14
2.76764e-14
4.9883e-13
5.21888e-14
3.83629e-14
7.19152e-13
1.93219e-14
4.65998e-13
4.47796e-13
3.21442e-14
2.8971e-14
6.79239e-13
6.35479e-13
1.93101e-14
4.65932e-13
2.08311e-14
6.35835e-13
2.90481e-14
6.79404e-13
3.22389e-14
2.76715e-14
1.70314e-14
7.19375e-13
3.85426e-14
5.24949e-14
4.92775e-14
1e-14
9.42512e-14
1.45458e-14
1.03742e-14
1e-14
1.1085e-14
1.13611e-13
1e-14
1.3067e-12
1.47398e-13
1.5056e-12
1e-14
1e-14
1.03347e-14
6.23367e-14
1.30969e-14
5.96937e-14
1.01982e-14
1.9982e-14
3.53259e-14
4.33119e-13
2.52663e-14
8.69841e-14
1e-14
9.51032e-14
1.36486e-14
5.47493e-13
1.02738e-14
5.22149e-14
1e-14
1.99324e-14
1.01819e-14
7.03933e-14
1.29469e-14
9.25619e-13
1.29872e-12
1.57022e-14
5.4065e-14
1.7515e-13
1.81416e-14
1.49246e-13
1e-14
1e-14
1.02643e-14
3.76089e-13
1.30076e-14
4.40784e-14
1.04366e-14
5.405e-13
2.13274e-14
4.72917e-14
2.88875e-13
1.34353e-12
1.2602e-13
1.24687e-12
3.72297e-14
3.73164e-13
1.28361e-12
1.14058e-13
1.27974e-12
4.72663e-14
9.94352e-13
1.24528e-12
1.25852e-13
1.34348e-12
1.02652e-14
3.76033e-13
2.33519e-14
2.13152e-14
1.04359e-14
5.40496e-13
4.40734e-14
1e-14
1e-14
1.57026e-14
1e-14
1.49244e-13
1.81403e-14
1.75151e-13
1.0274e-14
5.2215e-14
1.10025e-14
1.29471e-14
1.01822e-14
7.03941e-14
1.99326e-14
9.2535e-13
1.29861e-12
1e-14
5.47449e-13
1.36467e-14
1.99837e-14
3.0843e-13
8.69952e-14
2.52685e-14
4.33141e-13
1e-14
1e-14
5.10226e-14
1.01981e-14
1.30967e-14
5.96997e-14
6.23406e-14
1e-14
1.5055e-12
1.47368e-13
1.03751e-14
1.13606e-13
1.10843e-14
4.9286e-14
1.45491e-14
9.42517e-14
2.76741e-14
4.98654e-13
5.24864e-14
3.85396e-14
7.19289e-13
1.93165e-14
4.65801e-13
4.4768e-13
3.22341e-14
2.90641e-14
6.79371e-13
6.35899e-13
1.92808e-14
4.65119e-13
2.08085e-14
6.36047e-13
2.92255e-14
6.79943e-13
3.25261e-14
2.76876e-14
1.67703e-14
7.19327e-13
3.90942e-14
5.35481e-14
4.98747e-14
1e-14
9.53806e-14
1.46513e-14
1.0357e-14
1e-14
1.12194e-14
1.13591e-13
1e-14
1.30506e-12
1.48031e-13
1.50515e-12
1e-14
1e-14
1.03226e-14
6.2998e-14
1.30769e-14
5.86443e-14
1.01903e-14
1.99676e-14
3.50446e-14
4.34618e-13
2.5388e-14
8.73797e-14
1e-14
9.38266e-14
1.37809e-14
5.46062e-13
1.02749e-14
5.22117e-14
1e-14
1.99967e-14
1.0168e-14
7.061e-14
1.29032e-14
9.25535e-13
1.29889e-12
1.56153e-14
5.36486e-14
1.77062e-13
1.81834e-14
1.49234e-13
1e-14
1e-14
1.02399e-14
3.76284e-13
1.29817e-14
4.41295e-14
1.04296e-14
5.40421e-13
2.13601e-14
4.72168e-14
2.88604e-13
1.34346e-12
1.26523e-13
1.24615e-12
3.72025e-14
3.72946e-13
1.28295e-12
1.14352e-13
1.2791e-12
4.71804e-14
9.94193e-13
1.24458e-12
1.26368e-13
1.34335e-12
1.02404e-14
3.76227e-13
2.32946e-14
2.1346e-14
1.04286e-14
5.40422e-13
4.41208e-14
1e-14
1e-14
1.56144e-14
1e-14
1.49226e-13
1.8181e-14
1.77043e-13
1.02749e-14
5.221e-14
1.10572e-14
1.29034e-14
1.0168e-14
7.06113e-14
1.99964e-14
9.25383e-13
1.29879e-12
1e-14
5.46062e-13
1.37798e-14
1.997e-14