/*--------------------------------*- C++ -*----------------------------------*\
| =========                 |                                                 |
| \\      /  F ield         | OpenFOAM: The Open Source CFD Toolbox           |
|  \\    /   O peration     | Version:  2.1.1                                 |
|   \\  /    A nd           | Web:      www.OpenFOAM.org                      |
|    \\/     M anipulation  |                                                 |
\*---------------------------------------------------------------------------*/
FoamFile
{
    version     2.0;
    format      ascii;
    class       volScalarField;
    location    "0.003";
    object      p;
}
// * * * * * * * * * * * * * * * * * * * * * * * * * * * * * * * * * * * * * //

dimensions      [0 2 -2 0 0 0 0];

internalField   nonuniform List<scalar> 
10229
(
0.0225677
0.0200561
0.0198258
0.0199715
0.0198394
0.0198964
0.0198122
0.019823
0.0197615
0.0197537
0.0197106
0.019697
0.0196696
0.0196606
0.0196514
0.0229718
0.0200861
0.0198293
0.0199731
0.019843
0.0199011
0.0198187
0.0198289
0.01977
0.0197607
0.0197185
0.0197051
0.0196787
0.0196697
0.0196609
0.024347
0.0199714
0.0198668
0.0199487
0.0198588
0.0198961
0.0198275
0.0198323
0.0197772
0.0197672
0.0197267
0.0197135
0.0196877
0.0196789
0.0196702
0.0201608
0.0198235
0.0199791
0.0198666
0.019909
0.0198434
0.0198462
0.0197965
0.0197861
0.0197495
0.0197368
0.0197135
0.0197056
0.0196977
0.0285958
0.0199409
0.0199133
0.0198908
0.0199033
0.0198542
0.0198523
0.0198068
0.0197969
0.0197616
0.0197495
0.0197271
0.0197193
0.0197115
0.0229591
0.0200766
0.0199031
0.0199244
0.0199052
0.0198813
0.019869
0.019837
0.0198241
0.0197969
0.0197865
0.0197683
0.0197621
0.0197554
0.0305563
0.0199896
0.0198644
0.0199363
0.0198703
0.019881
0.0198418
0.0198366
0.0198066
0.0197969
0.0197781
0.0197709
0.0197638
0.0231072
0.0200895
0.0198964
0.0199213
0.0199057
0.0198985
0.019885
0.0198698
0.0198522
0.0198458
0.019832
0.0198295
0.019824
0.0283931
0.0199409
0.0199576
0.019917
0.0199076
0.0198749
0.019879
0.0198521
0.0198416
0.0198259
0.0198176
0.0198122
0.0252134
0.0201758
0.0197855
0.019958
0.0199227
0.0199387
0.0199074
0.0199018
0.0199078
0.0198949
0.0199003
0.0198967
0.0408398
0.0201792
0.0199411
0.0198976
0.019866
0.0199257
0.0198908
0.0198663
0.0198584
0.0198426
0.0198399
0.0386326
0.0326652
0.0200906
0.0199906
0.0199045
0.0199149
0.0199796
0.0199491
0.0199728
0.019972
0.0299924
0.0311182
0.0200778
0.0199417
0.0198233
0.0198674
0.0198303
0.0198263
0.0230698
0.0281695
0.0305165
0.0201626
0.0199726
0.0200871
0.0200572
0.0360507
0.0318785
0.0316532
0.0309942
0.0215188
0.0190065
0.0187728
0.0189181
0.0187807
0.0188328
0.0187416
0.0187469
0.0186785
0.0186634
0.0186119
0.0185926
0.0185598
0.0185471
0.0185362
0.0219236
0.0190357
0.0187709
0.0189267
0.0187855
0.0188389
0.0187506
0.0187541
0.0186867
0.0186713
0.0186215
0.0186026
0.0185706
0.0185583
0.0185475
0.0232991
0.0189223
0.0188153
0.0188955
0.0188018
0.0188349
0.0187615
0.0187592
0.0186964
0.0186802
0.0186326
0.0186139
0.018583
0.0185709
0.0185604
0.0191116
0.018772
0.018928
0.0188091
0.0188489
0.0187785
0.0187755
0.0187189
0.0187027
0.0186595
0.018642
0.0186139
0.0186032
0.0185934
0.0275491
0.0188913
0.0188597
0.0188368
0.0188425
0.0187882
0.0187837
0.0187324
0.0187175
0.0186763
0.0186596
0.0186329
0.0186223
0.0186131
0.021911
0.019028
0.0188518
0.0188707
0.0188481
0.0188122
0.0188027
0.018767
0.0187501
0.0187176
0.0187028
0.0186805
0.0186721
0.0186643
0.029509
0.0189393
0.0188113
0.0188824
0.0188118
0.0188212
0.0187756
0.018768
0.0187328
0.0187186
0.0186962
0.018687
0.0186793
0.022059
0.019042
0.0188455
0.0188673
0.0188515
0.0188405
0.0188241
0.0188074
0.0187849
0.018774
0.0187568
0.0187522
0.0187469
0.0273453
0.0188907
0.0189089
0.0188633
0.0188537
0.0188181
0.0188269
0.0187909
0.0187734
0.018754
0.0187444
0.0187398
0.0241653
0.0191272
0.0187349
0.0189097
0.0188695
0.0188864
0.018853
0.0188441
0.0188471
0.0188319
0.0188368
0.0188324
0.0398082
0.0191314
0.0188917
0.0188474
0.0188137
0.0188725
0.0188377
0.0188092
0.0188014
0.018785
0.0187809
0.0375907
0.0316195
0.0190437
0.0189408
0.0188534
0.0188607
0.0189286
0.0188959
0.0189273
0.0189186
0.0289452
0.0300708
0.0190289
0.018892
0.0187729
0.018816
0.0187705
0.0187731
0.022022
0.0271217
0.029469
0.0191124
0.0189231
0.0190361
0.0190073
0.0350052
0.0308318
0.0306054
0.0299464
0.0204757
0.0179622
0.0177236
0.017867
0.0177228
0.0177688
0.0176662
0.0176672
0.0175899
0.0175672
0.0175072
0.0174814
0.0174415
0.0174243
0.0174104
0.0208802
0.017991
0.0177224
0.0178765
0.0177278
0.0177758
0.0176758
0.0176752
0.0175995
0.017577
0.0175186
0.0174931
0.0174545
0.0174381
0.0174245
0.0222557
0.0178775
0.0177682
0.0178443
0.017746
0.0177729
0.0176893
0.0176827
0.0176118
0.0175886
0.0175326
0.0175076
0.0174707
0.0174548
0.0174418
0.0180676
0.0177227
0.0178805
0.0177536
0.0177899
0.01771
0.0177029
0.0176381
0.0176153
0.0175645
0.0175414
0.0175076
0.0174935
0.0174816
0.0265066
0.0178458
0.0178107
0.0177842
0.0177861
0.0177291
0.0177158
0.017656
0.0176349
0.0175868
0.0175647
0.017533
0.0175192
0.017508
0.0208674
0.0179828
0.0178047
0.0178195
0.0177938
0.0177581
0.0177396
0.0176962
0.0176737
0.0176349
0.0176155
0.0175888
0.0175775
0.0175678
0.0284661
0.0178929
0.0177622
0.0178337
0.0177574
0.0177615
0.0177094
0.0176969
0.0176564
0.0176382
0.0176117
0.0175996
0.0175907
0.0210151
0.0179983
0.0177978
0.0178175
0.0177996
0.0177842
0.0177632
0.0177418
0.0177166
0.0177025
0.0176815
0.0176745
0.0176674
0.0263019
0.0178448
0.0178635
0.0178125
0.0178018
0.0177607
0.0177617
0.0177297
0.017709
0.0176876
0.0176747
0.0176669
0.0231219
0.018086
0.0176879
0.0178639
0.01782
0.0178377
0.0177959
0.0177872
0.0177895
0.0177719
0.0177753
0.0177694
0.0387837
0.018083
0.0178452
0.0178001
0.0177652
0.0178211
0.0177853
0.0177542
0.0177461
0.017728
0.0177237
0.0365486
0.0305768
0.0180004
0.0178947
0.0178062
0.0178117
0.0178813
0.0178447
0.0178769
0.0178676
0.0279024
0.0290265
0.017984
0.0178469
0.0177237
0.0177691
0.017723
0.0177242
0.0209779
0.026079
0.0284264
0.0180688
0.0178782
0.017992
0.0179635
0.0339635
0.0297893
0.029563
0.0289032
0.0194381
0.0169227
0.0166787
0.0168196
0.0166669
0.0167079
0.016596
0.0165867
0.0164972
0.0164657
0.0163951
0.0163615
0.0163141
0.0162925
0.0162741
0.0198422
0.0169516
0.0166774
0.0168299
0.0166722
0.0167153
0.0166049
0.0165957
0.0165083
0.0164773
0.0164085
0.0163757
0.0163297
0.0163087
0.0162915
0.0212176
0.0168376
0.0167255
0.0167971
0.0166926
0.0167128
0.0166196
0.0166051
0.0165234
0.0164919
0.0164262
0.0163941
0.0163501
0.01633
0.016314
0.0170285
0.0166774
0.0168371
0.0167007
0.0167328
0.0166424
0.0166288
0.0165541
0.0165238
0.0164639
0.0164342
0.0163938
0.016376
0.0163616
0.0254692
0.0168043
0.0167661
0.0167365
0.0167308
0.0166626
0.0166453
0.016577
0.0165488
0.0164924
0.0164641
0.0164265
0.0164092
0.016396
0.0198285
0.0169425
0.0167616
0.0167702
0.0167436
0.0166991
0.0166748
0.0166237
0.0165949
0.0165488
0.0165241
0.0164921
0.0164777
0.0164662
0.0274278
0.0168503
0.0167157
0.016783
0.0167021
0.0167016
0.0166425
0.0166245
0.0165777
0.0165546
0.0165235
0.0165087
0.0164981
0.0199757
0.0169581
0.0167536
0.0167699
0.0167487
0.0167296
0.0167033
0.0166769
0.0166466
0.0166289
0.0166045
0.016596
0.016587
0.0252631
0.0168019
0.0168209
0.0167643
0.0167523
0.0167058
0.0167022
0.0166639
0.0166428
0.0166196
0.0166052
0.0165969
0.0220832
0.0170435
0.0166451
0.016822
0.0167732
0.0167865
0.0167464
0.0167323
0.0167333
0.0167127
0.0167159
0.0167088
0.037734
0.0170456
0.0168035
0.0167566
0.0167188
0.0167729
0.016737
0.0167013
0.0166934
0.0166733
0.0166684
0.0355136
0.0295396
0.0169606
0.0168521
0.0167636
0.0167671
0.0168379
0.0167979
0.016831
0.0168204
0.0268644
0.0279875
0.0169437
0.0168052
0.0166785
0.0167268
0.0166784
0.0166798
0.0199389
0.0250411
0.0273877
0.0170296
0.0168387
0.016953
0.0169235
0.0329278
0.0287527
0.0285255
0.0278653
0.018406
0.0158885
0.0156385
0.0157764
0.015613
0.0156478
0.015522
0.0155036
0.0154
0.0153585
0.0152754
0.0152325
0.0151764
0.0151483
0.0151261
0.0188104
0.015918
0.0156367
0.0157876
0.0156186
0.0156559
0.0155319
0.015514
0.0154126
0.0153719
0.0152913
0.0152495
0.0151953
0.0151684
0.0151476
0.0201857
0.0158029
0.0156876
0.0157541
0.0156413
0.015654
0.0155492
0.0155252
0.015431
0.0153901
0.0153132
0.0152726
0.0152208
0.0151956
0.0151764
0.0159953
0.0156367
0.0157981
0.0156495
0.0156776
0.0155748
0.0155534
0.0154667
0.0154279
0.0153573
0.0153195
0.0152723
0.0152497
0.0152325
0.024438
0.0157678
0.0157253
0.0156893
0.0156773
0.0155992
0.0155742
0.0154954
0.0154589
0.0153927
0.0153576
0.0153134
0.015292
0.0152761
0.0187957
0.0159065
0.015724
0.0157271
0.0156943
0.0156401
0.0156097
0.0155496
0.0155137
0.015459
0.0154284
0.0153902
0.0153725
0.0153587
0.0263952
0.0158126
0.015674
0.0157362
0.0156426
0.0156413
0.0155751
0.0155508
0.0154964
0.0154674
0.0154315
0.0154136
0.0154008
0.0189422
0.015923
0.0157141
0.0157261
0.0156966
0.0156773
0.0156459
0.015613
0.0155758
0.0155539
0.0155255
0.0155147
0.0155041
0.0242295
0.0157635
0.0157824
0.0157192
0.0157108
0.0156587
0.0156457
0.0156009
0.0155757
0.0155498
0.0155329
0.0155234
0.0210498
0.0160064
0.0156069
0.0157846
0.0157316
0.0157421
0.0156978
0.0156791
0.0156782
0.0156545
0.0156571
0.0156483
0.0367018
0.0160134
0.0157661
0.0157174
0.0156769
0.015729
0.0156902
0.0156503
0.0156425
0.0156199
0.0156145
0.034486
0.0285082
0.0159256
0.0158142
0.0157257
0.0157259
0.0157986
0.0157547
0.015789
0.0157775
0.0258317
0.0269546
0.0159074
0.0157684
0.0156377
0.015689
0.015638
0.0156402
0.0189053
0.0240084
0.0263553
0.0159964
0.0158038
0.0159185
0.0158888
0.0318979
0.0277215
0.0274935
0.0268334
0.0173804
0.0148603
0.0146039
0.0147376
0.0145609
0.014588
0.0144464
0.0144162
0.0142974
0.0142437
0.0141489
0.0140959
0.0140296
0.0139943
0.013968
0.0177852
0.0148905
0.0146009
0.01475
0.0145665
0.0145978
0.0144573
0.0144285
0.0143119
0.0142594
0.0141668
0.014115
0.0140514
0.0140179
0.0139935
0.0191605
0.0147742
0.0146556
0.0147154
0.0145928
0.0145965
0.0144776
0.014442
0.0143341
0.0142816
0.0141929
0.014143
0.0140827
0.0140515
0.0140289
0.0149691
0.0146019
0.0147632
0.0146009
0.0146249
0.0145066
0.0144759
0.0143755
0.0143257
0.0142439
0.0141976
0.0141426
0.0141146
0.0140942
0.0234136
0.0147373
0.0146895
0.014647
0.0146264
0.0145371
0.014502
0.0144109
0.0143643
0.0142876
0.0142448
0.0141931
0.0141668
0.0141482
0.0177689
0.0148763
0.0146921
0.0146881
0.0146492
0.0145861
0.0145461
0.0144742
0.0144286
0.0143648
0.0143263
0.0142816
0.0142598
0.0142436
0.0253694
0.0147803
0.0146376
0.0146969
0.0145991
0.0145855
0.0145068
0.0144752
0.0144116
0.0143765
0.0143349
0.0143132
0.0142982
0.017915
0.0148941
0.0146798
0.0146912
0.0146653
0.0146274
0.0145858
0.0145475
0.014503
0.0144773
0.0144429
0.0144294
0.0144171
0.0232025
0.0147312
0.0147515
0.0146776
0.0146542
0.0145993
0.014588
0.0145385
0.0145081
0.0144785
0.0144587
0.0144482
0.0200238
0.0149861
0.014573
0.0147495
0.0146907
0.014698
0.0146507
0.0146272
0.0146254
0.0145973
0.0145994
0.0145893
0.0357168
0.0149759
0.0147319
0.0146824
0.0146395
0.0146886
0.0146468
0.0146024
0.0145941
0.0145684
0.014563
0.0334625
0.0274825
0.0148975
0.0147813
0.0146928
0.0146895
0.0147655
0.0147164
0.0147514
0.0147387
0.0248063
0.025928
0.0148768
0.0147373
0.0146011
0.0146565
0.0146025
0.0146061
0.0178786
0.0229831
0.0253306
0.01497
0.0147747
0.0148913
0.0148616
0.0308757
0.0266974
0.0264689
0.0258084
0.0163629
0.013839
0.0135752
0.0137023
0.0135085
0.0135266
0.0133693
0.013324
0.0131892
0.0131216
0.0130138
0.0129502
0.0128748
0.012832
0.0128014
0.0167675
0.0138698
0.0135704
0.0137164
0.0135136
0.0135385
0.013381
0.0133382
0.013206
0.0131399
0.0130345
0.0129722
0.0128993
0.0128589
0.0128305
0.0181429
0.0137516
0.0136295
0.013681
0.0135475
0.0135382
0.0134044
0.0133548
0.013232
0.0131665
0.0130655
0.0130054
0.0129364
0.0128993
0.0128734
0.0139506
0.0135701
0.0137362
0.0135598
0.0135737
0.0134381
0.0133947
0.01328
0.0132177
0.0131242
0.0130684
0.0130051
0.0129715
0.0129482
0.022397
0.0137132
0.0136602
0.0136109
0.0135779
0.0134746
0.013427
0.0133223
0.0132645
0.0131768
0.013125
0.0130655
0.0130346
0.0130133
0.0167497
0.0138531
0.0136676
0.0136543
0.0136064
0.0135319
0.0134796
0.0133958
0.0133391
0.0132648
0.0132182
0.0131666
0.0131406
0.013122
0.0243516
0.0137544
0.0136101
0.0136591
0.013548
0.0135277
0.0134371
0.0133966
0.0133229
0.0132811
0.013233
0.0132074
0.0131903
0.0168955
0.0138707
0.0136457
0.0136545
0.0136182
0.0135785
0.0135282
0.0134807
0.0134281
0.0133964
0.0133558
0.0133397
0.0133247
0.0221824
0.0136985
0.0137233
0.0136407
0.0136188
0.0135494
0.0135333
0.0134758
0.0134398
0.0134063
0.0133832
0.0133707
0.0190037
0.0139507
0.0135453
0.0137242
0.013661
0.0136593
0.0136066
0.0135765
0.0135734
0.01354
0.0135426
0.0135293
0.0346339
0.0139726
0.0137076
0.0136576
0.0136035
0.0136526
0.0136054
0.013555
0.0135489
0.0135226
0.0135159
0.032452
0.0264667
0.013877
0.0137531
0.0136645
0.0136578
0.0137362
0.0136827
0.0137201
0.0137041
0.0237889
0.0249093
0.0138531
0.0137136
0.0135713
0.0136315
0.0135727
0.0135763
0.0168608
0.0219667
0.024314
0.0139518
0.0137526
0.0138712
0.0138395
0.0298626
0.0256827
0.0254527
0.0247921
0.0153543
0.0128247
0.0125533
0.0126717
0.0124646
0.012464
0.0122888
0.0122264
0.0120758
0.0119933
0.0118713
0.0117966
0.0117125
0.011665
0.0116338
0.0157589
0.0128567
0.0125464
0.0126879
0.0124698
0.0124778
0.0123022
0.0122429
0.0120946
0.0120138
0.0118949
0.0118217
0.01174
0.0116936
0.0116634
0.0171341
0.0127361
0.01261
0.0126496
0.012501
0.0124777
0.0123286
0.0122629
0.0121242
0.0120448
0.011931
0.0118605
0.011783
0.01174
0.0117111
0.012939
0.0125467
0.0127092
0.0125077
0.0125176
0.0123682
0.0123094
0.012179
0.0121033
0.0119976
0.0119316
0.0118601
0.0118213
0.0117952
0.0213895
0.0126947
0.0126348
0.0125792
0.0125293
0.0124096
0.0123484
0.0122288
0.0121588
0.012059
0.0119977
0.0119307
0.0118953
0.0118712
0.0157393
0.0128363
0.0126453
0.0126253
0.0125656
0.012476
0.0124109
0.0123132
0.0122445
0.0121586
0.0121035
0.0120448
0.0120143
0.0119929
0.0233422
0.0127313
0.012577
0.0126221
0.0124991
0.0124687
0.0123643
0.0123136
0.0122294
0.0121799
0.0121247
0.0120954
0.0120759
0.0158845
0.0128548
0.012621
0.0126257
0.0125784
0.0125304
0.0124693
0.012412
0.0123495
0.0123103
0.0122635
0.012244
0.0122266
0.0211704
0.0126714
0.0126816
0.0126071
0.0125819
0.0125015
0.0124775
0.0124106
0.0123699
0.0123303
0.0123037
0.0122892
0.0179938
0.012957
0.0125206
0.0127242
0.0126341
0.0126246
0.0125659
0.0125267
0.0125225
0.0124813
0.0124804
0.0124647
0.0337257
0.012943
0.0126845
0.0126368
0.0125808
0.0126237
0.012564
0.0125244
0.0125083
0.0124742
0.0124673
0.031448
0.0254579
0.0128626
0.0127315
0.0126433
0.0126312
0.0127138
0.012653
0.0126909
0.0126733
0.0227804
0.0238995
0.0128372
0.0126957
0.0125489
0.0126125
0.0125485
0.0125543
0.0158511
0.0209589
0.0233059
0.0129409
0.0127373
0.0128574
0.0128248
0.0288602
0.0246775
0.0244449
0.023785
0.0143565
0.0118174
0.0115384
0.0116433
0.0114194
0.0113983
0.0112033
0.011122
0.0109546
0.0108582
0.0107242
0.0106386
0.0105486
0.0105024
0.0104722
0.0147612
0.0118512
0.0115301
0.0116622
0.0114257
0.0114144
0.011219
0.011141
0.0109759
0.0108809
0.0107496
0.010666
0.0105775
0.0105308
0.0105011
0.0161355
0.0117278
0.0115974
0.0116226
0.01146
0.011417
0.0112484
0.0111648
0.0110094
0.0109158
0.0107896
0.0107094
0.0106236
0.0105775
0.0105478
0.0119351
0.0115311
0.0116898
0.0114762
0.0114636
0.0112945
0.0112182
0.0110714
0.0109818
0.0108634
0.0107879
0.0107087
0.0106657
0.0106375
0.020392
0.0116818
0.0116112
0.0115349
0.0114774
0.0113413
0.0112646
0.011129
0.011046
0.0109338
0.0108637
0.0107893
0.0107494
0.0107229
0.0147383
0.0118267
0.0116266
0.0115958
0.0115238
0.0114182
0.0113384
0.011225
0.0111437
0.0110457
0.0109821
0.0109155
0.0108805
0.0108568
0.0223418
0.0117154
0.0115539
0.0115858
0.0114508
0.011406
0.0112876
0.0112256
0.0111296
0.0110722
0.0110097
0.0109764
0.0109544
0.0148822
0.0118477
0.0116084
0.0116028
0.0115418
0.0114818
0.0114069
0.0113399
0.0112658
0.0112197
0.0111657
0.011142
0.0111223
0.0201675
0.0116539
0.0116836
0.0115746
0.0115448
0.0114538
0.0114207
0.0113432
0.0112971
0.0112502
0.0112203
0.0112036
0.0169925
0.0119394
0.0115006
0.0116925
0.0116102
0.0115904
0.0115266
0.0114789
0.0114671
0.01142
0.0114162
0.0113979
0.0326456
0.0119568
0.0116636
0.0116168
0.0115581
0.0115999
0.0115362
0.0114815
0.0114645
0.0114286
0.01142
0.030456
0.0244586
0.0118536
0.0117133
0.0116359
0.0116144
0.0116938
0.0116262
0.0116648
0.0116442
0.0217815
0.0228991
0.0118311
0.0116848
0.0115344
0.0116002
0.0115326
0.0115401
0.0148514
0.0199619
0.0223088
0.0119378
0.0117295
0.0118525
0.0118179
0.02787
0.0236825
0.0234483
0.0227884
0.0133714
0.0108167
0.0105315
0.0106143
0.0103722
0.0103272
0.0101117
0.0100105
0.00982636
0.0097168
0.00957342
0.00948351
0.0093961
0.00935238
0.0093236
0.0137755
0.0108533
0.0105219
0.010637
0.0103805
0.0103463
0.0101298
0.0100321
0.00985019
0.00974194
0.00960075
0.00951117
0.00942417
0.00937968
0.00935142
0.0151483
0.0107264
0.0105917
0.010597
0.0104168
0.0103518
0.0101618
0.0100595
0.00988748
0.00978066
0.009644
0.009556
0.00946889
0.00942441
0.00939566
0.0109401
0.0105229
0.0106731
0.0104397
0.0104056
0.0102155
0.0101203
0.00995677
0.00985363
0.00972396
0.00963986
0.00955558
0.00951107
0.00948262
0.0194059
0.0106746
0.0105949
0.0104968
0.0104241
0.0102675
0.0101743
0.0100219
0.00992586
0.00980224
0.00972441
0.00964397
0.00960072
0.00957194
0.0137481
0.0108262
0.0106171
0.0105717
0.0104806
0.0103572
0.0102604
0.0101301
0.0100359
0.00992608
0.00985414
0.00978067
0.00974212
0.00971557
0.0213516
0.010701
0.0105312
0.0105495
0.0103976
0.0103389
0.0102043
0.0101309
0.0100226
0.00995775
0.00988825
0.00985121
0.00982592
0.0138897
0.0108448
0.0105984
0.0105819
0.0105061
0.0104309
0.0103401
0.0102622
0.0101761
0.0101224
0.0100605
0.0100332
0.0100103
0.0191746
0.0106403
0.0106739
0.0105429
0.0105091
0.0104013
0.0103608
0.0102707
0.0102184
0.0101636
0.0101315
0.010112
0.0160016
0.0109395
0.0104934
0.0106772
0.0105891
0.0105562
0.0104859
0.0104278
0.0104091
0.0103545
0.0103485
0.0103275
0.0316968
0.0109561
0.0106459
0.0106075
0.0105399
0.0105784
0.0105007
0.010444
0.0104201
0.0103834
0.0103727
0.0294788
0.0234678
0.0108531
0.0107074
0.010624
0.0105995
0.0106772
0.0106003
0.0106402
0.0106153
0.0207937
0.0219109
0.0108315
0.0106786
0.010527
0.010595
0.0105246
0.0105333
0.0138628
0.0189761
0.0213227
0.0109431
0.0107283
0.0108551
0.0108175
0.0268929
0.0227014
0.0224652
0.0218048
0.0123981
0.00982317
0.00953018
0.00958492
0.00932018
0.00924882
0.00901177
0.00889255
0.0086945
0.00857434
0.00842776
0.00834446
0.0082629
0.00822406
0.00819738
0.0128033
0.00986315
0.00952049
0.00961096
0.00933159
0.00927099
0.00903255
0.00891618
0.00871984
0.00860122
0.008455
0.00837057
0.00828911
0.0082493
0.00822353
0.0141733
0.0097313
0.00959036
0.00957154
0.00936876
0.00927952
0.00906701
0.00894652
0.00875928
0.00864214
0.00849812
0.00841251
0.00832989
0.0082896
0.00826283
0.00995404
0.00952209
0.00965721
0.00940144
0.00934115
0.00912906
0.00901459
0.00883489
0.00872034
0.00858168
0.00849511
0.00841228
0.00837056
0.00834369
0.0184319
0.00967044
0.00958165
0.00945515
0.00936608
0.0091855
0.00907555
0.00890595
0.00879893
0.00866553
0.00858245
0.00849823
0.00845521
0.0084271
0.0127692
0.00983342
0.00960872
0.00954956
0.00943378
0.00929001
0.00917452
0.00902667
0.00892041
0.00879918
0.00872097
0.0086422
0.00860141
0.00857356
0.0203721
0.00969119
0.00950318
0.00950949
0.00933753
0.00926456
0.009112
0.00902763
0.00890707
0.00883639
0.00875993
0.00872021
0.00869332
0.0129075
0.00984305
0.00957545
0.00955822
0.00946558
0.00937523
0.00926599
0.0091767
0.00907779
0.009017
0.00894751
0.00891661
0.00889123
0.0181906
0.00964513
0.00966647
0.00951116
0.00946863
0.00934205
0.0092944
0.00918901
0.00913231
0.00906908
0.00903401
0.00901147
0.0150224
0.00996051
0.00949424
0.00966251
0.00957179
0.00952059
0.0094409
0.00937043
0.00934525
0.00928217
0.00927307
0.00924964
0.0308329
0.00993706
0.00961312
0.00961861
0.00952281
0.00955872
0.00945988
0.00940596
0.00937202
0.00933439
0.00932184
0.0285075
0.0224824
0.00985927
0.00970236
0.00961701
0.00958674
0.00966188
0.00957483
0.00961423
0.00958704
0.0198172
0.0209329
0.00983945
0.00967458
0.00952654
0.00959364
0.0095234
0.00953239
0.0128853
0.0180022
0.0203477
0.00995767
0.00973384
0.00986545
0.00982449
0.0259323
0.0217345
0.0214943
0.0208343
0.0114409
0.00883564
0.00853174
0.00855351
0.00826135
0.00816188
0.00790235
0.00776735
0.00755977
0.00744021
0.00730448
0.00723223
0.00716035
0.00712798
0.00710386
0.0118463
0.00887954
0.0085223
0.00858215
0.00827555
0.00818651
0.00792599
0.00779326
0.0075869
0.00746594
0.00732915
0.00725556
0.0071835
0.00715017
0.00712744
0.0132122
0.00874214
0.0085896
0.00854343
0.0083121
0.00819774
0.00796195
0.00782578
0.00762693
0.0075052
0.0073673
0.00729181
0.00721777
0.00718381
0.0071602
0.00897402
0.00852901
0.00863686
0.00835576
0.00826734
0.00803259
0.00790028
0.00770742
0.00758556
0.00744675
0.00736779
0.00729153
0.00725533
0.00723123
0.0174717
0.00866552
0.00856802
0.00840783
0.00829909
0.00809271
0.00796692
0.00778205
0.00766769
0.00752826
0.00744764
0.0073677
0.0073295
0.00730347
0.0118019
0.00884628
0.00860212
0.0085238
0.00838066
0.00821312
0.00807872
0.00791412
0.00779788
0.00766793
0.00758669
0.00750587
0.00746657
0.00743964
0.0194027
0.0086851
0.00848275
0.00846687
0.00826785
0.00817952
0.00800819
0.00791483
0.0077833
0.00770921
0.00762787
0.00758827
0.00755989
0.0119335
0.0088507
0.00858408
0.00853766
0.00841702
0.00831016
0.00818074
0.00808089
0.00796917
0.00790263
0.00782732
0.00779508
0.00776778
0.017214
0.00860784
0.00865207
0.00846807
0.00841924
0.00827125
0.00821687
0.00809599
0.00803594
0.0079643
0.00792859
0.00790319
0.014047
0.00890605
0.00849933
0.00865675
0.00854418
0.00847351
0.00838629
0.00830352
0.00827139
0.00820056
0.00818954
0.00816296
0.0295516
0.00900671
0.00861744
0.00859429
0.00849173
0.00853101
0.00841304
0.00836022
0.00831545
0.00827885
0.00826258
0.027566
0.0215178
0.00885901
0.00869299
0.00860933
0.00857339
0.00864198
0.00854715
0.00858572
0.00855444
0.0188513
0.0199657
0.00885225
0.00867001
0.0085339
0.00859326
0.00852582
0.00853331
0.011919
0.0170417
0.019387
0.0089782
0.0087452
0.00888247
0.00883676
0.0249914
0.0207825
0.0205389
0.0198787
0.0105009
0.0078494
0.0075266
0.00751109
0.00718676
0.00706078
0.00678163
0.00663656
0.00643074
0.006329
0.00621093
0.00615514
0.00609543
0.0060711
0.00605066
0.0109064
0.00789728
0.00752013
0.0075426
0.00720392
0.00708738
0.00680674
0.00666348
0.00645623
0.00635164
0.0062319
0.0061745
0.00611426
0.00608927
0.00607001
0.0122665
0.00775532
0.00757916
0.00750458
0.00723811
0.00709985
0.00684183
0.00669616
0.00649254
0.00638467
0.00626248
0.00620282
0.0061405
0.00611494
0.00609494
0.00799322
0.00753138
0.00760323
0.00729369
0.00717699
0.00692036
0.00677502
0.00657399
0.00645855
0.00633292
0.00626788
0.0062026
0.00617468
0.00615414
0.0165261
0.00765529
0.0075454
0.00734443
0.00721424
0.00698201
0.00684424
0.00664851
0.00653443
0.00640189
0.00633346
0.00626286
0.00623249
0.00620996
0.0108455
0.00785831
0.00758842
0.00747991
0.00731078
0.00711809
0.00696752
0.00678857
0.00666682
0.00653495
0.00645979
0.00638523
0.0063526
0.00632853
0.0184415
0.00766968
0.00744543
0.00740618
0.00717862
0.00707661
0.00688728
0.0067888
0.00664988
0.00657568
0.00649343
0.00645776
0.00643087
0.0109646
0.00784719
0.00757011
0.00749973
0.00735211
0.00722692
0.00707728
0.00696875
0.00684599
0.00677724
0.00669748
0.0066653
0.0066365
0.016244
0.0075912
0.00763606
0.00740583
0.00735221
0.00718053
0.00712032
0.00698429
0.00692313
0.00684375
0.00680902
0.00678183
0.0130899
0.00802003
0.00749524
0.00762768
0.00750026
0.00740972
0.00731456
0.00721776
0.00718045
0.00710242
0.0070903
0.00706163
0.0291842
0.00787931
0.0075785
0.00757362
0.00745019
0.00748494
0.00734867
0.00729816
0.00724116
0.00720717
0.00718779
0.0266083
0.0205507
0.00785208
0.00767502
0.00759375
0.00755008
0.00760839
0.00750806
0.00754637
0.0075121
0.0178945
0.0190118
0.00786327
0.00765823
0.00753811
0.0075835
0.00752385
0.00752852
0.0109633
0.0160934
0.0184406
0.00799833
0.00775894
0.00790083
0.00785024
0.0240709
0.0198487
0.0195989
0.0189391
0.00958271
0.00686153
0.00651324
0.00645714
0.00609409
0.00594725
0.00565418
0.00551982
0.00533968
0.00526546
0.00517137
0.00513503
0.00508914
0.0050745
0.00505875
0.00998969
0.00691616
0.0065107
0.00649235
0.00611498
0.00597609
0.00568114
0.0055439
0.00536126
0.00528376
0.00518785
0.00514976
0.00510354
0.0050878
0.00507314
0.0113413
0.00676877
0.00655831
0.00645419
0.00614457
0.0059873
0.00571307
0.00556997
0.00538759
0.0053068
0.00520831
0.00516854
0.00512025
0.00510422
0.00508896
0.00701214
0.00653441
0.00655849
0.00621382
0.00607074
0.00579735
0.00564778
0.00546003
0.00536898
0.00526499
0.00521965
0.00516846
0.00515013
0.00513455
0.0156012
0.00661952
0.00650618
0.00625853
0.00610997
0.00585551
0.00571459
0.00552122
0.00542769
0.00531404
0.00526557
0.00520879
0.00518852
0.00517095
0.00990027
0.00685878
0.00655387
0.00641824
0.00622146
0.0060065
0.00584592
0.00565956
0.00554729
0.005428
0.0053699
0.00530749
0.00528479
0.00526513
0.0174908
0.00663599
0.00638796
0.00632356
0.00606787
0.00595758
0.0057554
0.0056601
0.00552193
0.00546133
0.00538883
0.00536264
0.00533945
0.0099961
0.00682214
0.00654119
0.00643974
0.0062673
0.00612666
0.00595844
0.00584697
0.005716
0.00564972
0.00557128
0.00554545
0.00551924
0.0152787
0.00652954
0.00658772
0.00632154
0.0062674
0.00606896
0.00600805
0.00585739
0.00579954
0.00571514
0.00568339
0.00565377
0.012131
0.00687283
0.00649537
0.00659731
0.00644092
0.00632492
0.00622394
0.00611246
0.00607404
0.00599003
0.00597892
0.0059474
0.0275041
0.00702977
0.00654777
0.00653685
0.00638871
0.00642148
0.00626188
0.00621784
0.00614763
0.006118
0.0060942
0.0257165
0.0196104
0.00682462
0.00663927
0.00655863
0.00651078
0.00656366
0.00645758
0.00649617
0.00645723
0.0169563
0.0180817
0.00686393
0.00662378
0.00653984
0.0065625
0.00651448
0.00651448
0.0100185
0.0151616
0.0175134
0.00701796
0.0067726
0.00692064
0.00686165
0.0231838
0.0189396
0.0186816
0.0180249
0.00868012
0.00585226
0.00548175
0.00540333
0.00500187
0.0048507
0.00456082
0.004463
0.00431417
0.0042712
0.00420118
0.00418441
0.00415317
0.004148
0.00413713
0.00909309
0.00592048
0.00548376
0.00544326
0.00502557
0.00488033
0.0045845
0.00448256
0.00433104
0.004285
0.0042131
0.00419478
0.00416268
0.00415641
0.0041465
0.0104308
0.00576278
0.00551752
0.00539936
0.0050461
0.00488614
0.00460467
0.00449672
0.00434538
0.0042974
0.00422328
0.0042037
0.0041695
0.00416298
0.00415202
0.00600044
0.00551047
0.00550829
0.00512883
0.0049728
0.00468916
0.00456428
0.00440577
0.00434587
0.00426595
0.00424067
0.00420318
0.00419474
0.00418341
0.0147005
0.00554236
0.00544766
0.00515531
0.00500344
0.00473631
0.00461268
0.0044444
0.00438274
0.00429341
0.0042663
0.00422287
0.00421338
0.00420031
0.00895996
0.00581469
0.00548867
0.00534199
0.00512495
0.00489996
0.00474079
0.00456713
0.00448209
0.00438316
0.00434628
0.00429728
0.00428549
0.00427019
0.016544
0.00554392
0.00529824
0.00522106
0.00494861
0.00484436
0.00464076
0.00456739
0.00444494
0.00440691
0.00434591
0.00433236
0.00431385
0.0090059
0.00573292
0.00547165
0.005363
0.00517039
0.00502559
0.0048452
0.00474147
0.00461389
0.00456601
0.00449756
0.00448454
0.00446299
0.0143089
0.00543985
0.0055296
0.00520444
0.00516848
0.00494916
0.00490065
0.00473776
0.00469121
0.00460598
0.00458681
0.00456063
0.0111866
0.00595935
0.00545155
0.00552331
0.00536119
0.00522263
0.00512727
0.0050061
0.00497606
0.00488798
0.0048834
0.00485033
0.0273491
0.00585724
0.00542437
0.00547044
0.00530046
0.0053447
0.00515879
0.00513267
0.00504876
0.00502895
0.00500118
0.024841
0.0186721
0.0057352
0.00554797
0.00549356
0.00545248
0.00551405
0.0054028
0.00544769
0.00540252
0.0160399
0.0171877
0.00581992
0.00554765
0.00551652
0.00552198
0.00548842
0.00548224
0.00907154
0.0142422
0.0166223
0.0060074
0.00576731
0.0059266
0.00585146
0.0223366
0.0180564
0.0177914
0.0171432
0.00776703
0.00463591
0.00418814
0.00408692
0.00363917
0.00351647
0.00327183
0.00322989
0.00312683
0.00312161
0.00307943
0.00308295
0.00306592
0.00306999
0.00306382
0.00819414
0.00472792
0.00418751
0.00412755
0.00366206
0.00353701
0.00328793
0.00324167
0.00313714
0.00312951
0.00308619
0.00308845
0.0030709
0.00307357
0.00306804
0.00951517
0.00453937
0.00419359
0.0040624
0.00366526
0.00352074
0.00328749
0.00323825
0.00313637
0.00312909
0.0030847
0.00308713
0.00306822
0.00307078
0.0030642
0.00482148
0.00419824
0.00417563
0.00375833
0.00360129
0.00335853
0.00328846
0.0031787
0.00315992
0.00311042
0.0031085
0.0030866
0.00308804
0.003081
0.0137887
0.00419325
0.00409166
0.00375716
0.00361631
0.00337266
0.00330713
0.00318639
0.00316995
0.00311216
0.00311075
0.00308435
0.00308592
0.00307787
0.00800132
0.00456795
0.00412961
0.00398675
0.00375257
0.00353663
0.00341449
0.00328192
0.0032388
0.00317006
0.00316043
0.00312888
0.00312916
0.00311933
0.0155799
0.00417381
0.0039224
0.00384135
0.00356298
0.00348749
0.00331229
0.00328196
0.00318703
0.00317942
0.00313637
0.00313746
0.00312469
0.0079317
0.00442475
0.00413638
0.00402583
0.00381215
0.00367024
0.00348813
0.00341579
0.00330844
0.00329015
0.00323919
0.00324282
0.00322793
0.0132775
0.0040757
0.00422338
0.00381445
0.00380932
0.0035636
0.00353753
0.00337426
0.00336114
0.00328887
0.00328954
0.00327005
0.0102413
0.00482081
0.00416792
0.0042175
0.00402399
0.00384357
0.00375529
0.00361946
0.00360503
0.00352286
0.00353994
0.00351469
0.0262407
0.00471379
0.00405921
0.00413501
0.00392513
0.00398996
0.00376102
0.00376287
0.00366834
0.00366568
0.0036377
0.0240238
0.0177338
0.00442846
0.00417909
0.00413544
0.00409725
0.00418211
0.00406621
0.00413318
0.00408487
0.015151
0.0163421
0.00457372
0.00419891
0.00420529
0.00419894
0.00419336
0.00418803
0.00812598
0.013302
0.0157364
0.00483028
0.0045448
0.0047372
0.0046337
0.0215046
0.0171337
0.0169184
0.0162962
0.00721003
0.00440808
0.00380848
0.00388263
0.0033846
0.00339548
0.00321732
0.00326502
0.00321975
0.00326351
0.00325551
0.00328398
0.003284
0.00329852
0.0032985