/*--------------------------------*- C++ -*----------------------------------*\
| =========                 |                                                 |
| \\      /  F ield         | OpenFOAM: The Open Source CFD Toolbox           |
|  \\    /   O peration     | Version:  2.1.1                                 |
|   \\  /    A nd           | Web:      www.OpenFOAM.org                      |
|    \\/     M anipulation  |                                                 |
\*---------------------------------------------------------------------------*/
FoamFile
{
    version     2.0;
    format      ascii;
    class       volScalarField;
    location    "0.0005";
    object      p;
}
// * * * * * * * * * * * * * * * * * * * * * * * * * * * * * * * * * * * * * //

dimensions      [0 2 -2 0 0 0 0];

internalField   nonuniform List<scalar> 
10229
(
0.0243656
0.0218445
0.0215963
0.0217577
0.0216151
0.0216773
0.021589
0.0215998
0.0215403
0.0215273
0.0214862
0.0214676
0.0214418
0.0214288
0.0214197
0.0247836
0.0218768
0.0215965
0.0217656
0.0216191
0.0216801
0.0215921
0.0216034
0.0215463
0.0215335
0.0214937
0.0214752
0.0214502
0.0214376
0.0214288
0.0261872
0.0217582
0.0216389
0.0217327
0.0216351
0.0216734
0.0216009
0.0216064
0.0215563
0.0215417
0.0215045
0.021486
0.0214623
0.02145
0.0214415
0.0219582
0.0215996
0.0217634
0.0216427
0.021684
0.0216155
0.0216189
0.0215731
0.0215585
0.0215247
0.0215076
0.0214861
0.021475
0.0214673
0.0304363
0.0217206
0.021699
0.0216693
0.0216806
0.0216345
0.0216284
0.0215883
0.0215728
0.0215421
0.0215249
0.0215048
0.0214937
0.0214864
0.0247709
0.0218644
0.0216791
0.0217049
0.0216829
0.0216601
0.0216438
0.0216135
0.0215977
0.0215732
0.0215591
0.0215425
0.0215339
0.0215278
0.0324443
0.0217693
0.0216465
0.0217148
0.0216573
0.0216591
0.0216245
0.0216138
0.0215889
0.0215745
0.0215582
0.0215481
0.0215421
0.0249179
0.0218693
0.0216745
0.0216972
0.0216818
0.021673
0.0216586
0.0216427
0.0216287
0.0216221
0.0216106
0.0216069
0.0216022
0.0302473
0.0217302
0.0217313
0.0217054
0.0216821
0.0216559
0.0216538
0.0216316
0.0216209
0.0216099
0.0215996
0.0215936
0.0270984
0.0219712
0.0215548
0.021731
0.0216969
0.0217132
0.0216803
0.0216797
0.0216868
0.0216782
0.0216845
0.0216804
0.0430061
0.0219718
0.0217303
0.0216748
0.0216463
0.0217048
0.0216706
0.0216445
0.021638
0.0216223
0.0216181
0.0405662
0.0346672
0.02187
0.0217694
0.0216789
0.021697
0.021764
0.0217347
0.021768
0.0217609
0.0318375
0.0330841
0.021865
0.021721
0.0216005
0.0216409
0.0215991
0.0215998
0.0248856
0.029995
0.0324722
0.0219601
0.0217604
0.0218796
0.0218478
0.0379459
0.0338055
0.0335132
0.0328737
0.0232589
0.0207365
0.0204845
0.0206437
0.0204958
0.0205538
0.0204602
0.020462
0.0203941
0.0203737
0.0203257
0.0203009
0.0202698
0.0202535
0.0202416
0.0236762
0.0207692
0.0204834
0.020652
0.0205
0.0205576
0.0204648
0.020467
0.0204014
0.0203812
0.0203343
0.02031
0.02028
0.0202641
0.020253
0.0250799
0.02065
0.0205281
0.0206189
0.0205177
0.0205518
0.0204746
0.0204718
0.0204135
0.020392
0.020348
0.0203241
0.0202956
0.02028
0.0202696
0.020849
0.0204878
0.0206516
0.0205254
0.0205631
0.0204888
0.020486
0.0204331
0.0204124
0.0203725
0.0203503
0.0203241
0.0203099
0.0203006
0.0293294
0.020611
0.020585
0.0205557
0.0205611
0.0205064
0.0204981
0.0204524
0.0204314
0.0203948
0.0203727
0.0203486
0.0203347
0.020326
0.0236627
0.0207557
0.0205674
0.0205914
0.0205648
0.0205343
0.0205169
0.0204825
0.0204612
0.0204317
0.0204133
0.0203931
0.020382
0.0203747
0.0313375
0.0206595
0.0205344
0.020601
0.0205385
0.0205376
0.0204984
0.0204827
0.0204534
0.020435
0.0204153
0.020403
0.0203959
0.0238104
0.0207632
0.0205634
0.0205834
0.0205674
0.0205545
0.0205374
0.0205174
0.0205004
0.0204893
0.0204749
0.0204691
0.0204635
0.0291408
0.0206215
0.0206237
0.0205923
0.0205678
0.0205387
0.020535
0.0205113
0.0204947
0.0204794
0.020466
0.02046
0.0259916
0.0208632
0.0204442
0.0206235
0.0205829
0.0206005
0.0205655
0.0205634
0.0205668
0.0205555
0.0205603
0.0205561
0.0419026
0.020864
0.0206216
0.020564
0.0205348
0.0205915
0.0205576
0.0205278
0.0205208
0.0205036
0.0204994
0.0394619
0.0335616
0.020764
0.02066
0.0205683
0.0205862
0.0206535
0.0206219
0.0206561
0.0206476
0.0307311
0.031977
0.0207572
0.0206128
0.0204902
0.0205313
0.0204893
0.0204889
0.0237777
0.0288884
0.0313655
0.0208511
0.0206523
0.0207704
0.0207399
0.0368408
0.032699
0.0324063
0.031767
0.0221559
0.0196331
0.0193761
0.0195331
0.0193783
0.0194303
0.0193261
0.0193216
0.0192443
0.0192157
0.0191583
0.0191263
0.019089
0.0190688
0.0190548
0.0225734
0.0196646
0.0193758
0.0195429
0.0193828
0.0194351
0.0193325
0.019328
0.0192528
0.0192244
0.0191687
0.0191376
0.0191014
0.0190816
0.0190683
0.0239773
0.0195458
0.0194217
0.0195081
0.0194024
0.0194311
0.019346
0.0193355
0.0192675
0.0192382
0.019186
0.0191554
0.0191209
0.0191017
0.0190892
0.0197451
0.0193787
0.0195444
0.0194103
0.0194445
0.0193632
0.0193528
0.0192909
0.0192631
0.0192154
0.0191869
0.0191554
0.0191378
0.0191264
0.0282275
0.0195063
0.0194769
0.0194439
0.0194452
0.0193844
0.0193689
0.019315
0.0192872
0.0192435
0.0192157
0.0191865
0.0191694
0.019159
0.0225593
0.0196519
0.0194605
0.01948
0.0194495
0.0194132
0.0193911
0.0193503
0.0193231
0.0192876
0.0192639
0.0192392
0.0192255
0.0192167
0.0302357
0.019554
0.0194261
0.0194904
0.0194206
0.0194165
0.0193719
0.0193509
0.0193161
0.0192926
0.0192693
0.0192547
0.0192461
0.0227079
0.0196618
0.0194557
0.019474
0.0194564
0.019438
0.0194167
0.0193923
0.0193707
0.0193553
0.0193381
0.0193304
0.0193236
0.0280391
0.0195172
0.0195195
0.0194834
0.0194566
0.0194228
0.019415
0.0193871
0.0193667
0.0193493
0.0193351
0.0193288
0.0248901
0.0197596
0.0193383
0.0195193
0.0194736
0.0194904
0.0194513
0.0194478
0.0194475
0.0194342
0.0194381
0.0194329
0.0408048
0.0197604
0.0195172
0.0194564
0.0194267
0.0194813
0.0194455
0.0194128
0.0194057
0.0193862
0.0193819
0.0383626
0.0324604
0.0196628
0.0195548
0.0194623
0.0194789
0.0195466
0.0195112
0.0195465
0.0195369
0.0296294
0.0308753
0.0196539
0.0195085
0.0193813
0.0194253
0.0193795
0.0193806
0.0226752
0.0277859
0.0302633
0.0197479
0.0195489
0.0196679
0.0196367
0.0357401
0.0315976
0.0313044
0.0306648
0.0210585
0.0185352
0.0182717
0.0184269
0.0182627
0.0183082
0.0181924
0.0181796
0.0180899
0.0180518
0.0179836
0.017944
0.0178978
0.0178724
0.017856
0.021476
0.018566
0.0182716
0.0184374
0.0182675
0.018314
0.0181999
0.0181871
0.0180999
0.0180624
0.0179961
0.0179573
0.0179129
0.0178883
0.0178723
0.0228798
0.0184468
0.0183197
0.0184022
0.0182892
0.0183116
0.0182161
0.0181973
0.018118
0.0180797
0.0180172
0.017979
0.0179373
0.0179137
0.0178982
0.0186467
0.0182746
0.0184408
0.0182975
0.0183276
0.0182363
0.0182184
0.0181459
0.0181097
0.0180524
0.0180171
0.017979
0.0179575
0.0179434
0.0271316
0.0184054
0.0183735
0.0183346
0.018332
0.018262
0.018239
0.0181753
0.0181397
0.0180875
0.018053
0.0180178
0.0179969
0.0179841
0.0214619
0.0185533
0.0183591
0.0183731
0.0183391
0.0182953
0.0182664
0.0182171
0.0181831
0.0181402
0.0181105
0.0180805
0.0180635
0.0180527
0.0291394
0.018453
0.0183215
0.0183825
0.0183096
0.0182972
0.0182453
0.0182178
0.0181762
0.0181473
0.0181198
0.0181018
0.0180917
0.0216108
0.0185642
0.0183537
0.0183675
0.0183448
0.0183229
0.0182973
0.0182673
0.0182404
0.0182207
0.0181995
0.0181894
0.0181818
0.0269428
0.0184175
0.0184187
0.0183754
0.0183459
0.0183097
0.0182966
0.0182642
0.0182391
0.018219
0.0182029
0.0181957
0.023794
0.0186612
0.0182369
0.0184184
0.0183677
0.0183828
0.0183406
0.018334
0.0183302
0.0183147
0.0183171
0.0183112
0.039713
0.0186618
0.0184172
0.0183545
0.0183225
0.0183747
0.0183364
0.0183004
0.0182925
0.0182711
0.0182668
0.0372693
0.0313647
0.0185651
0.0184541
0.0183612
0.0183757
0.018443
0.0184053
0.0184409
0.0184308
0.0285333
0.029778
0.0185556
0.018408
0.0182776
0.0183233
0.0182753
0.0182763
0.021578
0.0266899
0.0291673
0.0186501
0.0184497
0.0185694
0.0185394
0.0346454
0.0305016
0.030208
0.0295682
0.0199672
0.017442
0.0171731
0.0173249
0.0171491
0.0171875
0.0170574
0.017035
0.0169299
0.0168813
0.0168003
0.0167524
0.0166956
0.0166642
0.0166434
0.0203845
0.0174738
0.0171716
0.0173364
0.0171541
0.0171945
0.0170658
0.0170441
0.0169419
0.0168941
0.0168151
0.0167681
0.0167135
0.0166834
0.016664
0.0217885
0.0173536
0.0172228
0.017301
0.017178
0.0171935
0.017085
0.0170572
0.0169638
0.0169151
0.0168406
0.016794
0.0167439
0.016715
0.0166959
0.0175542
0.0171732
0.0173448
0.0171877
0.0172124
0.0171088
0.0170827
0.0169971
0.0169515
0.016883
0.01684
0.0167938
0.0167679
0.0167505
0.0260423
0.0173088
0.017275
0.0172286
0.0172198
0.0171395
0.0171081
0.0170326
0.0169887
0.0169257
0.0168836
0.0168412
0.0168161
0.0168009
0.0203711
0.0174608
0.0172627
0.0172699
0.0172306
0.0171775
0.0171415
0.0170824
0.0170405
0.0169888
0.0169524
0.0169159
0.0168952
0.0168822
0.0280494
0.0173572
0.0172213
0.0172776
0.0171944
0.0171776
0.0171176
0.017083
0.0170332
0.0169984
0.0169653
0.0169436
0.0169319
0.02052
0.0174721
0.0172567
0.017265
0.0172302
0.0172108
0.017179
0.0171428
0.0171095
0.0170846
0.0170585
0.0170465
0.017037
0.0258533
0.0173232
0.0173251
0.0172726
0.017247
0.0171999
0.0171798
0.0171414
0.0171114
0.0170879
0.017069
0.0170607
0.0227044
0.017569
0.0171411
0.0173218
0.0172683
0.0172797
0.0172327
0.0172217
0.0172149
0.0171967
0.0171982
0.0171916
0.0386292
0.0175691
0.0173219
0.0172575
0.0172226
0.0172719
0.01723
0.0171891
0.0171839
0.0171593
0.0171547
0.0361832
0.0302756
0.0174728
0.0173583
0.0172651
0.017278
0.0173496
0.0173051
0.0173405
0.0173292
0.0274434
0.0286876
0.0174637
0.0173118
0.0171753
0.0172264
0.0171756
0.0171776
0.0204879
0.0256007
0.0280772
0.0175566
0.0173567
0.0174781
0.0174467
0.0335579
0.0294124
0.0291178
0.0284781
0.0188828
0.0163552
0.0160795
0.0162282
0.0160397
0.0160685
0.0159196
0.0158877
0.0157641
0.0157034
0.0156067
0.0155474
0.015482
0.0154434
0.015417
0.0193003
0.0163879
0.0160776
0.0162407
0.0160446
0.016077
0.0159296
0.0158987
0.0157781
0.0157188
0.0156248
0.0155669
0.0155035
0.0154668
0.0154429
0.0207048
0.0162684
0.0161336
0.0162029
0.0160681
0.0160764
0.0159524
0.0159148
0.0158041
0.0157441
0.0156556
0.0155991
0.0155393
0.0155047
0.0154826
0.0164736
0.0160891
0.0162399
0.0160744
0.0160988
0.0159805
0.0159457
0.0158447
0.0157879
0.0157063
0.0156542
0.015599
0.0155679
0.0155481
0.0249621
0.0162214
0.0161786
0.0161229
0.0161083
0.0160169
0.0159756
0.0158861
0.0158341
0.0157569
0.0157065
0.0156563
0.0156265
0.0156084
0.019288
0.0163725
0.0161712
0.0161705
0.0161256
0.0160619
0.0160176
0.015946
0.0158947
0.0158337
0.0157894
0.0157448
0.0157202
0.0157046
0.0269664
0.0162667
0.0161263
0.0161789
0.0160852
0.0160605
0.0159884
0.0159462
0.0158868
0.0158448
0.0158056
0.0157798
0.0157658
0.019436
0.0163862
0.0161654
0.0161711
0.0161352
0.0161017
0.0160604
0.0160187
0.0159773
0.0159465
0.0159155
0.0159013
0.0158894
0.0247707
0.016234
0.0162309
0.0161738
0.0161376
0.0160872
0.0160636
0.0160185
0.0159829
0.0159551
0.0159328
0.0159229
0.0216221
0.0164836
0.0160503
0.0162344
0.0161711
0.0161788
0.0161272
0.0161112
0.0161024
0.0160785
0.0160796
0.0160724
0.0375534
0.0164833
0.016232
0.016165
0.0161263
0.0161731
0.0161291
0.0160823
0.0160689
0.0160449
0.0160453
0.0351049
0.0291933
0.016386
0.0162676
0.0161743
0.0161827
0.0162439
0.0162056
0.016244
0.0162329
0.0263607
0.0276046
0.0163757
0.0162252
0.0160935
0.016138
0.016082
0.016084
0.0194043
0.0245184
0.0269959
0.0164772
0.0162722
0.0163922
0.0163594
0.0324807
0.0283323
0.0280356
0.0273952
0.0178073
0.0152761
0.0149913
0.0151357
0.014926
0.0149494
0.0147787
0.0147324
0.0145917
0.0145177
0.0144062
0.0143351
0.0142592
0.014213
0.0141826
0.0182251
0.0153094
0.0149882
0.01515
0.0149319
0.0149603
0.0147909
0.0147463
0.0146081
0.0145355
0.0144271
0.0143582
0.0142849
0.0142411
0.0142129
0.01963
0.0151886
0.0150479
0.0151137
0.0149643
0.0149619
0.014818
0.0147655
0.0146381
0.0145652
0.0144628
0.014396
0.0143267
0.0142861
0.0142605
0.0153969
0.0149923
0.0151632
0.0149757
0.0149914
0.0148509
0.014804
0.0146852
0.0146167
0.0145215
0.0144596
0.0143959
0.0143594
0.0143367
0.0238898
0.0151384
0.0150902
0.015027
0.0150005
0.0148948
0.0148403
0.014735
0.0146695
0.0145811
0.014522
0.0144636
0.0144289
0.0144078
0.0182124
0.0152893
0.0150818
0.0150814
0.0150251
0.0149477
0.0148946
0.014807
0.0147443
0.0146695
0.0146175
0.0145658
0.0145368
0.0145184
0.0258911
0.0151806
0.0150319
0.0150833
0.0149768
0.0149437
0.0148578
0.0148067
0.0147356
0.0146861
0.0146393
0.0146098
0.0145931
0.0183597
0.0153078
0.0150854
0.015088
0.0150382
0.0149957
0.014942
0.0148951
0.0148411
0.0148051
0.0147666
0.0147483
0.0147342
0.0236959
0.015155
0.0151708
0.0150806
0.0150363
0.0149765
0.0149484
0.0148958
0.0148533
0.0148201
0.0147938
0.0147821
0.0205482
0.0154068
0.0149643
0.0151257
0.0150805
0.0150809
0.015025
0.0150017
0.0149937
0.0149639
0.0149634
0.0149531
0.0364866
0.0154044
0.0151435
0.0150794
0.0150277
0.0150784
0.0150297
0.0149789
0.0149664
0.0149358
0.0149312
0.0340354
0.0281185
0.0153066
0.0151817
0.0150899
0.0150936
0.0151666
0.0151167
0.0151538
0.0151411
0.0252862
0.0265287
0.0152942
0.0151421
0.0149965
0.0150524
0.0149931
0.0149973
0.0183283
0.0234445
0.0259227
0.0154012
0.0151926
0.015314
0.015281
0.031412
0.0272605
0.0269622
0.0263213
0.0167424
0.014205
0.0139103
0.0140472
0.0138194
0.0138255
0.0136355
0.0135712
0.0134123
0.0133244
0.0131998
0.0131177
0.0130317
0.0129803
0.0129495
0.0171599
0.0142396
0.0139054
0.0140643
0.0138259
0.01384
0.0136495
0.0135882
0.0134318
0.0133451
0.013223
0.0131435
0.0130605
0.0130106
0.0129807
0.0185646
0.0141164
0.0139705
0.0140264
0.0138619
0.0138424
0.0136806
0.0136109
0.0134662
0.0133794
0.0132633
0.0131862
0.0131078
0.0130615
0.0130332
0.0143288
0.0139109
0.014084
0.0138739
0.0138816
0.0137197
0.0136573
0.0135208
0.0134387
0.0133301
0.0132584
0.0131863
0.0131445
0.0131191
0.0228265
0.0140638
0.0140065
0.0139348
0.0138924
0.0137693
0.0137008
0.0135787
0.0135
0.0133992
0.0133311
0.0132642
0.0132245
0.0132009
0.0171457
0.0142173
0.0140131
0.0139912
0.0139261
0.0138344
0.0137637
0.0136623
0.0135876
0.0135003
0.0134397
0.0133802
0.0133466
0.0133256
0.0248255
0.0141041
0.0139512
0.0139888
0.0138672
0.0138261
0.0137238
0.0136628
0.0135794
0.0135222
0.0134678
0.0134338
0.0134145
0.017292
0.0142362
0.0140036
0.0139893
0.0139389
0.0138883
0.0138259
0.0137646
0.0137015
0.0136592
0.0136126
0.0135907
0.0135737
0.0226285
0.0140671
0.0140614
0.0139863
0.0139402
0.0138678
0.0138352
0.0137707
0.0137222
0.0136833
0.013653
0.0136394
0.0194819
0.0143382
0.0138824
0.0140754
0.0139918
0.0139881
0.0139276
0.0138935
0.0138844
0.0138452
0.0138444
0.0138298
0.0354315
0.0143372
0.0140671
0.0140038
0.013951
0.0139924
0.0139373
0.0138777
0.0138657
0.0138304
0.0138238
0.0329768
0.0270541
0.0142364
0.0141051
0.0140166
0.0140099
0.0140879
0.0140303
0.0140689
0.0140518
0.0242207
0.025462
0.0142212
0.0140677
0.0139156
0.0139756
0.013911
0.0139166
0.0172617
0.0223802
0.0248579
0.014333
0.0141209
0.0142453
0.0142106
0.0303531
0.0261987
0.0258989
0.0252577
0.0156882
0.0131425
0.0128377
0.0129613
0.0127137
0.0126991
0.0124881
0.0124052
0.0122283
0.0121253
0.0119882
0.0118977
0.0118065
0.0117555
0.0117247
0.0161061
0.0131789
0.0128315
0.0129824
0.0127219
0.0127167
0.0125045
0.0124248
0.0122503
0.0121493
0.0120144
0.0119256
0.011836
0.0117858
0.0117556
0.0175101
0.0130525
0.0129003
0.012942
0.0127606
0.0127208
0.0125389
0.012451
0.0122887
0.0121878
0.012059
0.0119725
0.0118864
0.0118371
0.0118073
0.0132699
0.0128385
0.013009
0.0127781
0.0127682
0.0125858
0.0125057
0.0123511
0.012255
0.0121335
0.0120525
0.0119729
0.0119268
0.0118985
0.0217745
0.0129957
0.0129283
0.0128427
0.012783
0.0126409
0.0125563
0.012417
0.0123247
0.0122116
0.0121344
0.01206
0.0120163
0.0119899
0.0160894
0.0131523
0.0129453
0.012907
0.0128305
0.0127172
0.0126316
0.0125128
0.0124255
0.0123251
0.012256
0.0121889
0.0121514
0.0121275
0.0237701
0.0130303
0.0128699
0.0128963
0.0127609
0.0127038
0.0125864
0.0125134
0.0124178
0.0123527
0.0122904
0.0122527
0.0122305
0.0162338
0.0131703
0.012925
0.0129135
0.012846
0.0127821
0.0127039
0.0126324
0.0125571
0.0125073
0.0124526
0.0124275
0.0124072
0.0215686
0.0129893
0.0129964
0.0128963
0.012847
0.0127616
0.0127184
0.0126422
0.0125879
0.0125414
0.0125081
0.0124915
0.0184241
0.0132792
0.0128027
0.0129978
0.0129149
0.0128961
0.0128322
0.0127844
0.012771
0.0127235
0.012721
0.0127038
0.0343872
0.0132766
0.0129883
0.012926
0.0128707
0.0129088
0.012845
0.0127816
0.0127642
0.0127265
0.0127189
0.0319296
0.0259979
0.0131713
0.0130312
0.0129481
0.0129312
0.0130129
0.0129456
0.012987
0.0129659
0.0231657
0.0244051
0.0131557
0.0129993
0.0128431
0.012905
0.0128368
0.0128431
0.0162047
0.0213267
0.0238036
0.0132743
0.0130572
0.0131845
0.0131481
0.0293072
0.0251489
0.0248465
0.0242054
0.0146468
0.0120884
0.0117753
0.011876
0.0116078
0.0115688
0.011335
0.0112333
0.01104
0.0109243
0.0107764
0.0106821
0.0105938
0.0105465
0.0105178
0.0150655
0.0121275
0.0117663
0.0119026
0.0116179
0.0115897
0.0113544
0.0112556
0.0110641
0.0109504
0.0108048
0.0107103
0.0106224
0.0105745
0.0105462
0.016468
0.0119961
0.0118387
0.0118583
0.011658
0.0115955
0.0113915
0.011285
0.0111054
0.0109919
0.0108522
0.0107587
0.0106714
0.0106233
0.0105943
0.012221
0.0117738
0.0119379
0.011683
0.0116521
0.0114469
0.0113481
0.0111752
0.0110662
0.0109329
0.0108443
0.010759
0.0107112
0.0106827
0.0207344
0.0119328
0.0118562
0.0117475
0.0116716
0.0115073
0.0114055
0.0112483
0.0111436
0.0110184
0.0109339
0.0108532
0.0108066
0.0107785
0.0150439
0.0120955
0.0118809
0.0118264
0.0117313
0.0115976
0.0114946
0.0113573
0.0112572
0.0111436
0.0110672
0.0109928
0.010952
0.0109264
0.0227246
0.0119603
0.0117938
0.0118024
0.0116496
0.0115775
0.0114425
0.0113577
0.0112491
0.0111769
0.0111068
0.0110661
0.0110421
0.0151853
0.0121125
0.0118569
0.0118374
0.0117536
0.0116739
0.0115775
0.0114954
0.0114062
0.0113496
0.0112869
0.0112582
0.0112354
0.0205179
0.0119157
0.0119282
0.0118064
0.0117543
0.0116501
0.0115988
0.0115082
0.011449
0.0113939
0.0113576
0.0113378
0.0173758
0.0122222
0.0117388
0.0119276
0.0118378
0.0118029
0.0117329
0.0116729
0.0116547
0.0115983
0.0115933
0.0115727
0.0333473
0.0122189
0.0119139
0.0118582
0.0117944
0.0118286
0.0117496
0.0116865
0.0116615
0.011622
0.0116127
0.0308932
0.0249514
0.0121137
0.0119615
0.0118838
0.011859
0.0119417
0.0118621
0.0119067
0.0118804
0.0221216
0.0233586
0.0120987
0.011936
0.0117782
0.0118433
0.0117714
0.0117803
0.0151585
0.0202854
0.0227617
0.0122258
0.0120012
0.0121332
0.0120937
0.0282768
0.0241119
0.0238078
0.0231665
0.0136211
0.011042
0.0107186
0.0107913
0.010498
0.0104331
0.0101751
0.0100549
0.00984699
0.00972362
0.00957334
0.00948574
0.00940422
0.00936281
0.00933733
0.0140399
0.0110852
0.0107109
0.0108205
0.0105107
0.0104569
0.0101976
0.0100804
0.00987363
0.00975129
0.00960096
0.00951245
0.00943004
0.0093876
0.00936208
0.0154394
0.0109465
0.0107812
0.0107757
0.0105506
0.0104644
0.0102361
0.0101123
0.00991698
0.00979444
0.00964781
0.00955754
0.00947441
0.00943089
0.00940426
0.0111827
0.0107166
0.0108683
0.0105867
0.0105306
0.010301
0.0101836
0.0099939
0.00987451
0.00973205
0.00964147
0.00955754
0.00951323
0.00948606
0.0197077
0.0108728
0.0107867
0.0106475
0.0105549
0.0103652
0.0102469
0.0100724
0.00995718
0.00982203
0.00973315
0.00964876
0.0096027
0.00957464
0.0140102
0.0110468
0.010818
0.0107482
0.0106284
0.0104721
0.0103506
0.0101942
0.0100824
0.00995736
0.00987561
0.00979534
0.00975307
0.00972498
0.0216899
0.0108952
0.0107148
0.0107059
0.010531
0.0104437
0.0102894
0.0101944
0.0100729
0.00999517
0.00991852
0.00987623
0.00984957
0.014147
0.0110607
0.0107943
0.0107615
0.0106555
0.0105602
0.0104436
0.010351
0.0102475
0.010185
0.0101141
0.0100835
0.0100582
0.0194769
0.0108431
0.0108606
0.0107159
0.0106559
0.0105313
0.010473
0.0103663
0.0103029
0.0102383
0.010201
0.0101782
0.0163375
0.0111676
0.0106837
0.0108597
0.0107615
0.0107065
0.0106299
0.0105565
0.010533
0.010467
0.0104605
0.010436
0.0323143
0.0111641
0.010841
0.0107957
0.0107152
0.0107505
0.0106495
0.0105901
0.0105537
0.0105148
0.0105012
0.0298717
0.0239155
0.0110622
0.0108968
0.0108208
0.0107897
0.0108722
0.0107796
0.0108248
0.0107945
0.0210892
0.022324
0.0110501
0.0108763
0.0107213
0.0107862
0.010716
0.0107228
0.0141247
0.0192569
0.0217328
0.0111878
0.0109516
0.0110911
0.0110469
0.0272638
0.0230906
0.0227848
0.0221427
0.0126117
0.0100021
0.00966277
0.00970364
0.00937902
0.00928896
0.00900729
0.00887398
0.00865541
0.00853391
0.0083946
0.00831973
0.00824825
0.00821441
0.00819317
0.013031
0.0100513
0.00965732
0.00973696
0.00939547
0.00931598
0.00903247
0.00890138
0.00868359
0.00856072
0.00842019
0.00834341
0.00827075
0.00823546
0.00821363
0.0144254
0.00990287
0.00972347
0.00969061
0.00943358
0.00932418
0.00907099
0.00893379
0.00872675
0.00860171
0.0084616
0.00838214
0.00830804
0.00827171
0.00824837
0.010154
0.00966672
0.00979538
0.0094832
0.00940032
0.00914556
0.00901211
0.00880895
0.00868397
0.00854155
0.00845909
0.0083822
0.00834427
0.0083202
0.0186959
0.00981164
0.00971649
0.00953998
0.00942838
0.00921132
0.00907916
0.00888911
0.00876812
0.00862736
0.00854223
0.00846214
0.00842178
0.00839604
0.0129894
0.0100046
0.00975655
0.00966593
0.00951771
0.00933615
0.0091969
0.00902248
0.00890235
0.00876857
0.00868487
0.00860228
0.0085622
0.00853478
0.0206663
0.00982953
0.00962946
0.00960175
0.00939992
0.00929897
0.00912498
0.00902263
0.00888963
0.00881012
0.0087281
0.00868546
0.00865668
0.0131187
0.0100102
0.00973157
0.00968069
0.00954842
0.00943765
0.00929909
0.0091973
0.00907991
0.00901366
0.00893535
0.00890345
0.00887562
0.0184448
0.00976705
0.0097935
0.00961217
0.00954878
0.00940049
0.00933728
0.00921264
0.00914761
0.00907296
0.00903498
0.00900916
0.0153092
0.0101154
0.00963105
0.0097929
0.00968087
0.00960264
0.00951964
0.00943021
0.00940323
0.00932673
0.00931899
0.00929116
0.0312998
0.0101103
0.00976504
0.00973269
0.00963038
0.00966827
0.00954214
0.00948668
0.00943689
0.00939933
0.00938212
0.0288651
0.0228902
0.0100122
0.00983111
0.00975934
0.00971925
0.00980021
0.00969479
0.00974139
0.00970757
0.0200704
0.0213011
0.0100075
0.00981489
0.00967195
0.00972913
0.00966239
0.00966731
0.0131032
0.018243
0.0207178
0.0101599
0.00990862
0.0100573
0.010007
0.0262712
0.0220863
0.0217758
0.0211342
0.011621
0.00896846
0.00860224
0.00860975
0.0082456
0.00813461
0.00783068
0.00769344
0.00747778
0.00737639
0.00725476
0.00719722
0.00713824
0.00711332
0.00709685
0.0120405
0.00902288
0.00859968
0.00864712
0.00826685
0.00816517
0.00785924
0.00772242
0.00750423
0.00740024
0.00727667
0.00721717
0.00715692
0.00713016
0.00711316
0.0134274
0.00886545
0.00865733
0.00859751
0.00830103
0.0081721
0.00789546
0.00775289
0.0075419
0.00743354
0.00730922
0.00724709
0.00718514
0.00715746
0.00713861
0.00912784
0.00861354
0.00871134
0.00836568
0.00825751
0.00797903
0.00783595
0.00762502
0.00750903
0.00737949
0.00731257
0.00724701
0.00721767
0.00719778
0.0177013
0.00874634
0.00863906
0.00841683
0.00828648
0.00804275
0.00790253
0.00770208
0.00758487
0.00745128
0.00738017
0.00730969
0.00727795
0.00725611
0.0119808
0.00896412
0.00869277
0.00856649
0.00839327
0.0081858
0.00803239
0.00784391
0.00772152
0.00758524
0.00750968
0.00743415
0.00740139
0.00737697
0.019652
0.00875516
0.00853182
0.00848206
0.00825112
0.00813987
0.00794813
0.00784411
0.00770286
0.00762625
0.00754321
0.00750602
0.00747854
0.0120958
0.00895292
0.00866189
0.00858538
0.00842744
0.00830036
0.0081405
0.00803351
0.00790395
0.0078378
0.00775471
0.00772471
0.00769483
0.0174179
0.00868011
0.00871637
0.00849122
0.0084274
0.00825203
0.00818755
0.00804498
0.00798184
0.00789776
0.00786217
0.00783259
0.0142881
0.00905863
0.00857364
0.00871645
0.00858602
0.00848371
0.00839586
0.00828943
0.00826119
0.00817511
0.00816867
0.00813656
0.0302898
0.00905674
0.00867952
0.00866325
0.00853353
0.00856931
0.00841986
0.00836983
0.00830491
0.00827122
0.00824841
0.0278765
0.0218743
0.00895571
0.00875759
0.00869583
0.00864178
0.00871784
0.0086031
0.00865218
0.00861336
0.0190639
0.0202923
0.00896628
0.00874463
0.00862509
0.00866485
0.00860543
0.00860623
0.0120926
0.0172447
0.0197181
0.00913526
0.00887205
0.00902946
0.00897314
0.0253031
0.0210995
0.020784
0.020143
0.0106479
0.00793489
0.00752632
0.00750644
0.00709446
0.00697473
0.00665299
0.00653034
0.00633822
0.00626677
0.00616884
0.00613176
0.00608706
0.00607169
0.00605981
0.0110694
0.00799659
0.00752913
0.00754797
0.00712044
0.00700702
0.00668365
0.0065568
0.00636111
0.00628602
0.00618607
0.00614716
0.00610103
0.00608426
0.00607187
0.0124449
0.00782739
0.00757154
0.00749163
0.00714609
0.00700799
0.00671344
0.00657847
0.00638771
0.00630829
0.00620743
0.00616665
0.00611882
0.00610144
0.006087
0.0081044
0.0075624
0.00761607
0.00722897
0.00710093
0.00680476
0.00666157
0.00646268
0.0063724
0.00626429
0.00621835
0.0061663
0.00614747
0.00613152
0.016726
0.00764201
0.00753931
0.00726712
0.00712462
0.00685983
0.0067214
0.00652334
0.0064295
0.00631465
0.00626474
0.00620764
0.00618705
0.0061694
0.0109796
0.00790925
0.00760189
0.00744708
0.0072487
0.00702008
0.00686043
0.00666498
0.00655421
0.00643004
0.00637331
0.00630867
0.00628694
0.00626701
0.0186421
0.00765969
0.00740814
0.00733775
0.00707965
0.00696636
0.00676169
0.00666513
0.00652476
0.00646426
0.00638876
0.00636283
0.00633909
0.0110675
0.00787103
0.00757403
0.00746671
0.00728505
0.00714512
0.00696719
0.00686173
0.00672335
0.00666406
0.0065804
0.00655934
0.00653208
0.0163903
0.00756642
0.00761348
0.00734232
0.00728468
0.00708102
0.00702195
0.00686261
0.00680831
0.00671592
0.00668672
0.00665537
0.0132699
0.0079848
0.00750788
0.00761523
0.00746794
0.00734039
0.00725205
0.0071288
0.00710539
0.0070113
0.00701095
0.00697688
0.0292844
0.00799687
0.00756775
0.00757539
0.00741062
0.00745065
0.00727127
0.00723424
0.00715031
0.00712542
0.00709739
0.0269121
0.0208647
0.00787498
0.00766363
0.00760635
0.00754411
0.0076224
0.0074972
0.00755385
0.00750995
0.01807
0.0193003
0.00791354
0.00764632
0.00756982
0.00757823
0.00753536
0.00753015
0.0110872
0.0162578
0.0187342
0.00811171
0.00783387
0.00800385
0.0079391
0.0243644
0.0201311
0.0198109
0.0191721
0.00968374
0.0068802
0.00640251
0.00637764
0.00590893
0.00580144
0.00548094
0.00540543
0.00524663
0.0052126
0.00514107
0.00512603
0.00509617
0.00509083
0.00508329
0.0101131
0.00695482
0.00641258
0.00642453
0.00593989
0.00583483
0.00550796
0.00542661
0.00526422
0.00522649
0.00515311
0.00513626
0.00510548
0.00509893
0.00509125
0.0114716
0.00676353
0.00643148
0.00635211
0.00595035
0.00582397
0.00552161
0.00543243
0.00527561
0.00523538
0.00516197
0.00514456
0.00511241
0.005106
0.00509689
0.00705977
0.00645753
0.00648722
0.00605412
0.00592211
0.00561581
0.00550463
0.0053376
0.00528454
0.00520335
0.00518105
0.00514459
0.00513676
0.00512586
0.0157716
0.00648562
0.00638899
0.00606707
0.00592849
0.00565291
0.00554013
0.00537105
0.00531583
0.00522769
0.00520401
0.00516282
0.00515413
0.00514154
0.00997556
0.00681372
0.00645918
0.0062855
0.00606792
0.00582944
0.00567695
0.00549621
0.00541826
0.00531642
0.00528576
0.00523646
0.00522778
0.00521298
0.0176273
0.00649381
0.00622525
0.00614521
0.0058691
0.00576941
0.00556369
0.00549675
0.0053725
0.00533942
0.00527722
0.00526588
0.00524694
0.0100057
0.00672575
0.00642846
0.00630404
0.00610246
0.00596065
0.00577058
0.00567875
0.00554269
0.00550765
0.00543486
0.00542893
0.00540596
0.0153457
0.00639182
0.00646276
0.00613707
0.0061012
0.0058706
0.00583179
0.00565656
0.00561974
0.00552502
0.00551135
0.00548231
0.0122456
0.00690292
0.00638839
0.00646427
0.00630508
0.0061485
0.00607215
0.00593338
0.00592758
0.00582853
0.00583933
0.00580318
0.0283833
0.00689527
0.00639076
0.00642918
0.00622869
0.00629
0.00607215
0.00606033
0.00595558
0.00594543
0.00591177
0.0259775
0.0198538
0.0067311
0.00649922
0.00646542
0.00639524
0.0064944
0.00635818
0.00643132
0.00638074
0.0170898
0.0183303
0.00681964
0.00649154
0.00646516
0.00643863
0.00641958
0.00640609
0.0100706
0.0152737
0.0177628
0.00706806
0.00677032
0.00696352
0.00688347
0.0234616
0.0191728
0.018858
0.01823
0.00872297
0.00580257
0.00520525
0.0052242
0.00469532
0.00466157
0.00438438
0.00437451
0.00425724
0.00426201
0.00421722
0.00422289
0.00420724
0.00421023
0.00420632
0.00917586
0.00590079
0.00522426
0.00527367
0.00472731
0.00468576
0.0044053
0.00438876
0.00426932
0.00427052
0.00422398
0.0042283
0.00421172
0.00421438
0.004211
0.010519
0.00566286
0.00520998
0.00516544
0.00471052
0.00464247
0.00439371
0.00437406
0.0042639
0.00426606
0.00422107
0.00422624
0.00420887
0.00421255
0.00420844
0.00598086
0.00527824
0.00530845
0.00483416
0.00473171
0.00447613
0.00442917
0.00430958
0.00429932
0.00424671
0.00424761
0.00422628
0.00422906
0.00422336
0.0148694
0.00523021
0.00515464
0.00479874
0.00469913
0.00446578
0.00442688
0.00430782
0.00430165
0.00424454
0.00424737
0.00422173
0.00422533
0.00421795
0.0089704
0.00564736
0.00523758
0.00506761
0.00485124
0.00463862
0.00454004
0.00440434
0.00437416
0.00430258
0.00430048
0.00426718
0.00427237
0.00426325
0.0166253
0.00520723
0.00495562
0.00489691
0.00462974
0.00458531
0.00441641
0.00440471
0.00430916
0.00431181
0.00426571
0.00427158
0.00425876
0.00886815
0.00547737
0.00521351
0.00509325
0.00488624
0.00476571
0.00458654
0.00454138
0.00442961
0.00443243
0.00437637
0.00439179
0.00437608
0.0142711
0.00509311
0.00525556
0.00486325
0.00488375
0.00463132
0.00464035
0.00446935
0.00447985
0.00439693
0.0044092
0.0043864
0.0112155
0.00581095
0.00518497
0.00525734
0.0050938
0.00490112
0.00485584
0.00470462
0.00473763
0.00464709
0.00469108
0.00466377
0.0274846
0.00579396
0.00509022
0.00521304
0.00495972
0.0050722
0.00480449
0.00484082
0.00471598
0.00473364
0.00469814
0.0251756
0.0188737
0.00548428
0.00521434
0.00524496
0.00516196
0.00531679
0.00517202
0.00528167
0.00522685
0.0161674
0.0174398
0.00565432
0.00523753
0.00528718
0.00521808
0.00523312
0.00520885
0.00903757
0.0143038
0.0168462
0.0059907
0.00567051
0.00591289
0.00580441
0.0226527
0.0182146
0.0179838
0.0173799
0.0077819
0.00495465
0.00422151
0.00445544
0.00383416
0.00387636
0.00362315
0.00368047
0.0036086
0.00365532
0.00364154
0.00366964
0.0036699
0.0036823
0.00368206
0.00828928
0.00510697
0.00427335
0.00452494
0.0038728
0.00389709
0.00363825
0.00368756
0.00361426
0.00365764
0.00364259
0.00366987