/*--------------------------------*- C++ -*----------------------------------*\
| =========                 |                                                 |
| \\      /  F ield         | OpenFOAM: The Open Source CFD Toolbox           |
|  \\    /   O peration     | Version:  2.1.1                                 |
|   \\  /    A nd           | Web:      www.OpenFOAM.org                      |
|    \\/     M anipulation  |                                                 |
\*---------------------------------------------------------------------------*/
FoamFile
{
    version     2.0;
    format      ascii;
    class       volVectorField;
    location    "0.0005";
    object      U;
}
// * * * * * * * * * * * * * * * * * * * * * * * * * * * * * * * * * * * * * //

dimensions      [0 1 -1 0 0 0 0];

internalField   nonuniform List<vector> 
10229
(
(-0.00498047 -2.88488e-06 0.0216095)
(-0.000223075 -3.19692e-05 0.0952492)
(0.000179819 -1.09709e-05 0.111627)
(-9.11456e-05 -6.69175e-06 0.111182)
(0.000100236 -9.12998e-06 0.111174)
(-1.36006e-05 -3.97417e-06 0.111287)
(6.56171e-05 -6.44244e-06 0.111356)
(2.21448e-05 -4.23817e-06 0.111403)
(5.18035e-05 -5.68152e-06 0.111439)
(3.33025e-05 -5.01619e-06 0.111472)
(3.95706e-05 -5.70283e-06 0.111503)
(2.84962e-05 -5.71092e-06 0.111533)
(2.46392e-05 -6.31803e-06 0.111562)
(1.37615e-05 -6.3626e-06 0.111589)
(4.87991e-06 -6.6212e-06 0.111606)
(-0.00468953 -0.000723116 0.0195764)
(-0.000246253 9.43043e-05 0.0954021)
(0.000209544 -5.48384e-05 0.111749)
(-8.71216e-05 4.57168e-05 0.111336)
(0.00010214 -2.65644e-05 0.111272)
(-1.04048e-05 9.49586e-06 0.111331)
(6.51646e-05 -1.51713e-05 0.111371)
(2.31919e-05 -4.30669e-06 0.111404)
(5.086e-05 -1.2612e-05 0.111434)
(3.32717e-05 -1.04413e-05 0.111465)
(3.91002e-05 -1.33049e-05 0.111495)
(2.79258e-05 -1.34316e-05 0.111525)
(2.39681e-05 -1.46923e-05 0.111552)
(1.33651e-05 -1.48997e-05 0.111576)
(4.90834e-06 -1.54923e-05 0.11159)
(-0.00128167 -0.00153906 0.0101969)
(-0.000127474 -0.000114133 0.0997805)
(8.4578e-05 -5.03174e-05 0.113091)
(-5.31282e-05 2.15476e-05 0.111639)
(6.12564e-05 -3.77723e-05 0.111387)
(-8.243e-07 2.32742e-06 0.111381)
(5.15321e-05 -2.45016e-05 0.111384)
(2.48526e-05 -1.10172e-05 0.111399)
(4.56277e-05 -2.10552e-05 0.111422)
(3.26137e-05 -1.82908e-05 0.11145)
(3.65731e-05 -2.23575e-05 0.111479)
(2.7099e-05 -2.28225e-05 0.111507)
(2.31722e-05 -2.43706e-05 0.111533)
(1.2965e-05 -2.54271e-05 0.111553)
(4.45192e-06 -2.60352e-05 0.111563)
(-0.000431211 0.000369641 0.0844557)
(0.000337815 -0.000157326 0.11269)
(-7.33461e-05 8.71964e-05 0.112157)
(7.95582e-05 -4.97833e-05 0.111438)
(3.70431e-06 6.33191e-06 0.11138)
(5.15411e-05 -2.79294e-05 0.111371)
(2.66682e-05 -1.36167e-05 0.111377)
(4.35003e-05 -2.47752e-05 0.111397)
(3.19249e-05 -2.25762e-05 0.111425)
(3.4551e-05 -2.64894e-05 0.111454)
(2.59085e-05 -2.68358e-05 0.111483)
(2.13664e-05 -2.86085e-05 0.111508)
(1.17051e-05 -2.96239e-05 0.111525)
(4.17195e-06 -3.00392e-05 0.111534)
(-0.00583387 0.00141824 0.0288158)
(-0.000250921 -0.000196287 0.0952836)
(7.59747e-05 0.000123497 0.112247)
(-2.22728e-05 -7.40728e-05 0.111531)
(2.03561e-05 8.90652e-06 0.111311)
(3.1517e-05 -3.34782e-05 0.111316)
(2.79054e-05 -1.69266e-05 0.111328)
(3.66051e-05 -3.05181e-05 0.111355)
(3.08328e-05 -2.81499e-05 0.111389)
(3.22987e-05 -3.32555e-05 0.111423)
(2.49819e-05 -3.56694e-05 0.111455)
(2.03898e-05 -3.82877e-05 0.111479)
(1.15462e-05 -4.0417e-05 0.111495)
(4.11901e-06 -4.11367e-05 0.111503)
(-0.00324257 0.000482634 0.0177598)
(-0.000316723 0.000413528 0.0822716)
(0.000273936 -0.000134786 0.112126)
(-1.34941e-05 4.78282e-05 0.1119)
(4.15747e-05 -4.49928e-05 0.111235)
(2.5422e-05 -1.99824e-05 0.111229)
(2.94638e-05 -2.61331e-05 0.111262)
(3.22121e-05 -2.73547e-05 0.111302)
(2.91436e-05 -3.02968e-05 0.111347)
(2.70334e-05 -3.20546e-05 0.111389)
(2.0897e-05 -3.35338e-05 0.111424)
(1.66412e-05 -3.39825e-05 0.111449)
(8.86945e-06 -3.44668e-05 0.111464)
(3.33245e-06 -3.45923e-05 0.111472)
(-0.0088121 0.0018196 0.0304106)
(-0.000329932 -9.39039e-05 0.0943837)
(0.000101123 6.51398e-05 0.111984)
(-5.03913e-05 -1.94682e-05 0.111311)
(4.92652e-05 -1.54046e-05 0.111121)
(2.04359e-05 -2.42018e-05 0.111177)
(3.24392e-05 -3.32858e-05 0.11124)
(2.61455e-05 -3.33815e-05 0.111302)
(2.91051e-05 -3.79599e-05 0.111354)
(2.31173e-05 -4.4814e-05 0.111396)
(1.94965e-05 -4.66737e-05 0.111421)
(1.09311e-05 -5.20769e-05 0.111434)
(3.8851e-06 -5.27213e-05 0.111439)
(-0.00451911 -0.000463712 0.019078)
(-0.000382086 0.000406474 0.0837659)
(0.00029154 -0.000186706 0.112199)
(-1.75519e-05 -2.65664e-06 0.111636)
(1.92555e-05 -8.12603e-05 0.111002)
(1.11119e-05 -1.22929e-05 0.111078)
(2.30387e-05 -2.20783e-05 0.111177)
(2.44661e-05 -3.03483e-05 0.111262)
(1.56526e-05 -2.90785e-05 0.111327)
(1.22474e-05 -2.7847e-05 0.111375)
(9.46872e-06 -2.62831e-05 0.111398)
(2.86913e-06 -2.45153e-05 0.111402)
(2.75016e-06 -2.3454e-05 0.111402)
(-0.00597617 0.000556212 0.0311858)
(-0.000321557 -0.000244569 0.0953441)
(7.41308e-05 0.000218654 0.111885)
(3.8044e-05 -3.90504e-05 0.111171)
(7.96477e-05 -1.99102e-05 0.111003)
(1.48662e-05 -5.00933e-05 0.111122)
(1.92459e-05 -2.64403e-05 0.111227)
(3.17738e-05 -3.29032e-05 0.111313)
(2.60136e-05 -5.2514e-05 0.111368)
(2.28002e-05 -5.26424e-05 0.111382)
(1.36179e-05 -6.5865e-05 0.111369)
(5.21843e-06 -6.65148e-05 0.111355)
(-0.00430558 -0.00189354 0.0146403)
(-0.000403131 0.00053292 0.0802265)
(0.000477633 -0.000479144 0.112736)
(-0.000219434 -7.4726e-05 0.111883)
(1.6602e-06 1.66718e-05 0.111634)
(1.79295e-05 4.95751e-05 0.111308)
(4.27542e-05 -4.27085e-05 0.111231)
(-1.01458e-05 -2.12683e-05 0.111307)
(-7.42097e-06 -4.71715e-06 0.111375)
(-3.604e-06 -1.29808e-07 0.111376)
(-1.07167e-05 9.51021e-06 0.111328)
(2.36273e-06 1.26192e-05 0.111286)
(0.00234007 -0.0118599 0.0158077)
(-0.000534042 0.000403752 0.080173)
(0.000243787 0.000321076 0.0953144)
(0.000184843 -0.000293657 0.112193)
(-6.59581e-05 -0.000102599 0.111978)
(-4.8656e-05 1.23812e-05 0.111895)
(7.24899e-05 2.13082e-05 0.111526)
(4.78273e-05 -8.01309e-05 0.111432)
(3.61893e-05 -6.21927e-05 0.111381)
(2.49958e-05 -0.000102659 0.111267)
(7.78826e-06 -0.000101252 0.111172)
(0.00415225 -0.00868996 0.0186245)
(-0.00124473 -0.000612146 0.0260304)
(-0.000407122 0.000381207 0.0837555)
(9.34169e-05 0.000328688 0.0943745)
(0.000133016 -0.000275936 0.112122)
(-0.000124243 -7.74101e-05 0.112242)
(-8.82804e-05 7.22003e-05 0.11215)
(-2.2811e-05 5.19003e-05 0.111631)
(-4.70249e-05 8.61211e-05 0.111327)
(5.01874e-06 9.01705e-05 0.111178)
(-0.00212325 0.00140402 0.0295199)
(-0.00449398 0.000358064 0.0257432)
(-0.000413347 0.000315607 0.0822676)
(0.000195688 0.000249888 0.0952785)
(0.000155551 -0.000339403 0.112683)
(4.88104e-05 -8.57174e-05 0.11308)
(5.34959e-05 -0.000211039 0.111737)
(9.56645e-06 -0.000181248 0.111621)
(-0.00255774 0.000433376 0.0168192)
(-0.00266535 0.00156398 0.0314744)
(-0.00430752 -0.000230127 0.0258422)
(-0.000369825 0.00042938 0.0844478)
(0.000112975 0.000125793 0.0997701)
(-9.57467e-05 0.000244286 0.0953894)
(3.05227e-05 0.000221614 0.0952437)
(-0.00232278 -0.00662018 0.0218633)
(0.00304886 -0.00672237 0.0244438)
(-0.00108013 0.00149769 0.0318941)
(0.000154887 0.00142431 0.0288626)
(-0.00498121 -2.80457e-06 0.0216122)
(-0.000221188 -3.1618e-05 0.0952437)
(0.000183193 -1.07845e-05 0.111624)
(-8.73122e-05 -7.52673e-06 0.111179)
(0.00010518 -9.08653e-06 0.111173)
(-7.74767e-06 -4.35555e-06 0.111286)
(7.25582e-05 -6.97436e-06 0.111357)
(2.93602e-05 -4.79521e-06 0.111404)
(5.88745e-05 -6.25502e-06 0.111442)
(4.01628e-05 -5.55894e-06 0.111474)
(4.60491e-05 -6.32516e-06 0.111506)
(3.38833e-05 -6.54415e-06 0.111537)
(2.89282e-05 -7.14254e-06 0.111567)
(1.66655e-05 -7.21376e-06 0.111594)
(6.41033e-06 -7.98149e-06 0.111611)
(-0.00469021 -0.000723036 0.0195789)
(-0.000244318 9.25994e-05 0.0953971)
(0.00021185 -5.44214e-05 0.111746)
(-8.34033e-05 4.53893e-05 0.111332)
(0.00010767 -2.75535e-05 0.11127)
(-4.84674e-06 8.2337e-06 0.11133)
(7.1937e-05 -1.64589e-05 0.111372)
(3.02824e-05 -5.88374e-06 0.111405)
(5.79138e-05 -1.42511e-05 0.111437)
(4.00178e-05 -1.22276e-05 0.111467)
(4.52236e-05 -1.52384e-05 0.111498)
(3.33083e-05 -1.57319e-05 0.111528)
(2.8276e-05 -1.69167e-05 0.111557)
(1.61427e-05 -1.75317e-05 0.11158)
(5.84197e-06 -1.80563e-05 0.111594)
(-0.00128177 -0.00153934 0.0101995)
(-0.000125517 -0.000114003 0.0997753)
(8.95154e-05 -4.89417e-05 0.113087)
(-5.06023e-05 2.05218e-05 0.111637)
(6.53313e-05 -3.83879e-05 0.111385)
(4.78185e-06 9.73505e-07 0.111379)
(5.81758e-05 -2.60979e-05 0.111385)
(3.17247e-05 -1.3072e-05 0.1114)
(5.24852e-05 -2.3592e-05 0.111424)
(3.91761e-05 -2.1114e-05 0.111452)
(4.25428e-05 -2.55623e-05 0.111482)
(3.2185e-05 -2.6454e-05 0.111511)
(2.71191e-05 -2.8374e-05 0.111538)
(1.55336e-05 -2.9723e-05 0.111557)
(5.5033e-06 -3.04575e-05 0.111568)
(-0.00042854 0.000370135 0.0844509)
(0.00033895 -0.0001617 0.112687)
(-7.13785e-05 8.49418e-05 0.112151)
(8.47946e-05 -5.18102e-05 0.111436)
(8.30482e-06 3.44595e-06 0.111378)
(5.76083e-05 -3.0359e-05 0.111371)
(3.28078e-05 -1.66943e-05 0.111377)
(4.97654e-05 -2.82557e-05 0.111399)
(3.79727e-05 -2.63045e-05 0.111427)
(3.98566e-05 -3.07736e-05 0.111457)
(3.04936e-05 -3.15445e-05 0.111487)
(2.50216e-05 -3.3768e-05 0.111512)
(1.40728e-05 -3.49144e-05 0.111529)
(4.98843e-06 -3.56166e-05 0.111538)
(-0.00583498 0.00141869 0.0288204)
(-0.00025036 -0.000201 0.095279)
(8.0667e-05 0.000124832 0.112243)
(-1.88598e-05 -7.57536e-05 0.111529)
(2.55212e-05 7.39672e-06 0.11131)
(3.79306e-05 -3.60631e-05 0.111315)
(3.36939e-05 -2.00474e-05 0.111329)
(4.27929e-05 -3.45875e-05 0.111356)
(3.65882e-05 -3.25099e-05 0.111391)
(3.7288e-05 -3.83977e-05 0.111426)
(2.91887e-05 -4.10372e-05 0.111457)
(2.37485e-05 -4.41701e-05 0.111482)
(1.36935e-05 -4.65597e-05 0.111498)
(4.79149e-06 -4.75696e-05 0.111507)
(-0.00324287 0.000482306 0.0177622)
(-0.000313879 0.000413911 0.0822655)
(0.000279094 -0.000138245 0.112122)
(-1.11097e-05 4.76249e-05 0.111897)
(4.52092e-05 -4.72828e-05 0.111231)
(2.98295e-05 -2.40391e-05 0.111228)
(3.40797e-05 -2.98286e-05 0.111261)
(3.72226e-05 -3.21314e-05 0.111302)
(3.41109e-05 -3.52594e-05 0.111348)
(3.1318e-05 -3.78139e-05 0.11139)
(2.47539e-05 -3.9438e-05 0.111426)
(1.9536e-05 -4.04008e-05 0.111452)
(1.06857e-05 -4.12508e-05 0.111467)
(3.94027e-06 -4.15098e-05 0.111475)
(-0.00881418 0.00182034 0.0304157)
(-0.000326654 -0.000101538 0.0943815)
(0.00010563 6.33448e-05 0.111979)
(-4.91112e-05 -1.96769e-05 0.111309)
(5.42188e-05 -1.92205e-05 0.111119)
(2.5462e-05 -2.72463e-05 0.111176)
(3.73514e-05 -3.82456e-05 0.11124)
(3.0922e-05 -3.843e-05 0.111302)
(3.31566e-05 -4.41738e-05 0.111355)
(2.66803e-05 -5.10938e-05 0.111397)
(2.19925e-05 -5.36837e-05 0.111423)
(1.25806e-05 -5.91705e-05 0.111436)
(4.47657e-06 -5.99161e-05 0.111442)
(-0.00451951 -0.000464243 0.0190798)
(-0.000379138 0.000405624 0.0837597)
(0.000301549 -0.000193174 0.112197)
(-1.59813e-05 -7.58354e-06 0.111631)
(2.08236e-05 -8.51894e-05 0.110999)
(1.45586e-05 -1.57406e-05 0.111076)
(2.60426e-05 -2.72172e-05 0.111176)
(2.81838e-05 -3.52474e-05 0.111261)
(1.87197e-05 -3.50595e-05 0.111327)
(1.53311e-05 -3.41016e-05 0.111375)
(1.15712e-05 -3.30829e-05 0.111398)
(4.50631e-06 -3.13998e-05 0.111403)
(3.17438e-06 -3.05167e-05 0.111404)
(-0.00597783 0.000557704 0.0311905)
(-0.000321023 -0.000248225 0.0953406)
(7.76745e-05 0.000214049 0.111882)
(4.44567e-05 -4.56256e-05 0.111169)
(8.3468e-05 -2.16155e-05 0.111001)
(1.83537e-05 -5.50311e-05 0.111119)
(2.32243e-05 -3.10441e-05 0.111226)
(3.45156e-05 -3.95048e-05 0.111312)
(2.87876e-05 -5.86598e-05 0.111368)
(2.46749e-05 -5.92676e-05 0.111382)
(1.49963e-05 -7.27982e-05 0.11137)
(5.38986e-06 -7.34346e-05 0.111357)
(-0.00430614 -0.00189359 0.0146425)
(-0.000400492 0.000533091 0.0802237)
(0.000476414 -0.000478135 0.112731)
(-0.000214961 -7.82618e-05 0.11188)
(6.76622e-06 1.49317e-05 0.111629)
(1.80339e-05 4.82621e-05 0.111306)
(4.4856e-05 -4.62393e-05 0.111227)
(-8.57263e-06 -2.63865e-05 0.111306)
(-4.32519e-06 -9.26814e-06 0.111373)
(-2.28456e-06 -5.95653e-06 0.111375)
(-9.39009e-06 3.8444e-06 0.111326)
(2.77112e-06 6.54904e-06 0.111285)
(0.00234069 -0.0118622 0.0158115)
(-0.000534218 0.000401147 0.0801699)
(0.000247333 0.000320385 0.0953111)
(0.00019115 -0.00030365 0.11219)
(-6.42173e-05 -0.000107314 0.111973)
(-4.845e-05 9.81737e-06 0.111892)
(7.42728e-05 1.78129e-05 0.111524)
(4.99306e-05 -8.55667e-05 0.11143)
(3.69254e-05 -6.65148e-05 0.111379)
(2.60797e-05 -0.000108337 0.111265)
(7.80935e-06 -0.00010648 0.111171)
(0.00415311 -0.00869141 0.0186281)
(-0.00124693 -0.000612444 0.0260364)
(-0.00040616 0.000378359 0.0837495)
(0.000100776 0.000325216 0.0943725)
(0.000136391 -0.000281034 0.112117)
(-0.000125532 -8.21334e-05 0.112238)
(-8.59792e-05 7.00386e-05 0.112145)
(-2.1762e-05 4.93468e-05 0.111629)
(-4.66661e-05 8.22909e-05 0.111324)
(6.00832e-06 8.62009e-05 0.111176)
(-0.00212306 0.00140585 0.0295242)
(-0.00449495 0.000359365 0.0257493)
(-0.000413813 0.000312878 0.082262)
(0.000200236 0.000248787 0.095274)
(0.000159971 -0.000340695 0.112681)
(4.76473e-05 -9.05607e-05 0.113076)
(5.30765e-05 -0.000213169 0.111734)
(9.4079e-06 -0.000184505 0.111619)
(-0.00255785 0.000433582 0.0168208)
(-0.00266555 0.00156512 0.0314784)
(-0.00430914 -0.000228372 0.0258487)
(-0.00037005 0.000426275 0.0844435)
(0.000113104 0.000123961 0.0997657)
(-9.3949e-05 0.000242849 0.0953851)
(3.02331e-05 0.000219719 0.095239)
(-0.00232214 -0.00662117 0.0218676)
(0.00304962 -0.00672192 0.0244493)
(-0.00108003 0.00149889 0.0319007)
(0.000154164 0.00142579 0.0288689)
(-0.00498185 -2.75778e-06 0.0216156)
(-0.000218301 -3.09708e-05 0.0952372)
(0.000187739 -1.10106e-05 0.111623)
(-8.35299e-05 -8.98595e-06 0.111176)
(0.000110528 -9.1839e-06 0.111172)
(-1.38281e-06 -4.90635e-06 0.111285)
(7.9891e-05 -7.3606e-06 0.111358)
(3.68884e-05 -5.26962e-06 0.111404)
(6.6436e-05 -6.77664e-06 0.111443)
(4.73154e-05 -6.25612e-06 0.111475)
(5.27e-05 -7.16441e-06 0.111508)
(3.96796e-05 -7.32032e-06 0.111538)
(3.39857e-05 -8.01701e-06 0.111569)
(2.00009e-05 -8.44776e-06 0.111596)
(7.44116e-06 -8.93857e-06 0.111614)
(-0.00469098 -0.000723081 0.019582)
(-0.000241715 9.21197e-05 0.0953915)
(0.000214392 -5.51502e-05 0.111743)
(-7.93505e-05 4.56813e-05 0.111328)
(0.000114067 -2.85963e-05 0.111269)
(1.25316e-06 7.0064e-06 0.111328)
(7.92765e-05 -1.77844e-05 0.111373)
(3.75927e-05 -7.38668e-06 0.111405)
(6.52964e-05 -1.60293e-05 0.111438)
(4.68958e-05 -1.4121e-05 0.111468)
(5.17264e-05 -1.74982e-05 0.1115)
(3.90688e-05 -1.78619e-05 0.11153)
(3.29564e-05 -1.95207e-05 0.111559)
(1.92298e-05 -2.0572e-05 0.111582)
(6.98748e-06 -2.13175e-05 0.111597)
(-0.001282 -0.0015395 0.0102027)
(-0.00012326 -0.00011386 0.0997708)
(9.50909e-05 -4.67246e-05 0.113082)
(-4.70019e-05 1.86632e-05 0.111634)
(6.92344e-05 -3.90926e-05 0.111384)
(1.09323e-05 -6.93346e-07 0.111378)
(6.52538e-05 -2.78905e-05 0.111385)
(3.88109e-05 -1.53212e-05 0.1114)
(5.9649e-05 -2.62874e-05 0.111426)
(4.5846e-05 -2.4003e-05 0.111453)
(4.89523e-05 -2.88562e-05 0.111484)
(3.76312e-05 -3.00598e-05 0.111513)
(3.12566e-05 -3.2694e-05 0.11154)
(1.82092e-05 -3.43513e-05 0.111559)
(6.53764e-06 -3.54163e-05 0.11157)
(-0.000424106 0.000369535 0.0844461)
(0.000339569 -0.000166369 0.112684)
(-6.99418e-05 8.14995e-05 0.112146)
(9.14235e-05 -5.38697e-05 0.111434)
(1.33444e-05 4.93755e-07 0.111375)
(6.43583e-05 -3.32082e-05 0.111371)
(3.92041e-05 -1.99193e-05 0.111377)
(5.64848e-05 -3.19239e-05 0.1114)
(4.4233e-05 -3.01606e-05 0.111427)
(4.56348e-05 -3.52491e-05 0.111459)
(3.5227e-05 -3.65074e-05 0.111488)
(2.86744e-05 -3.91138e-05 0.111513)
(1.65274e-05 -4.04505e-05 0.11153)
(5.84866e-06 -4.14462e-05 0.111539)
(-0.00583658 0.00141875 0.0288262)
(-0.000249004 -0.00020857 0.0952762)
(8.67159e-05 0.000127346 0.112239)
(-1.45062e-05 -7.81809e-05 0.111527)
(3.08356e-05 5.42728e-06 0.111308)
(4.46918e-05 -3.929e-05 0.111315)
(3.99245e-05 -2.34369e-05 0.111329)
(4.92936e-05 -3.89091e-05 0.111357)
(4.24214e-05 -3.71787e-05 0.111391)
(4.25787e-05 -4.38617e-05 0.111427)
(3.37615e-05 -4.68581e-05 0.111458)
(2.73189e-05 -5.03634e-05 0.111484)
(1.59007e-05 -5.30426e-05 0.1115)
(5.49144e-06 -5.4292e-05 0.111509)
(-0.00324321 0.000482059 0.0177651)
(-0.00031026 0.000414293 0.0822601)
(0.000285949 -0.000141235 0.112116)
(-8.9795e-06 4.61261e-05 0.111893)
(4.93647e-05 -4.94653e-05 0.111227)
(3.50989e-05 -2.87513e-05 0.111226)
(3.93275e-05 -3.36316e-05 0.11126)
(4.26382e-05 -3.72741e-05 0.111303)
(3.92203e-05 -4.04127e-05 0.111348)
(3.59514e-05 -4.36841e-05 0.111391)
(2.8769e-05 -4.54967e-05 0.111427)
(2.25357e-05 -4.71425e-05 0.111453)
(1.26111e-05 -4.81635e-05 0.111468)
(4.61411e-06 -4.8561e-05 0.111476)
(-0.00881635 0.00182173 0.0304225)
(-0.000323016 -0.000110259 0.0943783)
(0.000110708 6.29552e-05 0.111974)
(-4.70586e-05 -2.05484e-05 0.111307)
(5.92907e-05 -2.28311e-05 0.111117)
(3.12074e-05 -3.07399e-05 0.111175)
(4.24947e-05 -4.35655e-05 0.11124)
(3.60331e-05 -4.38263e-05 0.111302)
(3.75509e-05 -5.06295e-05 0.111356)
(3.04004e-05 -5.78432e-05 0.111398)
(2.4728e-05 -6.09197e-05 0.111425)
(1.44802e-05 -6.65438e-05 0.111438)
(5.14621e-06 -6.7577e-05 0.111444)
(-0.00451972 -0.000464686 0.0190826)
(-0.000374427 0.000404417 0.0837553)
(0.000311778 -0.000198802 0.112194)
(-1.50928e-05 -1.24458e-05 0.111625)
(2.34458e-05 -8.86528e-05 0.110998)
(1.80703e-05 -1.9436e-05 0.111073)
(2.95548e-05 -3.29156e-05 0.111175)
(3.2162e-05 -4.05693e-05 0.11126)
(2.20173e-05 -4.13307e-05 0.111327)
(1.85955e-05 -4.04707e-05 0.111375)
(1.39735e-05 -4.00488e-05 0.111399)
(6.0151e-06 -3.87514e-05 0.111404)
(3.61417e-06 -3.80881e-05 0.111404)
(-0.00597968 0.000558973 0.0311966)
(-0.000319581 -0.000253114 0.0953376)
(8.15787e-05 0.000210197 0.111879)
(5.06796e-05 -5.19738e-05 0.111167)
(8.69833e-05 -2.43041e-05 0.110998)
(2.19036e-05 -6.01235e-05 0.111117)
(2.78175e-05 -3.64349e-05 0.111224)
(3.79182e-05 -4.62269e-05 0.111312)
(3.18488e-05 -6.53336e-05 0.111368)
(2.64393e-05 -6.64556e-05 0.111383)
(1.62803e-05 -8.02311e-05 0.111371)
(5.85351e-06 -8.07085e-05 0.111357)
(-0.00430675 -0.00189328 0.0146456)
(-0.000397889 0.000533379 0.0802209)
(0.000475963 -0.000477684 0.112726)
(-0.000211171 -8.22085e-05 0.111877)
(1.15466e-05 1.41281e-05 0.111624)
(1.88638e-05 4.61289e-05 0.111303)
(4.72654e-05 -5.04008e-05 0.111224)
(-6.49796e-06 -3.17012e-05 0.111305)
(-1.48402e-06 -1.44591e-05 0.111372)
(-6.33502e-07 -1.21927e-05 0.111374)
(-7.98702e-06 -2.20448e-06 0.111325)
(3.29189e-06 1.59686e-07 0.111284)
(0.00234181 -0.0118647 0.0158161)
(-0.000534467 0.000398578 0.0801672)
(0.000252186 0.00031879 0.095308)
(0.000196757 -0.000313892 0.112187)
(-6.39804e-05 -0.000112397 0.111968)
(-4.69906e-05 7.59924e-06 0.111888)
(7.67285e-05 1.32702e-05 0.111522)
(5.2116e-05 -9.23681e-05 0.111429)
(3.78058e-05 -7.03715e-05 0.111378)
(2.71436e-05 -0.000114763 0.111264)
(7.89454e-06 -0.000111968 0.11117)
(0.00415352 -0.00869311 0.0186326)
(-0.0012487 -0.000613196 0.0260441)
(-0.000405119 0.000373958 0.0837452)
(0.000109367 0.00032183 0.0943693)
(0.000139446 -0.000287671 0.112111)
(-0.000128025 -8.81539e-05 0.112234)
(-8.2408e-05 6.8721e-05 0.11214)
(-1.97747e-05 4.5686e-05 0.111626)
(-4.69641e-05 7.83519e-05 0.11132)
(7.51696e-06 8.25067e-05 0.111173)
(-0.0021229 0.0014078 0.0295295)
(-0.00449605 0.000360631 0.0257569)
(-0.000414301 0.000309554 0.0822566)
(0.000207779 0.000247439 0.0952712)
(0.000164658 -0.000341341 0.112678)
(4.56175e-05 -9.59712e-05 0.113072)
(5.39783e-05 -0.000215533 0.111731)
(9.75439e-06 -0.000188763 0.111618)
(-0.00255833 0.000434074 0.0168232)
(-0.00266533 0.00156635 0.0314842)
(-0.00431017 -0.000226449 0.0258562)
(-0.000369596 0.000422353 0.0844389)
(0.000113316 0.00012198 0.0997618)
(-9.33677e-05 0.000240423 0.0953802)
(2.96434e-05 0.000217176 0.0952331)
(-0.00232211 -0.00662174 0.0218723)
(0.00305009 -0.00672191 0.0244558)
(-0.00108047 0.00150051 0.0319084)
(0.000154368 0.00142766 0.0288769)
(-0.00498228 -2.64085e-06 0.0216195)
(-0.000213964 -2.97978e-05 0.0952323)
(0.000193585 -1.16732e-05 0.11162)
(-8.03033e-05 -1.04891e-05 0.111173)
(0.000116289 -9.29083e-06 0.111172)
(4.9274e-06 -5.44901e-06 0.111284)
(8.7217e-05 -7.59113e-06 0.111359)
(4.41671e-05 -5.66349e-06 0.111403)
(7.39661e-05 -7.24356e-06 0.111443)
(5.4108e-05 -6.87091e-06 0.111474)
(5.95609e-05 -7.80171e-06 0.111507)
(4.60675e-05 -8.07466e-06 0.111536)
(3.93094e-05 -9.0287e-06 0.111567)
(2.3979e-05 -9.79767e-06 0.111594)
(9.20093e-06 -1.06115e-05 0.111614)
(-0.00469169 -0.000723092 0.0195859)
(-0.000237939 9.33706e-05 0.0953854)
(0.000217627 -5.73943e-05 0.111742)
(-7.55013e-05 4.59387e-05 0.111325)
(0.000120877 -2.99355e-05 0.111269)
(7.5112e-06 6.0062e-06 0.111327)
(8.67512e-05 -1.90237e-05 0.111374)
(4.45814e-05 -8.65997e-06 0.111404)
(7.25998e-05 -1.76754e-05 0.111438)
(5.35526e-05 -1.58099e-05 0.111466)
(5.83656e-05 -1.94823e-05 0.111499)
(4.4773e-05 -2.01414e-05 0.111528)
(3.7824e-05 -2.25924e-05 0.111557)
(2.27118e-05 -2.38228e-05 0.11158)
(8.40701e-06 -2.54054e-05 0.111595)
(-0.00128221 -0.00153961 0.0102064)
(-0.000120765 -0.000113274 0.0997664)
(0.000100112 -4.50349e-05 0.113077)
(-4.26649e-05 1.68212e-05 0.11163)
(7.38161e-05 -4.00146e-05 0.111383)
(1.74307e-05 -2.32223e-06 0.111377)
(7.23299e-05 -2.98868e-05 0.111386)
(4.56956e-05 -1.74988e-05 0.111399)
(6.67512e-05 -2.89804e-05 0.111426)
(5.22944e-05 -2.68309e-05 0.111452)
(5.52053e-05 -3.23074e-05 0.111483)
(4.29116e-05 -3.39083e-05 0.111511)
(3.55964e-05 -3.7146e-05 0.111538)
(2.11681e-05 -3.92414e-05 0.111556)
(7.78617e-06 -4.08129e-05 0.111568)
(-0.000418965 0.000368477 0.0844413)
(0.000340466 -0.000169638 0.112681)
(-6.83693e-05 7.82581e-05 0.112142)
(9.85008e-05 -5.594e-05 0.111433)
(1.85697e-05 -2.15528e-06 0.111374)
(7.12731e-05 -3.62771e-05 0.111372)
(4.54813e-05 -2.29081e-05 0.111376)
(6.31039e-05 -3.55503e-05 0.1114)
(5.0113e-05 -3.38643e-05 0.111426)
(5.12437e-05 -3.96586e-05 0.111458)
(3.99216e-05 -4.1133e-05 0.111486)
(3.24915e-05 -4.42627e-05 0.111511)
(1.90771e-05 -4.59177e-05 0.111528)
(6.8992e-06 -4.73578e-05 0.111537)
(-0.00583844 0.00141879 0.0288337)
(-0.000246917 -0.000217003 0.0952765)
(9.21095e-05 0.000128904 0.112235)
(-9.3902e-06 -8.13722e-05 0.111526)
(3.62798e-05 3.12069e-06 0.111307)
(5.13767e-05 -4.28695e-05 0.111315)
(4.62085e-05 -2.68294e-05 0.111328)
(5.56409e-05 -4.33057e-05 0.111358)
(4.80428e-05 -4.17114e-05 0.111391)
(4.78871e-05 -4.91136e-05 0.111427)
(3.83016e-05 -5.24632e-05 0.111457)
(3.08328e-05 -5.66019e-05 0.111483)
(1.81291e-05 -5.95566e-05 0.111499)
(6.39096e-06 -6.12112e-05 0.111508)
(-0.0032438 0.000481697 0.0177684)
(-0.000307028 0.000413152 0.0822554)
(0.000293224 -0.000143889 0.112109)
(-5.7897e-06 4.37193e-05 0.11189)
(5.40884e-05 -5.1939e-05 0.111225)
(4.08498e-05 -3.37206e-05 0.111226)
(4.47198e-05 -3.74508e-05 0.111259)
(4.80851e-05 -4.23898e-05 0.111303)
(4.42333e-05 -4.53152e-05 0.111348)
(4.04997e-05 -4.92752e-05 0.111391)
(3.24941e-05 -5.14126e-05 0.111425)
(2.54531e-05 -5.35861e-05 0.111451)
(1.44908e-05 -5.47221e-05 0.111466)
(5.25671e-06 -5.55475e-05 0.111475)
(-0.00881884 0.00182288 0.0304316)
(-0.000318882 -0.000117428 0.0943758)
(0.000115973 6.27739e-05 0.11197)
(-4.42551e-05 -2.19597e-05 0.111304)
(6.45414e-05 -2.63706e-05 0.111117)
(3.7278e-05 -3.45825e-05 0.111174)
(4.77508e-05 -4.88373e-05 0.11124)
(4.11851e-05 -4.92773e-05 0.111302)
(4.18579e-05 -5.7113e-05 0.111357)
(3.41177e-05 -6.44685e-05 0.111399)
(2.76221e-05 -6.79332e-05 0.111425)
(1.61722e-05 -7.39567e-05 0.111438)
(5.71184e-06 -7.51597e-05 0.111444)
(-0.00452002 -0.000464971 0.0190861)
(-0.000369614 0.000402477 0.0837526)
(0.000321056 -0.000203671 0.112189)
(-1.37855e-05 -1.71379e-05 0.111621)
(2.67139e-05 -9.14828e-05 0.110996)
(2.16974e-05 -2.31437e-05 0.111071)
(3.33929e-05 -3.88238e-05 0.111175)
(3.59681e-05 -4.6054e-05 0.111259)
(2.54137e-05 -4.76221e-05 0.111327)
(2.18284e-05 -4.66567e-05 0.111375)
(1.61389e-05 -4.70652e-05 0.111398)
(7.33855e-06 -4.58249e-05 0.111403)
(4.18189e-06 -4.53769e-05 0.111403)
(-0.00598189 0.000559676 0.0312044)
(-0.000316847 -0.000258067 0.0953355)
(8.61419e-05 0.000207023 0.111876)
(5.6893e-05 -5.82113e-05 0.111166)
(8.9981e-05 -2.75383e-05 0.110996)
(2.54253e-05 -6.55793e-05 0.111117)
(3.26526e-05 -4.21408e-05 0.111224)
(4.15922e-05 -5.281e-05 0.111313)
(3.48849e-05 -7.23646e-05 0.111369)
(2.84612e-05 -7.36038e-05 0.111383)
(1.76879e-05 -8.76398e-05 0.111372)
(6.2304e-06 -8.81847e-05 0.111358)
(-0.00430766 -0.00189316 0.0146492)
(-0.000393881 0.000532939 0.0802181)
(0.000476239 -0.000477825 0.112721)
(-0.000207956 -8.66793e-05 0.111875)
(1.59713e-05 1.28493e-05 0.111619)
(2.02743e-05 4.31567e-05 0.111301)
(5.00232e-05 -5.50235e-05 0.111222)
(-4.35097e-06 -3.72194e-05 0.111304)
(1.23482e-06 -1.96681e-05 0.11137)
(1.16659e-06 -1.85766e-05 0.111373)
(-7.01367e-06 -8.49714e-06 0.111324)
(3.78141e-06 -6.31016e-06 0.111283)
(0.00234325 -0.0118677 0.0158213)
(-0.000534202 0.000395047 0.0801646)
(0.000256973 0.000316491 0.0953062)
(0.00020154 -0.000323132 0.112183)
(-6.37471e-05 -0.000117349 0.111964)
(-4.46248e-05 4.26574e-06 0.111885)
(7.99271e-05 8.13323e-06 0.111521)
(5.43411e-05 -9.94215e-05 0.111428)
(3.87037e-05 -7.49882e-05 0.111377)
(2.83796e-05 -0.000121613 0.111264)
(8.05265e-06 -0.000117605 0.11117)
(0.00415399 -0.00869541 0.0186376)
(-0.00125002 -0.000613069 0.0260536)
(-0.00040327 0.000369182 0.0837428)
(0.000116377 0.000318236 0.0943673)
(0.000142053 -0.000294854 0.112105)
(-0.000129581 -9.34302e-05 0.11223)
(-7.9109e-05 6.71848e-05 0.112136)
(-1.78224e-05 4.13775e-05 0.111622)
(-4.70862e-05 7.47021e-05 0.111317)
(9.08189e-06 7.93624e-05 0.11117)
(-0.00212238 0.00140869 0.0295368)
(-0.00449751 0.000362098 0.0257656)
(-0.0004136 0.000306494 0.082252)
(0.000216165 0.000245547 0.0952717)
(0.000168009 -0.000342032 0.112674)
(4.40813e-05 -0.000100813 0.113068)
(5.61821e-05 -0.000218617 0.11173)
(1.05179e-05 -0.000194328 0.111615)
(-0.00255879 0.000434319 0.016826)
(-0.00266528 0.00156798 0.0314907)
(-0.00431182 -0.000224981 0.025866)
(-0.000368493 0.000417548 0.0844347)
(0.000112761 0.00011964 0.0997575)
(-9.44555e-05 0.000237202 0.0953741)
(2.87234e-05 0.000213888 0.0952285)
(-0.00232148 -0.00662257 0.021878)
(0.00305117 -0.00672202 0.0244638)
(-0.00108069 0.00150231 0.031918)
(0.000154501 0.00143053 0.0288864)
(-0.00498331 -2.61484e-06 0.021625)
(-0.000209831 -3.04909e-05 0.0952302)
(0.000198333 -1.03701e-05 0.111618)
(-7.62945e-05 -1.17467e-05 0.111169)
(0.000122091 -9.23999e-06 0.111173)
(1.10058e-05 -5.88122e-06 0.111282)
(9.40134e-05 -7.82587e-06 0.11136)
(5.0185e-05 -6.10623e-06 0.1114)
(8.06148e-05 -7.72324e-06 0.111441)
(5.98847e-05 -7.40459e-06 0.111468)
(6.60412e-05 -8.5542e-06 0.111501)
(5.19784e-05 -9.21899e-06 0.111528)
(4.53982e-05 -1.0363e-05 0.111559)
(2.93325e-05 -1.16804e-05 0.111585)
(1.17195e-05 -1.32593e-05 0.111607)
(-0.00469238 -0.000723251 0.0195909)
(-0.000232898 9.4452e-05 0.0953816)
(0.000221984 -5.92618e-05 0.111742)
(-7.26552e-05 4.62531e-05 0.111322)
(0.000127531 -3.12985e-05 0.111271)
(1.32955e-05 5.40153e-06 0.111325)
(9.35644e-05 -2.03994e-05 0.111375)
(5.0403e-05 -9.65243e-06 0.111401)
(7.91716e-05 -1.91459e-05 0.111436)
(5.92059e-05 -1.71181e-05 0.111461)
(6.44346e-05 -2.12957e-05 0.111493)
(4.99532e-05 -2.22253e-05 0.11152)
(4.29864e-05 -2.55266e-05 0.111548)
(2.68113e-05 -2.76273e-05 0.111571)
(1.01625e-05 -3.05214e-05 0.111587)
(-0.00128239 -0.00153968 0.0102108)
(-0.000118014 -0.000111816 0.0997625)
(0.000104288 -4.44613e-05 0.113074)
(-3.78714e-05 1.48904e-05 0.111627)
(7.87779e-05 -4.11641e-05 0.111384)
(2.36059e-05 -3.71301e-06 0.111376)
(7.87633e-05 -3.19651e-05 0.111387)
(5.16343e-05 -1.9248e-05 0.111397)
(7.30644e-05 -3.14281e-05 0.111424)
(5.77107e-05 -2.93814e-05 0.111447)
(6.08751e-05 -3.55803e-05 0.111478)
(4.76463e-05 -3.73694e-05 0.111504)
(3.99204e-05 -4.14494e-05 0.11153)
(2.43392e-05 -4.43195e-05 0.111548)
(9.10671e-06 -4.68627e-05 0.111559)
(-0.000412939 0.000367148 0.0844367)
(0.000341574 -0.000170701 0.112679)
(-6.68707e-05 7.55667e-05 0.112139)
(0.000105766 -5.7826e-05 0.111434)
(2.34859e-05 -4.43701e-06 0.111373)
(7.77116e-05 -3.9055e-05 0.111372)
(5.09133e-05 -2.52633e-05 0.111375)
(6.88258e-05 -3.86719e-05 0.111399)
(5.49041e-05 -3.68861e-05 0.111422)
(5.63767e-05 -4.33593e-05 0.111454)
(4.4049e-05 -4.49902e-05 0.11148)
(3.60331e-05 -4.8857e-05 0.111504)
(2.14743e-05 -5.09383e-05 0.11152)
(7.89653e-06 -5.31488e-05 0.111529)
(-0.00584057 0.00141921 0.0288428)
(-0.000243792 -0.000226908 0.0952773)
(9.59843e-05 0.000130134 0.112232)
(-4.09596e-06 -8.52974e-05 0.111526)
(4.14968e-05 1.17195e-06 0.111307)
(5.76729e-05 -4.64502e-05 0.111316)
(5.17497e-05 -2.97838e-05 0.111328)
(6.12382e-05 -4.73724e-05 0.111357)
(5.28327e-05 -4.53532e-05 0.111388)
(5.26935e-05 -5.37526e-05 0.111424)
(4.21414e-05 -5.75853e-05 0.111453)
(3.40193e-05 -6.23478e-05 0.111478)
(2.01643e-05 -6.56332e-05 0.111493)
(7.20367e-06 -6.78323e-05 0.111502)
(-0.00324469 0.000481005 0.0177726)
(-0.000303876 0.00040986 0.0822527)
(0.00030128 -0.000145863 0.112105)
(-1.7386e-06 4.04957e-05 0.111888)
(5.92011e-05 -5.46249e-05 0.111224)
(4.61849e-05 -3.76874e-05 0.111226)
(4.95832e-05 -4.08136e-05 0.111258)
(5.30802e-05 -4.66863e-05 0.111302)
(4.84344e-05 -4.93383e-05 0.111346)
(4.41582e-05 -5.40749e-05 0.111388)
(3.55416e-05 -5.6226e-05 0.111421)
(2.80663e-05 -5.89171e-05 0.111447)
(1.6044e-05 -6.03357e-05 0.111461)
(5.82196e-06 -6.14143e-05 0.111469)
(-0.0088218 0.00182399 0.0304425)
(-0.000314026 -0.000123147 0.0943753)
(0.000120581 6.28376e-05 0.111967)
(-3.99028e-05 -2.41795e-05 0.111303)
(7.00447e-05 -3.01565e-05 0.111119)
(4.24121e-05 -3.83691e-05 0.111174)
(5.26768e-05 -5.36851e-05 0.111242)
(4.54791e-05 -5.43156e-05 0.111302)
(4.58908e-05 -6.2781e-05 0.111357)
(3.74654e-05 -7.00799e-05 0.111397)
(3.0045e-05 -7.42397e-05 0.111424)
(1.76882e-05 -8.04918e-05 0.111436)
(6.36798e-06 -8.18142e-05 0.111442)
(-0.00452066 -0.000465106 0.0190905)
(-0.000364507 0.000400043 0.0837509)
(0.000328985 -0.00020754 0.112187)
(-1.25931e-05 -2.13066e-05 0.111617)
(3.03934e-05 -9.48423e-05 0.110995)
(2.54559e-05 -2.73692e-05 0.11107)