/*--------------------------------*- C++ -*----------------------------------*\
| =========                 |                                                 |
| \\      /  F ield         | OpenFOAM: The Open Source CFD Toolbox           |
|  \\    /   O peration     | Version:  2.1.1                                 |
|   \\  /    A nd           | Web:      www.OpenFOAM.org                      |
|    \\/     M anipulation  |                                                 |
\*---------------------------------------------------------------------------*/
FoamFile
{
    version     2.0;
    format      ascii;
    class       surfaceScalarField;
    location    "0.0045";
    object      phi;
}
// * * * * * * * * * * * * * * * * * * * * * * * * * * * * * * * * * * * * * //

dimensions      [0 3 -1 0 0 0 0];

internalField   nonuniform List<scalar> 
29352
(
-1.45272e-13
-1.45481e-13
2.50292e-10
1.1999e-13
-4.39827e-13
-1.4544e-13
2.50467e-10
2.46127e-13
-7.41383e-13
-1.48916e-13
2.50642e-10
3.71898e-13
-1.06456e-12
-1.5284e-13
2.50842e-10
5.20265e-13
-1.40959e-12
-1.59506e-13
2.51044e-10
6.61781e-13
-1.79931e-12
-1.66597e-13
2.513e-10
8.5637e-13
-2.23674e-12
-1.76381e-13
2.5155e-10
1.0304e-12
-2.78451e-12
-1.88966e-13
2.51938e-10
1.34468e-12
-3.43373e-12
-2.02889e-13
2.52285e-10
1.58923e-12
-4.42702e-12
-2.21769e-13
2.53057e-10
2.36157e-12
-6.02968e-12
-2.34361e-13
2.53916e-10
3.33439e-12
-1.08873e-11
-2.49566e-13
2.58033e-10
8.3163e-12
-2.10347e-11
6.73042e-14
2.64369e-10
1.59457e-11
-3.4661e-11
1.25046e-12
2.73498e-10
3.75036e-11
-6.38402e-11
3.67789e-12
2.64672e-10
1.20051e-13
-1.45353e-13
-4.3979e-13
2.50467e-10
1.19893e-13
1.19498e-13
-4.45061e-13
-4.44848e-13
2.5065e-10
1.20414e-13
2.44884e-13
-7.48474e-13
-4.5385e-13
2.50837e-10
1.21544e-13
3.68296e-13
-1.07338e-12
-4.66755e-13
2.5105e-10
1.2274e-13
5.1533e-13
-1.42144e-12
-4.84609e-13
2.51268e-10
1.27595e-13
6.55377e-13
-1.81491e-12
-5.11014e-13
2.51543e-10
1.34079e-13
8.4905e-13
-2.25796e-12
-5.45165e-13
2.5182e-10
1.47652e-13
1.02524e-12
-2.81334e-12
-5.92265e-13
2.52232e-10
1.68902e-13
1.34123e-12
-3.47408e-12
-6.52263e-13
2.52616e-10
2.18645e-13
1.60234e-12
-4.4803e-12
-7.44344e-13
2.53404e-10
3.12171e-13
2.39884e-12
-6.08509e-12
-8.34403e-13
2.54212e-10
6.04337e-13
3.47462e-12
-1.08944e-11
-9.49582e-13
2.5786e-10
2.69436e-13
8.56851e-12
-2.11627e-11
-9.61386e-14
2.63459e-10
-1.71787e-12
1.63039e-11
-3.34364e-11
2.89209e-12
2.70462e-10
-7.05548e-12
3.41975e-11
-5.73477e-11
1.05859e-11
2.59374e-10
2.46017e-13
-1.48707e-13
-7.41307e-13
2.50642e-10
2.44607e-13
1.20065e-13
-4.53198e-13
-7.48653e-13
2.50837e-10
2.45241e-13
2.47079e-13
-7.64219e-13
-7.64495e-13
2.51036e-10
2.48343e-13
3.65846e-13
-1.09449e-12
-7.86093e-13
2.51266e-10
2.53447e-13
5.13044e-13
-1.44957e-12
-8.18007e-13
2.51501e-10
2.61666e-13
6.559e-13
-1.85414e-12
-8.60388e-13
2.51797e-10
2.79348e-13
8.50318e-13
-2.31025e-12
-9.17386e-13
2.52098e-10
3.07614e-13
1.03061e-12
-2.88137e-12
-9.97352e-13
2.5254e-10
3.49593e-13
1.34881e-12
-3.57277e-12
-1.09982e-12
2.52974e-10
4.44647e-13
1.63113e-12
-4.61353e-12
-1.27635e-12
2.53814e-10
6.07094e-13
2.43504e-12
-6.26184e-12
-1.5006e-12
2.54716e-10
9.97809e-13
3.6153e-12
-1.08255e-11
-2.09638e-12
2.5832e-10
9.45069e-13
8.28744e-12
-2.02036e-11
-2.02065e-12
2.63643e-10
-3.33766e-12
1.62813e-11
-3.71843e-11
1.93004e-12
2.7569e-10
-1.34498e-11
5.46399e-11
-8.20909e-11
1.93297e-12
3.04516e-10
3.71731e-13
-1.52757e-13
-1.06441e-12
2.50842e-10
3.6822e-13
1.21114e-13
-4.66762e-13
-1.07344e-12
2.51051e-10
3.66295e-13
2.48732e-13
-7.86692e-13
-1.09438e-12
2.51266e-10
3.70785e-13
3.68321e-13
-1.12674e-12
-1.12638e-12
2.51514e-10
3.74227e-13
5.12437e-13
-1.49246e-12
-1.17603e-12
2.51781e-10
3.7918e-13
6.52092e-13
-1.9099e-12
-1.24144e-12
2.5212e-10
3.90694e-13
8.48818e-13
-2.38343e-12
-1.33069e-12
2.52474e-10
4.06932e-13
1.02838e-12
-2.97592e-12
-1.45904e-12
2.52999e-10
4.23488e-13
1.33233e-12
-3.72292e-12
-1.65444e-12
2.53621e-10
4.76343e-13
1.63788e-12
-4.86526e-12
-2.01806e-12
2.54769e-10
5.72613e-13
2.41691e-12
-6.94462e-12
-2.72885e-12
2.56677e-10
1.20969e-12
3.99105e-12
-1.17781e-11
-4.69921e-12
2.61312e-10
2.84342e-12
8.18748e-12
-1.91843e-11
-8.42352e-12
2.67528e-10
6.54515e-12
1.55029e-11
-2.73553e-11
-1.85018e-11
2.76676e-10
3.66779e-13
7.83028e-11
-2.13911e-11
1.77919e-10
5.19986e-13
-1.59614e-13
-1.40935e-12
2.51044e-10
5.14967e-13
1.22165e-13
-4.84622e-13
-1.42141e-12
2.51269e-10
5.12457e-13
2.53258e-13
-8.17564e-13
-1.44967e-12
2.51501e-10
5.11165e-13
3.73281e-13
-1.17495e-12
-1.49251e-12
2.51783e-10
5.21659e-13
5.26053e-13
-1.55942e-12
-1.55998e-12
2.52071e-10
5.36231e-13
6.63876e-13
-2.00265e-12
-1.64709e-12
2.52449e-10
5.58672e-13
8.60809e-13
-2.51408e-12
-1.77453e-12
2.52869e-10
5.91163e-13
1.05057e-12
-3.17318e-12
-1.95656e-12
2.53488e-10
6.50775e-13
1.38936e-12
-4.06896e-12
-2.25425e-12
2.54283e-10
7.81774e-13
1.80069e-12
-5.6195e-12
-2.80821e-12
2.55845e-10
1.18892e-12
2.91638e-12
-8.99147e-12
-4.10183e-12
2.58992e-10
2.8271e-12
5.75583e-12
-1.57293e-11
-7.17799e-12
2.64572e-10
8.30608e-12
1.19972e-11
-2.55367e-11
-1.341e-11
2.70667e-10
2.51404e-11
2.72018e-11
-3.90426e-11
-3.7632e-11
2.76295e-10
1.48589e-11
7.86793e-11
6.45886e-11
6.6132e-13
-1.67027e-13
-1.79899e-12
2.51301e-10
6.54792e-13
1.26617e-13
-5.11082e-13
-1.81505e-12
2.51544e-10
6.55407e-13
2.61163e-13
-8.60273e-13
-1.85474e-12
2.51798e-10
6.5304e-13
3.78908e-13
-1.24013e-12
-1.91072e-12
2.52119e-10
6.59545e-13
5.36421e-13
-1.6478e-12
-2.00397e-12
2.52455e-10
6.68221e-13
6.69478e-13
-2.12176e-12
-2.1224e-12
2.52906e-10
6.88314e-13
8.84929e-13
-2.68054e-12
-2.30351e-12
2.5341e-10
7.11944e-13
1.08705e-12
-3.43967e-12
-2.56304e-12
2.54204e-10
7.63776e-13
1.48837e-12
-4.57695e-12
-2.99705e-12
2.55322e-10
9.20125e-13
2.12126e-12
-6.92972e-12
-3.83574e-12
2.57724e-10
1.62294e-12
3.99413e-12
-1.23659e-11
-5.9279e-12
2.62746e-10
4.51257e-12
8.54415e-12
-2.08357e-11
-1.02172e-11
2.68807e-10
1.23969e-11
1.60317e-11
-2.88841e-11
-1.89817e-11
2.73011e-10
3.44025e-11
3.28757e-11
-7.49504e-11
-3.07331e-11
2.7767e-10
8.55705e-13
-1.77278e-13
-2.23639e-12
2.51552e-10
8.48204e-13
1.32766e-13
-5.45564e-13
-2.25811e-12
2.51822e-10
8.49597e-13
2.78761e-13
-9.17545e-13
-2.31098e-12
2.521e-10
8.48064e-13
3.8984e-13
-1.33023e-12
-2.38456e-12
2.52477e-10
8.61017e-13
5.58419e-13
-1.77452e-12
-2.51562e-12
2.5287e-10
8.84458e-13
6.88935e-13
-2.30285e-12
-2.68194e-12
2.53411e-10
9.42324e-13
9.42694e-13
-2.94351e-12
-2.94478e-12
2.54003e-10
1.02727e-12
1.18727e-12
-3.86107e-12
-3.28749e-12
2.54934e-10
1.22724e-12
1.76834e-12
-5.41326e-12
-3.83486e-12
2.56254e-10
1.73384e-12
2.86492e-12
-9.14631e-12
-5.01628e-12
2.59596e-10
3.61019e-12
6.3802e-12
-1.71386e-11
-7.76637e-12
2.65262e-10
9.6573e-12
1.31737e-11
-2.95665e-11
-1.28242e-11
2.71507e-10
2.3679e-11
2.82797e-11
-2.71825e-11
-2.03133e-11
2.49439e-10
4.05976e-11
5.73238e-11
-7.93316e-12
1.70877e-10
1.02942e-12
-1.90505e-13
-2.78402e-12
2.51941e-10
1.02391e-12
1.45592e-13
-5.93079e-13
-2.81367e-12
2.52237e-10
1.02939e-12
3.06865e-13
-9.97922e-13
-2.88241e-12
2.52544e-10
1.02728e-12
4.05993e-13
-1.45906e-12
-2.97745e-12
2.53003e-10
1.0497e-12
5.90881e-13
-1.95645e-12
-3.17513e-12
2.53491e-10
1.0861e-12
7.11944e-13
-2.56203e-12
-3.44195e-12
2.54206e-10
1.18622e-12
1.02704e-12
-3.28574e-12
-3.86345e-12
2.54936e-10
1.31731e-12
1.318e-12
-4.3548e-12
-4.35821e-12
2.56081e-10
1.57414e-12
2.13654e-12
-6.50917e-12
-5.28119e-12
2.58125e-10
2.33402e-12
3.96751e-12
-1.19496e-11
-7.03316e-12
2.63025e-10
5.28691e-12
9.37953e-12
-2.20848e-11
-1.10051e-11
2.6992e-10
1.20858e-11
1.80426e-11
-3.10623e-11
-1.97136e-11
2.74444e-10
2.75239e-11
3.33165e-11
-5.70944e-11
-2.4335e-11
2.63967e-10
1.34323e-12
-2.05224e-13
-3.43323e-12
2.5229e-10
1.33942e-12
1.66536e-13
-6.53699e-13
-3.47435e-12
2.52622e-10
1.34719e-12
3.48687e-13
-1.10109e-12
-3.57408e-12
2.52979e-10
1.33092e-12
4.22468e-13
-1.65505e-12
-3.72494e-12
2.53626e-10
1.38825e-12
6.50452e-13
-2.25465e-12
-4.07169e-12
2.54288e-10
1.48765e-12
7.63614e-13
-2.99586e-12
-4.57983e-12
2.55324e-10
1.76792e-12
1.22639e-12
-3.8323e-12
-5.4163e-12
2.56256e-10
2.13741e-12
1.57438e-12
-5.2753e-12
-6.51345e-12
2.58122e-10
3.04838e-12
3.04527e-12
-8.20825e-12
-8.2176e-12
2.60702e-10
4.91839e-12
6.05197e-12
-1.54142e-11
-1.07368e-11
2.66783e-10
1.05064e-11
1.32858e-11
-2.7155e-11
-1.38852e-11
2.71442e-10
2.86263e-11
2.75496e-11
-3.70669e-11
-4.04279e-11
2.74226e-10
2.32396e-11
7.4776e-11
1.0655e-10
1.58724e-12
-2.25505e-13
-4.42648e-12
2.53064e-10
1.59948e-12
2.14189e-13
-7.46764e-13
-4.48107e-12
2.53414e-10
1.62859e-12
4.4382e-13
-1.27872e-12
-4.61542e-12
2.53822e-10
1.63567e-12
4.7519e-13
-2.0194e-12
-4.86843e-12
2.54777e-10
1.79886e-12
7.81642e-13
-2.8088e-12
-5.62329e-12
2.55851e-10
2.11953e-12
9.19613e-13
-3.83366e-12
-6.93367e-12
2.57728e-10
2.86273e-12
1.73146e-12
-5.0108e-12
-9.15029e-12
2.59599e-10
3.96505e-12
2.33008e-12
-7.01782e-12
-1.1955e-11
2.63021e-10
6.05305e-12
4.90357e-12
-1.07079e-11
-1.54271e-11
2.6678e-10
9.26675e-12
9.24495e-12
-1.79917e-11
-1.80529e-11
2.71655e-10
1.18746e-11
1.61061e-11
-3.01249e-11
-2.39504e-11
2.80957e-10
3.37749e-11
4.1813e-11
-2.83109e-11
-2.34227e-11
2.40848e-10
2.35874e-12
-2.40129e-13
-6.02982e-12
2.53928e-10
2.39629e-12
3.05913e-13
-8.383e-13
-6.08698e-12
2.54227e-10
2.4327e-12
6.06475e-13
-1.50459e-12
-6.26565e-12
2.54727e-10
2.41545e-12
5.72163e-13
-2.73122e-12
-6.94922e-12
2.56686e-10
2.9159e-12
1.18973e-12
-4.10249e-12
-8.99615e-12
2.58997e-10
3.99373e-12
1.62246e-12
-5.92447e-12
-1.23699e-11
2.62747e-10
6.37856e-12
3.60553e-12
-7.75732e-12
-1.7142e-11
2.65263e-10
9.3785e-12
5.27715e-12
-1.09795e-11
-2.20876e-11
2.69907e-10
1.3295e-11
1.04733e-11
-1.38592e-11
-2.71605e-11
2.71437e-10
1.61683e-11
1.18639e-11
-2.38262e-11
-3.01128e-11
2.80742e-10
4.4388e-11
4.42547e-11
-4.72371e-11
-4.74e-11
2.78501e-10
3.33239e-12
-2.58662e-13
-1.08875e-11
2.58047e-10
3.47063e-12
5.95861e-13
-9.56497e-13
-1.08976e-11
2.57882e-10
3.61264e-12
9.99234e-13
-2.10337e-12
-1.08305e-11
2.58333e-10
3.98988e-12
1.20967e-12
-4.70112e-12
-1.17835e-11
2.6132e-10
5.75562e-12
2.82976e-12
-7.17783e-12
-1.57337e-11
2.64574e-10
8.54283e-12
4.51199e-12
-1.02125e-11
-2.08395e-11
2.68808e-10
1.31704e-11
9.65011e-12
-1.28134e-11
-2.95693e-11
2.7151e-10
1.80382e-11
1.20726e-11
-1.96932e-11
-3.10648e-11
2.74444e-10
2.75482e-11
2.86019e-11
-4.04024e-11
-3.70703e-11
2.74217e-10
4.17897e-11
3.37561e-11
-2.33666e-11
-2.83105e-11
2.4075e-10
8.31571e-12
6.23134e-14
-2.10455e-11
2.64379e-10
8.56553e-12
2.73302e-13
-1.07934e-13
-2.11655e-11
2.63471e-10
8.28441e-12
9.5164e-13
-2.02689e-12
-2.02091e-11
2.6365e-10
8.18456e-12
2.84699e-12
-8.42512e-12
-1.91858e-11
2.6753e-10
1.19979e-11
8.30976e-12
-1.34096e-11
-2.55393e-11
2.70665e-10
1.60346e-11
1.23953e-11
-1.89775e-11
-2.88868e-11
2.73009e-10
2.82828e-11
2.36736e-11
-2.03049e-11
-2.71888e-11
2.49441e-10
3.33216e-11
2.75145e-11
-2.4325e-11
-5.7106e-11
2.63976e-10
7.4783e-11
2.32382e-11
1.06552e-10
1.59484e-11
1.22784e-12
-3.46468e-11
2.73485e-10
1.62993e-11
-1.70285e-12
2.8632e-12
-3.34092e-11
2.70445e-10
1.62978e-11
-3.30203e-12
1.84186e-12
-3.71669e-11
2.75706e-10
1.54963e-11
6.56762e-12
-1.85062e-11
-2.73627e-11
2.76671e-10
2.72002e-11
2.51465e-11
-3.76317e-11
-3.90415e-11
2.76288e-10
3.28762e-11
3.43994e-11
-3.07259e-11
-7.49499e-11
2.77665e-10
5.7333e-11
4.05838e-11
-7.92468e-12
1.7088e-10
3.74282e-11
3.47484e-12
-6.3664e-11
2.64808e-10
3.41613e-11
-6.90271e-12
1.05154e-11
-5.73266e-11
2.59281e-10
5.46268e-11
-1.34207e-11
1.92244e-12
-8.20716e-11
3.04479e-10
7.83024e-11
3.71834e-13
-2.13941e-11
1.77916e-10
7.8672e-11
1.48624e-11
6.45883e-11
-6.66045e-12
-6.66279e-12
1.01444e-09
-2.50825e-10
-2.50273e-10
-2.50272e-10
-2.49727e-10
-1.35541e-11
-6.73526e-12
1.01477e-09
-2.51402e-10
-2.49717e-10
-2.50833e-10
-2.49174e-10
-2.09161e-11
-6.91915e-12
1.01541e-09
-2.51981e-10
-2.49143e-10
-2.51391e-10
-2.48601e-10
-2.90886e-11
-7.16946e-12
1.01659e-09
-2.52636e-10
-2.48566e-10
-2.5202e-10
-2.48022e-10
-3.85303e-11
-7.59662e-12
1.01825e-09
-2.53283e-10
-2.47919e-10
-2.52635e-10
-2.47372e-10
-4.98484e-11
-8.18574e-12
1.02104e-09
-2.54121e-10
-2.47264e-10
-2.53431e-10
-2.46716e-10
-6.42764e-11
-9.02662e-12
1.02483e-09
-2.5489e-10
-2.4643e-10
-2.54157e-10
-2.45889e-10
-8.2967e-11
-1.03999e-11
1.03134e-09
-2.56161e-10
-2.45605e-10
-2.55375e-10
-2.45096e-10
-1.09616e-10
-1.19783e-11
1.04027e-09
-2.57089e-10
-2.44339e-10
-2.56289e-10
-2.43903e-10
-1.45322e-10
-1.49819e-11
1.0552e-09
-2.59505e-10
-2.43274e-10
-2.58676e-10
-2.43015e-10
-2.06637e-10
-1.60391e-11
1.08034e-09
-2.60042e-10
-2.4165e-10
-2.5944e-10
-2.41791e-10
-3.15697e-10
-1.68113e-11
1.15413e-09
-2.72658e-10
-2.40797e-10
-2.72801e-10
-2.4188e-10
-5.25592e-10
-2.46679e-12
1.27937e-09
-2.98213e-10
-2.33034e-10
-2.99872e-10
-2.35693e-10
2.34044e-11
9.3416e-12
1.01511e-09
-3.35252e-10
-2.24479e-10
-3.37161e-10
-2.25478e-10
2.34569e-11
-2.36446e-10
-2.37752e-10
-2.23061e-10
-2.34438e-11
4.65216e-12
2.65397e-10
-6.73797e-12
-1.35567e-11
1.01477e-09
-2.51402e-10
-2.50834e-10
-2.49716e-10
-2.49173e-10
-1.37144e-11
-1.37092e-11
1.01511e-09
-2.52e-10
-2.50272e-10
-2.50271e-10
-2.48622e-10
-2.1152e-11
-1.41052e-11
1.01578e-09
-2.52607e-10
-2.49697e-10
-2.50812e-10
-2.48043e-10
-2.94218e-11
-1.46167e-11
1.01701e-09
-2.533e-10
-2.49123e-10
-2.51417e-10
-2.47452e-10
-3.8977e-11
-1.55213e-11
1.01875e-09
-2.53997e-10
-2.48489e-10
-2.51998e-10
-2.46788e-10
-5.04747e-11
-1.6718e-11
1.02165e-09
-2.54897e-10
-2.4785e-10
-2.52752e-10
-2.46123e-10
-6.51379e-11
-1.8517e-11
1.02567e-09
-2.55746e-10
-2.47051e-10
-2.53427e-10
-2.45296e-10
-8.42336e-11
-2.13636e-11
1.03252e-09
-2.57106e-10
-2.46268e-10
-2.54555e-10
-2.44528e-10
-1.1133e-10
-2.48851e-11
1.04212e-09
-2.58169e-10
-2.45097e-10
-2.55422e-10
-2.43422e-10
-1.47238e-10
-3.15436e-11
1.05761e-09
-2.60692e-10
-2.44125e-10
-2.57566e-10
-2.42758e-10
-2.08632e-10
-3.47258e-11
1.08458e-09
-2.61142e-10
-2.4288e-10
-2.58144e-10
-2.42332e-10
-3.15914e-10
-4.29501e-11
1.164e-09
-2.72188e-10
-2.42869e-10
-2.69763e-10
-2.45764e-10
-5.24936e-10
-1.91157e-11
1.30192e-09
-2.9536e-10
-2.35482e-10
-2.99228e-10
-2.46176e-10
3.69789e-11
-1.47964e-11
1.02061e-09
-3.24301e-10
-2.17582e-10
-3.38706e-10
-2.47592e-10
3.12957e-11
-2.2943e-10
-2.32074e-10
-2.15048e-10
-8.78388e-12
-1.81504e-11
2.67327e-11
2.52229e-10
-6.92022e-12
-2.09204e-11
1.01541e-09
-2.51981e-10
-2.51391e-10
-2.49143e-10
-2.486e-10
-1.41087e-11
-2.11473e-11
1.01578e-09
-2.52607e-10
-2.50811e-10
-2.49696e-10
-2.48042e-10
-2.17864e-11
-2.17847e-11
1.01651e-09
-2.53246e-10
-2.50229e-10
-2.50228e-10
-2.4745e-10
-3.04151e-11
-2.25488e-11
1.01784e-09
-2.53983e-10
-2.49647e-10
-2.50814e-10
-2.46842e-10
-4.04538e-11
-2.39831e-11
1.01973e-09
-2.54725e-10
-2.48999e-10
-2.51362e-10
-2.46141e-10
-5.27582e-11
-2.57276e-11
1.02286e-09
-2.55683e-10
-2.48358e-10
-2.52066e-10
-2.45444e-10
-6.8628e-11
-2.85583e-11
1.02732e-09
-2.56596e-10
-2.47554e-10
-2.52674e-10
-2.44572e-10
-8.9779e-11
-3.28448e-11
1.03484e-09
-2.58011e-10
-2.46766e-10
-2.53676e-10
-2.43753e-10
-1.19447e-10
-3.88895e-11
1.04545e-09
-2.59149e-10
-2.45614e-10
-2.5443e-10
-2.42588e-10
-1.58582e-10
-4.99995e-11
1.06201e-09
-2.61662e-10
-2.44669e-10
-2.56129e-10
-2.41964e-10
-2.22455e-10
-6.06561e-11
1.09498e-09
-2.61915e-10
-2.44165e-10
-2.56737e-10
-2.42361e-10
-3.37171e-10
-9.25989e-11
1.19931e-09
-2.71918e-10
-2.4862e-10
-2.65131e-10
-2.49278e-10
-5.34583e-10
-1.12678e-10
1.38934e-09
-2.94281e-10
-2.51007e-10
-2.93981e-10
-2.59101e-10
4.37336e-11
-1.91835e-10
1.18991e-09
-3.35775e-10
-2.64215e-10
-3.44165e-10
-2.96369e-10
-1.80378e-11
-1.80612e-10
-1.52018e-10
-2.32449e-10
-3.95296e-11
-6.2654e-12
6.3333e-11
2.58643e-10
-7.17327e-12
-2.90944e-11
1.01659e-09
-2.52636e-10
-2.52019e-10
-2.48566e-10
-2.4802e-10
-1.46235e-11
-2.94136e-11
1.01701e-09
-2.53301e-10
-2.51419e-10
-2.49122e-10
-2.47451e-10
-2.25546e-11
-3.04093e-11
1.01784e-09
-2.53984e-10
-2.5082e-10
-2.49644e-10
-2.46841e-10
-3.1476e-11
-3.14639e-11
1.01932e-09
-2.54789e-10
-2.50238e-10
-2.50234e-10
-2.46213e-10
-4.18155e-11
-3.36618e-11
1.02145e-09
-2.55608e-10
-2.49595e-10
-2.50758e-10
-2.45481e-10
-5.45945e-11
-3.60158e-11
1.0249e-09
-2.56665e-10
-2.48977e-10
-2.51431e-10
-2.44754e-10
-7.09881e-11
-4.02772e-11
1.02998e-09
-2.57756e-10
-2.48242e-10
-2.52017e-10
-2.43852e-10
-9.30508e-11
-4.60686e-11
1.03816e-09
-2.59372e-10
-2.47572e-10
-2.52947e-10
-2.42985e-10
-1.22623e-10
-5.56545e-11
1.0496e-09
-2.61045e-10
-2.46691e-10
-2.53719e-10
-2.41809e-10
-1.62849e-10
-7.12339e-11
1.06806e-09
-2.63926e-10
-2.46273e-10
-2.55048e-10
-2.41361e-10
-2.30246e-10
-9.57795e-11
1.1176e-09
-2.66826e-10
-2.48175e-10
-2.57423e-10
-2.42657e-10
-3.69424e-10
-1.4954e-10
1.25466e-09
-2.82948e-10
-2.59952e-10
-2.68097e-10
-2.47545e-10
-4.96514e-10
-2.14873e-10
1.37725e-09
-3.15588e-10
-2.78994e-10
-2.95819e-10
-2.57564e-10
1.03759e-11
-1.5522e-11
9.59826e-10
-3.46007e-10
-3.01767e-10
-2.96516e-10
-2.32265e-10
5.19763e-11
-1.24705e-10
-1.20474e-10
7.66401e-11
-1.88964e-10
-1.60944e-10
-1.34479e-10
-2.83214e-12
-2.24329e-11
1.70119e-10
-7.60078e-12
-3.85384e-11
1.01824e-09
-2.53284e-10
-2.52633e-10
-2.47919e-10
-2.47368e-10
-1.55272e-11
-3.89656e-11
1.01875e-09
-2.53999e-10
-2.52e-10
-2.48488e-10
-2.46786e-10
-2.39872e-11
-4.04486e-11
1.01973e-09
-2.54727e-10
-2.51364e-10
-2.48996e-10
-2.46138e-10
-3.36728e-11
-4.18054e-11
1.02145e-09
-2.55607e-10
-2.50757e-10
-2.49589e-10
-2.45477e-10
-4.49915e-11
-4.49808e-11
1.02398e-09
-2.56507e-10
-2.50079e-10
-2.50078e-10
-2.44674e-10
-5.94592e-11
-4.78087e-11
1.028e-09
-2.57682e-10
-2.49449e-10
-2.50716e-10
-2.43884e-10
-7.86247e-11
-5.36432e-11
1.03413e-09
-2.5888e-10
-2.48644e-10
-2.51219e-10
-2.42853e-10
-1.05544e-10
-6.02766e-11
1.04356e-09
-2.60704e-10
-2.47875e-10
-2.52066e-10
-2.41785e-10
-1.43155e-10
-7.26402e-11
1.0571e-09
-2.62783e-10
-2.46794e-10
-2.52613e-10
-2.40315e-10
-2.02641e-10
-9.12263e-11
1.08607e-09
-2.65942e-10
-2.46691e-10
-2.54091e-10
-2.39869e-10
-3.21005e-10
-1.29161e-10
1.17467e-09
-2.73648e-10
-2.50033e-10
-2.58956e-10
-2.40284e-10
-5.02925e-10
-2.06834e-10
1.31911e-09
-3.00536e-10
-2.60876e-10
-2.79316e-10
-2.3917e-10
-5.20117e-11
-2.92181e-10
1.11244e-09
-3.30481e-10
-2.62799e-10
-2.99694e-10
-2.18411e-10
1.8195e-11
-2.06851e-10
-1.86004e-10
-2.61089e-10
-5.6446e-11
-7.97333e-11
3.29735e-10
-3.53252e-11
1.1396e-11
-1.2425e-11
3.63541e-11
-8.19089e-12
-4.98602e-11
1.02104e-09
-2.54123e-10
-2.53429e-10
-2.47265e-10
-2.4671e-10
-1.6725e-11
-5.04581e-11
1.02165e-09
-2.54901e-10
-2.52754e-10
-2.47851e-10
-2.46119e-10
-2.57325e-11
-5.27521e-11
1.02286e-09
-2.55687e-10
-2.52068e-10
-2.48355e-10
-2.45439e-10
-3.60205e-11
-5.45798e-11
1.0249e-09
-2.5667e-10
-2.51436e-10
-2.48973e-10
-2.4475e-10
-4.78137e-11
-5.94511e-11
1.02799e-09
-2.57679e-10
-2.50723e-10
-2.4944e-10
-2.43882e-10
-6.29503e-11
-6.29498e-11
1.03261e-09
-2.59052e-10
-2.50113e-10
-2.50103e-10
-2.43071e-10
-8.26524e-11
-7.12689e-11
1.03973e-09
-2.60531e-10
-2.49321e-10
-2.50589e-10
-2.41962e-10
-1.10144e-10
-7.82414e-11
1.04933e-09
-2.62935e-10
-2.48581e-10
-2.51474e-10
-2.40883e-10
-1.49073e-10
-9.36913e-11
1.06522e-09
-2.65615e-10
-2.47642e-10
-2.52237e-10
-2.3975e-10
-2.21319e-10
-1.14817e-10
1.11078e-09
-2.70539e-10
-2.48531e-10
-2.55847e-10
-2.40027e-10
-3.79677e-10
-1.60494e-10
1.24289e-09
-2.8859e-10
-2.54589e-10
-2.7029e-10
-2.39735e-10
-5.50735e-10
-2.37921e-10
1.33773e-09
-3.2574e-10
-2.64932e-10
-3.04099e-10
-2.40815e-10
6.58731e-12
-1.7126e-11
9.13697e-10
-3.46442e-10
-2.6996e-10
-2.95304e-10
-2.11558e-10
7.76577e-11
-2.16659e-10
-1.84034e-10
8.88161e-11
-1.9596e-10
-1.92631e-10
-2.3606e-10
3.59151e-11
-3.36928e-11
-1.80464e-11
2.58471e-10
-9.03653e-12
-6.42924e-11
1.02483e-09
-2.54895e-10
-2.54153e-10
-2.46432e-10
-2.4588e-10
-1.85292e-11
-6.51128e-11
1.02566e-09
-2.55753e-10
-2.53428e-10
-2.47052e-10
-2.45289e-10
-2.85676e-11
-6.86192e-11
1.02731e-09
-2.56602e-10
-2.52676e-10
-2.4755e-10
-2.44564e-10
-4.02851e-11
-7.09674e-11
1.02997e-09
-2.57761e-10
-2.52023e-10
-2.48235e-10
-2.43846e-10
-5.36467e-11
-7.86136e-11
1.03412e-09
-2.58884e-10
-2.51226e-10
-2.48634e-10
-2.42848e-10
-7.1268e-11
-8.2653e-11
1.03973e-09
-2.60532e-10
-2.50599e-10
-2.49307e-10
-2.41959e-10
-9.44703e-11
-9.44714e-11
1.04858e-09
-2.623e-10
-2.49624e-10
-2.49611e-10
-2.40642e-10
-1.29065e-10
-9.96518e-11
1.05989e-09
-2.65074e-10
-2.4872e-10
-2.50419e-10
-2.39669e-10
-1.84955e-10
-1.19415e-10
1.08744e-09
-2.67381e-10
-2.47843e-10
-2.51544e-10
-2.39057e-10
-3.07104e-10
-1.39537e-10
1.17072e-09
-2.7598e-10
-2.49634e-10
-2.58278e-10
-2.39958e-10
-4.95481e-10
-2.05752e-10
1.3128e-09
-3.02917e-10
-2.53127e-10
-2.85916e-10
-2.3721e-10
-4.57191e-11
-2.67991e-10
1.09765e-09
-3.35871e-10
-2.40977e-10
-3.1273e-10
-2.16288e-10
2.17104e-11
-2.23601e-10
-2.09588e-10
-2.31171e-10
-9.04441e-11
-6.54545e-11
3.24223e-10
-1.20026e-10
-1.37377e-11
1.15906e-11
2.26382e-12
1.19909e-10
-1.04151e-11
-8.29898e-11
1.03134e-09
-2.56169e-10
-2.55367e-10
-2.45608e-10
-2.45083e-10
-2.13798e-11
-8.4195e-11
1.03251e-09
-2.57117e-10
-2.54556e-10
-2.4627e-10
-2.44519e-10
-3.2852e-11
-8.97676e-11
1.03482e-09
-2.5802e-10
-2.53677e-10
-2.46761e-10
-2.43741e-10
-4.6066e-11
-9.3023e-11
1.03815e-09
-2.59382e-10
-2.52955e-10
-2.47564e-10
-2.42977e-10
-6.02542e-11
-1.05533e-10
1.04354e-09
-2.60713e-10
-2.52076e-10
-2.47864e-10
-2.41777e-10
-7.81961e-11
-1.10148e-10
1.04931e-09
-2.62943e-10
-2.51488e-10
-2.48565e-10
-2.40876e-10
-9.95783e-11
-1.2907e-10
1.05987e-09
-2.65082e-10
-2.50438e-10
-2.48705e-10
-2.39667e-10
-1.32557e-10
-1.32639e-10
1.07299e-09
-2.67637e-10
-2.49951e-10
-2.49931e-10
-2.39501e-10
-1.93896e-10
-1.61576e-10
1.11852e-09
-2.71706e-10
-2.50393e-10
-2.52983e-10
-2.39937e-10
-3.50836e-10
-1.64766e-10
1.23413e-09
-2.88477e-10
-2.55025e-10
-2.67025e-10
-2.41432e-10
-5.41278e-10
-2.14517e-10
1.33971e-09
-3.26083e-10
-2.60062e-10
-3.07972e-10
-2.46391e-10
7.7325e-12
-1.49133e-11
9.60859e-10
-3.51578e-10
-2.50278e-10
-3.24361e-10
-2.33856e-10
7.58741e-11
-2.30512e-10
-1.95393e-10
9.01882e-11
-1.80437e-10
-1.62594e-10
-2.26858e-10
2.48566e-11
-4.28431e-11
-1.20563e-11
2.64633e-10
-1.2013e-11
-1.09644e-10
1.04026e-09
-2.57101e-10
-2.56276e-10
-2.44343e-10
-2.43885e-10
-2.49198e-11
-1.11269e-10
1.0421e-09
-2.58185e-10
-2.55422e-10
-2.45099e-10
-2.4341e-10
-3.8913e-11
-1.19426e-10
1.04542e-09
-2.59163e-10
-2.54431e-10
-2.45607e-10
-2.4257e-10
-5.56651e-11
-1.2258e-10
1.04956e-09
-2.61059e-10
-2.53726e-10
-2.4668e-10
-2.41795e-10
-7.26242e-11
-1.43137e-10
1.05706e-09
-2.628e-10
-2.52622e-10
-2.46778e-10
-2.403e-10
-9.36472e-11
-1.49073e-10
1.06517e-09
-2.65624e-10
-2.52249e-10
-2.4762e-10
-2.39736e-10
-1.19319e-10
-1.84961e-10
1.08738e-09
-2.67389e-10
-2.5156e-10
-2.47822e-10
-2.39045e-10
-1.61451e-10
-1.93944e-10
1.1184e-09
-2.71695e-10
-2.52992e-10
-2.5036e-10
-2.39918e-10
-2.47733e-10
-2.47521e-10
1.20195e-09
-2.79737e-10
-2.54612e-10
-2.5461e-10
-2.40769e-10
-4.17148e-10
-2.10368e-10
1.29129e-09
-3.03968e-10
-2.57312e-10
-2.75774e-10
-2.39223e-10
-3.39797e-11
-2.08548e-10
1.06939e-09
-3.27916e-10
-2.40822e-10
-3.07301e-10
-2.23576e-10
3.19867e-11
-2.06571e-10
-1.84325e-10
-2.59877e-10
-5.76664e-11
-7.50413e-11
3.43691e-10
-6.37331e-11
-5.10007e-12
-8.83728e-13
6.97169e-11
-1.50423e-11
-1.4536e-10
1.05517e-09
-2.59524e-10
-2.58656e-10
-2.43279e-10
-2.4299e-10
-3.16006e-11
-1.47134e-10
1.05758e-09
-2.6072e-10
-2.57567e-10
-2.44125e-10
-2.42742e-10
-5.00277e-11
-1.5855e-10
1.06195e-09
-2.61684e-10
-2.56127e-10
-2.44654e-10
-2.41939e-10
-7.12293e-11
-1.62783e-10
1.06801e-09
-2.6395e-10
-2.55058e-10
-2.46258e-10
-2.41343e-10
-9.11707e-11
-2.02618e-10
1.08601e-09
-2.65964e-10
-2.54102e-10
-2.46672e-10
-2.3985e-10
-1.14695e-10
-2.21319e-10
1.1107e-09
-2.70554e-10
-2.55864e-10
-2.48508e-10
-2.4001e-10
-1.39247e-10
-3.07153e-10
1.17059e-09
-2.75996e-10
-2.583e-10
-2.49612e-10
-2.3994e-10
-1.64124e-10
-3.5102e-10
1.23386e-09
-2.88467e-10
-2.67058e-10
-2.5498e-10
-2.414e-10
-2.09103e-10
-4.16987e-10
1.29053e-09
-3.03927e-10
-2.75776e-10
-2.57279e-10
-2.39099e-10
-3.06363e-10
-3.06589e-10
1.33102e-09
-3.28279e-10
-2.72722e-10
-2.72515e-10
-2.6402e-10
6.74713e-11
1.21934e-11
9.29366e-10
-3.4039e-10
-2.48359e-10
-3.22344e-10
-2.29422e-10
5.88173e-11
-1.73513e-10
-1.29419e-10
7.62608e-11
-1.12561e-10
-1.03014e-10
-1.91637e-10
2.63215e-11
2.92495e-12
-1.81319e-11
2.47993e-10
-1.61604e-11
-2.06667e-10
1.0803e-09
-2.6008e-10
-2.59409e-10
-2.41656e-10
-2.41755e-10
-3.48281e-11
-2.08451e-10
1.08449e-09
-2.61188e-10
-2.58144e-10
-2.42874e-10
-2.42304e-10
-6.07258e-11
-2.22382e-10
1.09488e-09
-2.6195e-10
-2.56739e-10
-2.4414e-10
-2.42321e-10
-9.58083e-11
-2.3014e-10
1.11751e-09
-2.6686e-10
-2.57433e-10
-2.48149e-10
-2.42631e-10
-1.2914e-10
-3.20957e-10
1.17457e-09
-2.7367e-10
-2.58965e-10
-2.50008e-10
-2.40262e-10
-1.6044e-10
-3.7963e-10
1.24279e-09
-2.88597e-10
-2.70308e-10
-2.54562e-10
-2.39712e-10
-2.05578e-10
-4.95505e-10
1.31262e-09
-3.02921e-10
-2.8592e-10
-2.53104e-10
-2.37187e-10
-2.14437e-10
-5.4134e-10
1.33944e-09
-3.26036e-10
-3.07911e-10
-2.59986e-10
-2.46325e-10
-2.08016e-10
-3.40419e-11
1.06913e-09
-3.2789e-10
-3.07112e-10
-2.40751e-10
-2.2346e-10
3.18575e-11
-2.06636e-10
-1.84503e-10
1.25751e-11
6.74026e-11
9.29428e-10
-3.40242e-10
-3.22799e-10
-2.48612e-10
-2.29428e-10
7.65958e-11
-1.12711e-10
-1.02905e-10
5.87247e-11
-1.73363e-10
-1.29274e-10
-2.31587e-10
-4.32458e-11
-4.35804e-11
3.43181e-10
-1.70153e-11
-3.1572e-10
1.15402e-09
-2.72714e-10
-2.72741e-10
-2.40795e-10
-2.41825e-10
-4.3139e-11
-3.15511e-10
1.1638e-09
-2.72261e-10
-2.69783e-10
-2.42857e-10
-2.45719e-10
-9.26964e-11
-3.37024e-10
1.19911e-09
-2.71973e-10
-2.65146e-10
-2.48573e-10
-2.49221e-10
-1.49533e-10
-3.69283e-10
1.25453e-09
-2.82979e-10
-2.68129e-10
-2.59915e-10
-2.47525e-10
-2.06739e-10
-5.02857e-10
1.319e-09
-3.00545e-10
-2.79345e-10
-2.60849e-10
-2.39155e-10
-2.37708e-10
-5.50699e-10
1.33761e-09
-3.25743e-10
-3.04106e-10
-2.64914e-10
-2.40808e-10
-2.67615e-10
-4.57256e-11
1.09748e-09
-3.3587e-10
-3.1272e-10
-2.40973e-10
-2.16284e-10
2.17001e-11
-2.23612e-10
-2.09596e-10
-1.4844e-11
7.73962e-12
9.60607e-10
-3.51552e-10
-3.24321e-10
-2.50267e-10
-2.33825e-10
9.02607e-11
-1.80272e-10
-1.62471e-10
7.58789e-11
-2.30507e-10
-1.95381e-10
-2.59817e-10
-7.49239e-11
-5.77239e-11
3.43578e-10
-1.91427e-10
2.6259e-11
-1.80492e-11
2.9409e-12
2.47678e-10
-2.78713e-12
-5.25573e-10
1.27921e-09
-2.98274e-10
-2.99819e-10
-2.33036e-10
-2.35636e-10
-1.94217e-11
-5.24193e-10
1.3015e-09
-2.954e-10
-2.99211e-10
-2.35458e-10
-2.46112e-10
-1.1288e-10
-5.34237e-10
1.38898e-09
-2.94311e-10
-2.94001e-10
-2.50956e-10
-2.59046e-10
-2.14938e-10
-4.96353e-10
1.37705e-09
-3.15587e-10
-2.95853e-10
-2.78936e-10
-2.57547e-10
-2.92165e-10
-5.19977e-11
1.11234e-09
-3.30469e-10
-2.99694e-10
-2.62767e-10
-2.18402e-10
1.82027e-11
-2.06845e-10
-1.86003e-10
-1.7119e-11
6.59744e-12
9.13641e-10
-3.46431e-10
-2.95308e-10
-2.69929e-10
-2.11552e-10
8.88276e-11
-1.95947e-10
-1.92611e-10
7.76639e-11
-2.1666e-10
-1.84035e-10
-2.31168e-10
-6.54419e-11
-9.04549e-11
3.24219e-10
-2.26854e-10
2.48447e-11
-1.20334e-11
-4.28478e-11
2.64629e-10
-6.37268e-11
-8.677e-13
-5.12246e-12
6.9717e-11
8.58709e-12
2.34193e-11
1.01491e-09
-3.35267e-10
-3.3706e-10
-2.24508e-10
-2.25343e-10
2.34982e-11
-2.36543e-10
-2.37566e-10
-1.50463e-11
3.7048e-11
1.02005e-09
-3.24295e-10
-3.38665e-10
-2.17534e-10
-2.475e-10
3.13849e-11
-2.29222e-10
-2.31824e-10
-1.92047e-10
4.38088e-11
1.18954e-09
-3.35709e-10
-3.44111e-10
-2.64121e-10
-2.96282e-10
-1.7975e-11
-1.80454e-10
-1.51932e-10
-1.55156e-11
1.03916e-11
9.59684e-10
-3.45989e-10
-2.96569e-10
-3.01688e-10
-2.32264e-10
7.66579e-11
-1.88968e-10
-1.60937e-10
5.19761e-11
-1.24699e-10
-1.20479e-10
-2.61072e-10
-7.97274e-11
-5.64446e-11
3.29731e-10
-2.36052e-10
3.59077e-11
-1.80389e-11
-3.36903e-11
2.5847e-10
-1.20024e-10
1.15932e-11
-1.37449e-11
2.2671e-12
1.19909e-10
-2.23165e-10
4.45619e-12
-2.35028e-11
2.65487e-10
-2.14903e-10
-8.60688e-12
2.65144e-11
-1.80473e-11
2.52092e-10
-2.32359e-10
-3.94063e-11
6.32605e-11
-6.22142e-12
2.58534e-10
-1.34472e-10
-2.82412e-12
-2.24319e-11
1.70119e-10
-3.5325e-11
-1.24289e-11
1.13982e-11
3.63556e-11
-8.75151e-12
-8.75432e-12
1.03196e-09
-1.76965e-11
-8.812e-12
1.03254e-09
-2.70355e-11
-8.98485e-12
1.03375e-09
-3.69717e-11
-9.20644e-12
1.03574e-09
-4.78471e-11
-9.57748e-12
1.0387e-09
-5.97395e-11
-1.00741e-11
1.04301e-09
-7.34414e-11
-1.07126e-11
1.04925e-09
-8.83017e-11
-1.18349e-11
1.05805e-09
-1.06728e-10
-1.28289e-11
1.07153e-09
-1.23475e-10
-1.56513e-11
1.08759e-09
-1.42296e-10
-1.66085e-11
1.11578e-09
-1.35207e-10
-2.22338e-11
1.16932e-09
-1.39687e-10
-9.30632e-12
1.29325e-09
6.12248e-11
-9.62154e-12
9.49896e-10
6.13601e-11
-9.34048e-11
-9.38507e-11
-7.49312e-11
1.63755e-11
2.68378e-13
1.19621e-10
-8.81523e-12
-1.76999e-11
1.03254e-09
-1.78305e-11
-1.78254e-11
1.03314e-09
-2.72333e-11
-1.81904e-11
1.03439e-09
-3.72421e-11
-1.86301e-11
1.03644e-09
-4.81751e-11
-1.93956e-11
1.0395e-09
-6.01649e-11
-2.03667e-11
1.04394e-09
-7.39399e-11
-2.16823e-11
1.05042e-09
-8.90414e-11
-2.3877e-11
1.05965e-09
-1.07691e-10
-2.59611e-11
1.0739e-09
-1.25088e-10
-3.1548e-11
1.0909e-09
-1.43486e-10
-3.34383e-11
1.1198e-09
-1.34878e-10
-4.496e-11
1.17812e-09
-1.33616e-10
-1.26692e-11
1.30402e-09
6.46754e-11
-1.76213e-11
9.49483e-10
6.49439e-11
-9.20583e-11
-9.20479e-11
-6.84789e-11
2.42513e-13
1.75507e-11
2.49395e-12
1.12867e-10
-8.98561e-12
-2.704e-11
1.03375e-09
-1.81932e-11
-2.72259e-11
1.03439e-09
-2.78057e-11
-2.78012e-11
1.03573e-09
-3.81057e-11
-2.84119e-11
1.03792e-09
-4.94122e-11
-2.95733e-11
1.04121e-09
-6.203e-11
-3.0883e-11
1.046e-09
-7.6717e-11
-3.28003e-11
1.05312e-09
-9.35882e-11
-3.56929e-11
1.06353e-09
-1.14779e-10
-3.86702e-11
1.07935e-09
-1.37022e-10
-4.57442e-11
1.09845e-09
-1.59787e-10
-4.82023e-11
1.13251e-09
-1.63814e-10
-5.9807e-11
1.21819e-09
-1.56642e-10
-1.10832e-11
1.38059e-09
5.72782e-11
-4.41903e-11
1.09567e-09
3.90402e-11
-8.00081e-11
-5.21369e-11
-8.23785e-11
-6.15514e-12
1.21248e-11
1.10096e-12
1.32586e-10
-9.20861e-12
-3.69774e-11
1.03574e-09
-1.86358e-11
-3.72305e-11
1.03644e-09
-2.8421e-11
-3.80972e-11