/*--------------------------------*- C++ -*----------------------------------*\
| =========                 |                                                 |
| \\      /  F ield         | OpenFOAM: The Open Source CFD Toolbox           |
|  \\    /   O peration     | Version:  2.1.1                                 |
|   \\  /    A nd           | Web:      www.OpenFOAM.org                      |
|    \\/     M anipulation  |                                                 |
\*---------------------------------------------------------------------------*/
FoamFile
{
    version     2.0;
    format      ascii;
    class       volScalarField;
    location    "0.18";
    object      p;
}
// * * * * * * * * * * * * * * * * * * * * * * * * * * * * * * * * * * * * * //

dimensions      [0 2 -2 0 0 0 0];

internalField   nonuniform List<scalar> 
163952
(
0.0416717
0.0410954
0.0363596
0.0311648
0.029968
0.0273566
0.0267664
0.0264427
0.0366799
0.0323378
0.0272962
0.0248064
0.0235627
0.0227836
0.0224692
0.022328
0.0337111
0.0279742
0.0244704
0.0228307
0.021918
0.02138
0.0210413
0.0208609
0.0207753
0.033581
0.0260821
0.0232476
0.021901
0.0211455
0.0206667
0.020347
0.0201352
0.020009
0.0199454
0.0335823
0.0255402
0.0227235
0.0214451
0.0207302
0.0202663
0.0199422
0.0197112
0.0195516
0.019451
0.0193985
0.0337116
0.0260823
0.0227235
0.0213017
0.020539
0.0200501
0.0197045
0.0194504
0.0192637
0.0191315
0.0190459
0.0190004
0.0366799
0.0279745
0.0232478
0.0214453
0.0205391
0.0199806
0.0195921
0.0193053
0.0190895
0.0189288
0.0188137
0.0187382
0.0186976
0.0323382
0.0244708
0.0219013
0.0207304
0.0200503
0.0195922
0.0192585
0.0190066
0.0188151
0.0186717
0.0185684
0.0185001
0.0184632
0.0363602
0.0272967
0.0228311
0.0211459
0.0202666
0.0197047
0.0193055
0.0190067
0.0187784
0.018604
0.0184728
0.0183779
0.0183149
0.0182808
0.0311655
0.024807
0.0219185
0.0206671
0.0199426
0.0194508
0.0190898
0.0188153
0.018604
0.0184419
0.0183195
0.0182308
0.0181717
0.0181396
0.0299687
0.0235633
0.0213806
0.0203475
0.0197117
0.0192641
0.0189291
0.0186719
0.0184729
0.0183196
0.0182035
0.0181193
0.018063
0.0180324
0.0273573
0.0227843
0.0210419
0.0201358
0.0195522
0.019132
0.0188141
0.0185687
0.0183782
0.0182309
0.0181193
0.0180381
0.0179838
0.0179543
0.0416725
0.0267672
0.02247
0.0208616
0.0200096
0.0194516
0.0190464
0.0187386
0.0185005
0.0183152
0.0181719
0.0180631
0.0179839
0.0179309
0.017902
0.0410962
0.0264435
0.0223288
0.0207761
0.0199461
0.0193992
0.019001
0.0186981
0.0184637
0.0182812
0.0181399
0.0180326
0.0179544
0.0179021
0.0178736
0.0234977
0.0235545
0.0224927
0.0237019
0.0224329
0.0221187
0.0220738
0.0220529
0.0225976
0.0244115
0.0220986
0.0217863
0.0215256
0.0213348
0.0212599
0.0212081
0.0233758
0.0221507
0.0217326
0.0213206
0.0209797
0.020701
0.0205161
0.02042
0.0203705
0.0221204
0.02183
0.0213926
0.0209512
0.0205584
0.020247
0.0200107
0.0198509
0.0197587
0.0197144
0.0221211
0.0217008
0.0212085
0.0207045
0.0202774
0.0199348
0.0196752
0.0194838
0.0193519
0.0192716
0.0192329
0.0233762
0.0218303
0.0212086
0.0206246
0.0201355
0.0197574
0.0194681
0.0192501
0.0190892
0.0189768
0.0189064
0.0188723
0.0225981
0.0221511
0.0213929
0.0207047
0.0201356
0.0196989
0.0193693
0.0191188
0.0189293
0.0187888
0.0186897
0.0186267
0.0185961
0.024412
0.021733
0.0209515
0.0202777
0.0197576
0.0193694
0.0190764
0.018853
0.0186833
0.0185569
0.0184672
0.0184097
0.0183817
0.0224933
0.0220992
0.0213211
0.0205588
0.0199351
0.0194684
0.0191189
0.0188531
0.0186493
0.0184936
0.0183771
0.0182941
0.0182407
0.0182146
0.0237025
0.0217869
0.0209802
0.0202475
0.0196756
0.0192504
0.0189296
0.0186835
0.0184937
0.018348
0.0182387
0.0181605
0.0181101
0.0180854
0.0224336
0.0215263
0.0207016
0.0200113
0.0194842
0.0190896
0.0187891
0.0185572
0.0183773
0.0182388
0.0181345
0.0180598
0.0180115
0.0179878
0.0221195
0.0213355
0.0205168
0.0198516
0.0193524
0.0189773
0.0186901
0.0184675
0.0182943
0.0181607
0.0180599
0.0179875
0.0179408
0.0179178
0.0234985
0.0220746
0.0212607
0.0204207
0.0197594
0.0192722
0.0189069
0.0186272
0.0184101
0.018241
0.0181103
0.0180117
0.0179408
0.017895
0.0178725
0.0235553
0.0220538
0.021209
0.0203712
0.0197151
0.0192336
0.0188729
0.0185966
0.0183821
0.0182149
0.0180856
0.017988
0.0179179
0.0178725
0.0178502
0.0198541
0.0198683
0.0199335
0.0203153
0.0205388
0.0204231
0.0203155
0.0202749
0.0199404
0.0207844
0.0203341
0.020256
0.0201611
0.0201222
0.0200927
0.0200673
0.0201509
0.0203481
0.0202476
0.020127
0.0199901
0.0198455
0.0197541
0.019699
0.0196685
0.0204982
0.0202812
0.020156
0.019976
0.0197839
0.0196179
0.019478
0.0193778
0.0193155
0.0192841
0.0204991
0.0202361
0.020083
0.0198613
0.0196362
0.0194335
0.0192672
0.0191358
0.0190411
0.018981
0.0189514
0.0201512
0.0202816
0.0200831
0.0198235
0.0195575
0.0193237
0.0191271
0.0189687
0.0188459
0.0187574
0.0187006
0.0186728
0.0199409
0.0203485
0.0201564
0.0198615
0.0195576
0.0192864
0.0190579
0.0188704
0.0187212
0.0186067
0.018524
0.0184707
0.0184445
0.0207848
0.0202481
0.0199764
0.0196365
0.0193239
0.019058
0.0188381
0.0186602
0.0185196
0.0184122
0.0183347
0.0182845
0.0182598
0.0199341
0.0203347
0.0201275
0.0197843
0.0194338
0.0191274
0.0188706
0.0186603
0.0184912
0.018358
0.0182564
0.018183
0.0181354
0.0181119
0.020316
0.0202566
0.0199907
0.0196184
0.0192676
0.0189691
0.0187215
0.0185198
0.0183581
0.0182309
0.0181338
0.0180636
0.018018
0.0179956
0.0205396
0.0201618
0.0198462
0.0194786
0.0191363
0.0188463
0.018607
0.0184125
0.0182566
0.0181339
0.0180402
0.0179724
0.0179284
0.0179067
0.0204239
0.020123
0.0197548
0.0193785
0.0190416
0.0187578
0.0185244
0.018335
0.0181832
0.0180638
0.0179725
0.0179064
0.0178635
0.0178423
0.0198549
0.0203163
0.0200935
0.0196998
0.0193162
0.0189816
0.0187012
0.0184712
0.0182849
0.0181357
0.0180182
0.0179285
0.0178636
0.0178213
0.0178005
0.0198692
0.0202758
0.0200681
0.0196693
0.0192849
0.0189521
0.0186734
0.0184451
0.0182603
0.0181123
0.0179959
0.0179069
0.0178424
0.0178005
0.0177798
0.0185069
0.0185172
0.0186244
0.0188513
0.0191822
0.0191818
0.0191292
0.0191072
0.0186395
0.0190654
0.0191054
0.0190928
0.0190634
0.0190647
0.0190634
0.0190598
0.0187805
0.0191095
0.0190969
0.0190897
0.0190608
0.019009
0.0189731
0.0189476
0.0189333
0.019213
0.0191129
0.0191068
0.0190564
0.01899
0.0189256
0.0188627
0.0188128
0.018778
0.0187596
0.0192137
0.0190933
0.0190882
0.019025
0.0189354
0.0188418
0.0187559
0.0186812
0.018624
0.0185857
0.0185663
0.0187807
0.0191132
0.0190882
0.0190137
0.0189048
0.0187885
0.018678
0.0185808
0.0185003
0.0184397
0.0183996
0.0183795
0.0186399
0.0191099
0.0191071
0.0190252
0.018905
0.0187699
0.0186378
0.0185181
0.0184161
0.0183339
0.0182727
0.0182322
0.0182121
0.0190659
0.0190974
0.0190568
0.0189357
0.0187887
0.0186379
0.018497
0.0183734
0.0182704
0.0181885
0.0181279
0.018088
0.0180681
0.018625
0.019106
0.0190902
0.0189905
0.0188422
0.0186783
0.0185182
0.0183735
0.0182492
0.0181468
0.0180661
0.0180066
0.0179674
0.017948
0.018852
0.0190935
0.0190615
0.0189262
0.0187563
0.0185812
0.0184164
0.0182706
0.0181469
0.0180457
0.0179665
0.0179081
0.0178697
0.0178507
0.019183
0.0190642
0.0190097
0.0188633
0.0186818
0.0185008
0.0183343
0.0181888
0.0180663
0.0179666
0.0178886
0.0178312
0.0177936
0.0177749
0.0191826
0.0190655
0.0189738
0.0188135
0.0186246
0.0184402
0.0182731
0.0181283
0.0180068
0.0179083
0.0178313
0.0177748
0.0177377
0.0177193
0.0185078
0.0191301
0.0190643
0.0189484
0.0187788
0.0185864
0.0184002
0.0182328
0.0180884
0.0179678
0.01787
0.0177937
0.0177378
0.017701
0.0176828
0.0185181
0.0191081
0.0190607
0.0189341
0.0187604
0.018567
0.0183802
0.0182127
0.0180686
0.0179484
0.017851
0.0177751
0.0177194
0.0176829
0.0176648
0.0177889
0.017797
0.0178504
0.0179988
0.0182153
0.0182586
0.0182489
0.0182473
0.0178755
0.0181079
0.0182157
0.0182347
0.01824
0.0182522
0.0182603
0.0182648
0.0179655
0.0182174
0.0182436
0.0182765
0.0182947
0.018294
0.0182909
0.0182847
0.0182803
0.0182501
0.0182396
0.0182834
0.0182965
0.0182965
0.0182888
0.0182732
0.018257
0.0182431
0.0182351
0.0182506
0.0182344
0.0182903
0.0183056
0.0182929
0.0182675
0.0182358
0.0182028
0.0181749
0.0181547
0.0181441
0.0179658
0.0182399
0.0182903
0.0183083
0.01829
0.0182507
0.0182028
0.0181538
0.018109
0.0180732
0.0180484
0.0180357
0.017876
0.0182179
0.0182837
0.0183058
0.0182902
0.0182447
0.0181842
0.0181201
0.0180599
0.018008
0.0179676
0.0179402
0.0179262
0.0181085
0.0182441
0.0182969
0.0182932
0.0182509
0.0181843
0.0181085
0.0180338
0.0179668
0.0179108
0.0178678
0.0178389
0.0178243
0.017851
0.0182164
0.0182771
0.0182971
0.0182679
0.0182031
0.0181203
0.0180339
0.0179527
0.0178817
0.0178234
0.0177791
0.0177495
0.0177346
0.0179996
0.0182354
0.0182954
0.0182894
0.0182364
0.0181542
0.0180602
0.017967
0.0178818
0.0178085
0.017749
0.0177042
0.0176742
0.0176592
0.0182162
0.0182409
0.0182948
0.0182739
0.0182034
0.0181095
0.0180084
0.0179111
0.0178236
0.0177491
0.0176891
0.017644
0.0176139
0.0175989
0.0182596
0.0182532
0.0182917
0.0182578
0.0181755
0.0180738
0.0179681
0.0178682
0.0177794
0.0177043
0.017644
0.0175989
0.0175688
0.0175538
0.0177899
0.0182499
0.0182613
0.0182856
0.018244
0.0181555
0.0180491
0.0179407
0.0178393
0.0177498
0.0176745
0.0176141
0.0175689
0.0175389
0.0175239
0.017798
0.0182483
0.0182658
0.0182813
0.018236
0.0181449
0.0180364
0.0179269
0.0178249
0.017735
0.0176595
0.0175991
0.017554
0.017524
0.017509
0.0172788
0.0172854
0.0172984
0.0173912
0.0175165
0.0175666
0.0175716
0.0175776
0.0173209
0.0174649
0.0175468
0.0175776
0.0175988
0.017618
0.0176284
0.0176344
0.017376
0.0175476
0.0175889
0.0176328
0.0176665
0.017687
0.0177007
0.0177062
0.017708
0.0175483
0.017575
0.0176331
0.0176714
0.0177003
0.0177199
0.0177298
0.017734
0.0177341
0.0177332
0.0175486
0.0175794
0.0176499
0.0176957
0.0177209
0.0177335
0.0177356
0.0177307
0.0177238
0.0177173
0.0177135
0.0173763
0.0175753
0.01765
0.0177043
0.0177317
0.0177386
0.0177325
0.0177185
0.0177014
0.0176855
0.0176735
0.0176671
0.0173215
0.0175481
0.0176335
0.0176959
0.0177318
0.0177402
0.0177291
0.0177069
0.0176802
0.0176538
0.0176315
0.0176157
0.0176074
0.0174655
0.0175895
0.0176719
0.0177213
0.0177389
0.0177293
0.0177025
0.0176678
0.0176317
0.0175988
0.0175721
0.0175536
0.0175441
0.0172992
0.0175475
0.0176335
0.0177009
0.017734
0.0177329
0.0177072
0.0176679
0.0176238
0.0175812
0.0175439
0.0175144
0.017494
0.0174837
0.017392
0.0175785
0.0176673
0.0177206
0.0177362
0.017719
0.0176805
0.0176319
0.0175813
0.0175342
0.017494
0.0174625
0.0174411
0.0174302
0.0175174
0.0175997
0.0176879
0.0177306
0.0177314
0.0177019
0.0176542
0.0175991
0.0175441
0.0174941
0.0174519
0.0174193
0.0173971
0.0173859
0.0175676
0.017619
0.0177016
0.0177348
0.0177245
0.0176861
0.0176321
0.0175726
0.0175147
0.0174627
0.0174194
0.017386
0.0173634
0.0173519
0.0172798
0.0175727
0.0176295
0.0177072
0.017735
0.0177182
0.0176743
0.0176163
0.0175541
0.0174944
0.0174414
0.0173973
0.0173634
0.0173406
0.0173291
0.0172865
0.0175788
0.0176355
0.017709
0.0177342
0.0177144
0.0176679
0.0176081
0.0175446
0.0174842
0.0174306
0.0173861
0.0173521
0.0173291
0.0173176
0.0168454
0.0168528
0.0168464
0.0169058
0.0169728
0.0170186
0.0170276
0.0170353
0.0168646
0.0169657
0.0170129
0.0170441
0.0170691
0.0170917
0.0171037
0.0171103
0.0168991
0.0170135
0.0170568
0.0171006
0.0171368
0.0171634
0.0171838
0.0171954
0.0172006
0.0170007
0.0170392
0.0170976
0.0171431
0.0171821
0.0172131
0.0172353
0.0172505
0.0172588
0.0172624
0.017001
0.0170469
0.0171162
0.0171711
0.0172128
0.0172445
0.0172659
0.0172786
0.0172856
0.0172887
0.0172897
0.0168995
0.0170395
0.0171163
0.0171812
0.0172292
0.0172618
0.0172817
0.0172912
0.0172938
0.0172929
0.0172908
0.0172893
0.0168652
0.017014
0.0170981
0.0171713
0.0172294
0.0172677
0.0172882
0.0172953
0.0172935
0.0172871
0.0172795
0.0172732
0.0172697
0.0169664
0.0170574
0.0171437
0.0172132
0.0172621
0.0172883
0.0172962
0.0172916
0.0172803
0.0172667
0.017254
0.0172445
0.0172394
0.0168472
0.0170138
0.0171014
0.0171827
0.0172451
0.0172821
0.0172956
0.0172918
0.0172776
0.0172589
0.0172398
0.0172234
0.0172116
0.0172054
0.0169068
0.0170451
0.0171377
0.0172139
0.0172666
0.0172918
0.0172939
0.0172806
0.017259
0.0172348
0.0172118
0.0171927
0.0171792
0.0171723
0.0169739
0.0170701
0.0171643
0.0172362
0.0172794
0.0172944
0.0172876
0.017267
0.0172401
0.0172119
0.0171862
0.0171653
0.0171507
0.0171431
0.0170198
0.0170928
0.0171849
0.0172514
0.0172864
0.0172936
0.0172801
0.0172545
0.0172238
0.017193
0.0171654
0.0171433
0.0171279
0.01712
0.0168466
0.0170288
0.0171049
0.0171965
0.0172598
0.0172896
0.0172916
0.0172739
0.0172451
0.017212
0.0171796
0.0171509
0.017128
0.0171121
0.017104
0.0168541
0.0170366
0.0171116
0.0172018
0.0172635
0.0172907
0.0172902
0.0172705
0.0172401
0.0172059
0.0171726
0.0171434
0.0171202
0.0171041
0.0170959
0.0164553
0.0164632
0.0164533
0.0164919
0.0165241
0.016562
0.0165717
0.0165793
0.0164668
0.016544
0.0165653
0.0165926
0.0166159
0.0166383
0.0166506
0.0166575
0.0164899
0.0165658
0.0166057
0.0166456
0.0166794
0.0167059
0.0167276
0.0167412
0.0167479
0.0165478
0.0165875
0.0166412
0.0166862
0.0167266
0.0167609
0.0167878
0.0168079
0.0168203
0.0168262
0.0165481
0.0165954
0.0166584
0.0167132
0.0167601
0.0167998
0.0168309
0.0168533
0.0168685
0.0168776
0.0168818
0.0164903
0.0165879
0.0166585
0.0167231
0.0167782
0.016823
0.0168572
0.0168812
0.0168966
0.0169059
0.0169109
0.0169131
0.0164675
0.0165664
0.0166417
0.0167135
0.0167783
0.0168309
0.0168696
0.0168955
0.0169109
0.0169189
0.0169224
0.0169235
0.0169237
0.0165448
0.0166064
0.0166868
0.0167606
0.0168233
0.0168698
0.0168999
0.0169166
0.0169237
0.0169251
0.0169236
0.0169215
0.0169201
0.0164543
0.0165663
0.0166464
0.0167273
0.0168005
0.0168577
0.0168958
0.0169167
0.016925
0.016925
0.0169209
0.0169155
0.0169109
0.0169082
0.016493
0.0165937
0.0166805
0.0167618
0.0168316
0.0168818
0.0169113
0.016924
0.0169252
0.0169197
0.0169113
0.016903
0.0168964
0.0168929
0.0165254
0.0166171
0.016707
0.0167888
0.0168541
0.0168974
0.0169195
0.0169255
0.0169212
0.0169115
0.0169
0.0168895
0.0168816
0.0168774
0.0165634
0.0166396
0.0167289
0.016809
0.0168695
0.0169068
0.0169231
0.0169241
0.0169159
0.0169032
0.0168896
0.0168776
0.0168688
0.0168641
0.0164566
0.0165731
0.016652
0.0167425
0.0168215
0.0168787
0.0169119
0.0169243
0.0169221
0.0169114
0.0168968
0.0168818
0.0168689
0.0168595
0.0168545
0.0164646
0.0165808
0.016659
0.0167493
0.0168275
0.0168829
0.0169141
0.0169246
0.0169208
0.0169088
0.0168933
0.0168777
0.0168643
0.0168546
0.0168495
0.0160999
0.0161073
0.0161001
0.0161255
0.0161374
0.0161676
0.0161764
0.016183
0.0161102
0.0161717
0.0161759
0.0161987
0.0162189
0.0162389
0.0162503
0.0162569
0.016127
0.0161767
0.0162115
0.0162463
0.0162763
0.0163003
0.0163208
0.0163342
0.0163411
0.016158
0.0161946
0.0162419
0.0162832
0.0163211
0.0163545
0.0163818
0.0164031
0.016417
0.0164239
0.0161583
0.0162018
0.0162571
0.0163077
0.0163537
0.016395
0.0164294
0.0164562
0.0164757
0.016488
0.016494
0.0161275
0.016195
0.0162572
0.0163167
0.0163714
0.0164201
0.0164608
0.0164924
0.0165153
0.016531
0.0165406
0.016545
0.016111
0.0161774
0.0162425
0.0163081
0.0163716
0.0164288
0.0164762
0.0165127
0.0165388
0.0165564
0.0165676
0.0165741
0.016577
0.0161727
0.0162124
0.0162839
0.0163543
0.0164205
0.0164764
0.0165193
0.0165496
0.0165694
0.0165816
0.0165885
0.0165921
0.0165935
0.0161012
0.0161771
0.0162474
0.016322
0.0163957
0.0164613
0.016513
0.0165497
0.0165735
0.0165874
0.0165947
0.016598
0.0165991
0.0165994
0.0161269
0.0162
0.0162775
0.0163556
0.0164303
0.0164931
0.0165393
0.0165698
0.0165876
0.0165965
0.0165998
0.0166001
0.0165994
0.0165987
0.0161389
0.0162203
0.0163017
0.016383
0.0164572
0.0165162
0.0165571
0.0165821
0.016595
0.0165999
0.0166002
0.0165983
0.0165961
0.0165948
0.0161692
0.0162405
0.0163222
0.0164044
0.0164768
0.016532
0.0165684
0.0165891
0.0165984
0.0166004
0.0165984
0.016595
0.0165919
0.01659
0.0161014
0.0161781
0.0162519
0.0163357
0.0164184
0.0164892
0.0165416
0.016575
0.0165928
0.0165997
0.0165998
0.0165964
0.016592
0.0165882
0.016586
0.0161088
0.0161848
0.0162585
0.0163426
0.0164253
0.0164952
0.0165462
0.0165779
0.0165943
0.0166
0.0165992
0.0165951
0.0165902
0.0165861
0.0165838
0.0157737
0.01578
0.0157767
0.0157941
0.015793
0.0158168
0.0158242
0.0158296
0.0157846
0.0158349
0.0158276
0.0158464
0.0158632
0.0158803
0.0158901
0.0158959
0.0157977
0.0158289
0.0158586
0.0158884
0.0159141
0.015935
0.015953
0.0159651
0.0159715
0.0158115
0.0158439
0.0158847
0.015921
0.0159548
0.0159852
0.0160107
0.0160311
0.0160448
0.0160517
0.0158118
0.0158503
0.0158978
0.0159427
0.0159849
0.0160241
0.0160582
0.0160858
0.0161065
0.0161201
0.0161269
0.0157983
0.0158444
0.015898
0.0159506
0.0160013
0.0160488
0.0160908
0.0161253
0.0161518
0.0161708
0.0161829
0.0161887
0.0157855
0.0158298
0.0158853
0.0159431
0.0160016
0.0160575
0.0161073
0.0161485
0.0161804
0.0162038
0.0162198
0.0162297
0.0162344
0.015836
0.0158596
0.0159219
0.0159856
0.0160493
0.0161075
0.0161563
0.0161942
0.016222
0.0162413
0.0162541
0.0162617
0.0162652
0.0157781
0.015829
0.0158896
0.0159559
0.016025
0.0160914
0.0161489
0.0161944
0.0162279
0.0162512
0.0162667
0.0162763
0.0162818
0.0162843
0.0157956
0.0158479
0.0159156
0.0159865
0.0160592
0.0161261
0.016181
0.0162224
0.0162514
0.0162706
0.0162827
0.0162897
0.0162935
0.0162951
0.0157947
0.0158649
0.0159365
0.0160121
0.016087
0.0161528
0.0162045
0.0162419
0.016267
0.0162828
0.0162921
0.0162971
0.0162996
0.0163005
0.0158188
0.0158821
0.0159547
0.0160326
0.0161079
0.0161719
0.0162207
0.0162548
0.0162768
0.0162901
0.0162973
0.0163008
0.0163023
0.0163028
0.0157755
0.0158262
0.015892
0.0159669
0.0160464
0.0161216
0.0161841
0.0162307
0.0162625
0.0162825
0.016294
0.0162999
0.0163025
0.0163033
0.0163035
0.0157818
0.0158317
0.0158978
0.0159733
0.0160534
0.0161284
0.0161901
0.0162355
0.0162661
0.016285
0.0162957
0.0163009
0.016303
0.0163036
0.0163036
0.015471
0.0154762
0.0154763
0.0154887
0.0154786
0.0154974
0.0155033
0.0155077
0.0154828
0.0155247
0.0155095
0.0155248
0.0155386
0.0155526
0.0155607
0.0155656
0.0154936
0.0155115
0.0155365
0.0155616
0.0155832
0.0156007
0.0156159
0.0156262
0.0156318
0.0154961
0.0155242
0.0155589
0.0155901
0.0156193
0.0156458
0.0156683
0.0156866
0.015699
0.0157055
0.0154963
0.0155298
0.0155703
0.015609
0.0156462
0.0156815
0.015713
0.0157391
0.0157593
0.0157728
0.0157795
0.0154943
0.0155248
0.0155706
0.015616
0.015661
0.0157046
0.0157445
0.0157787
0.0158059
0.015826
0.0158391
0.0158456
0.0154839
0.0155125
0.0155597
0.0156096
0.0156612
0.0157128
0.0157609
0.0158027
0.0158367
0.0158627
0.0158812
0.0158931
0.0158988
0.0155261
0.0155377
0.0155912
0.015647
0.0157051
0.0157611
0.0158108
0.0158519
0.0158838
0.0159074
0.0159237
0.0159339
0.0159387
0.015478
0.0155112
0.0155631
0.0156206
0.0156825
0.0157453
0.0158032
0.0158521
0.0158908
0.0159198
0.0159406
0.0159546
0.0159631
0.0159671
0.0154906
0.0155267
0.0155849
0.0156473
0.0157142
0.0157796
0.0158374
0.0158843
0.01592
0.015946
0.0159641
0.015976
0.0159831
0.0159864
0.0154808
0.0155407
0.0156025
0.0156699
0.0157405
0.015807
0.0158636
0.015908
0.015941
0.0159643
0.0159801
0.0159903
0.0159963
0.015999
0.0154997
0.0155548
0.0156179
0.0156884
0.0157609
0.0158273
0.0158823
0.0159245
0.0159551
0.0159764
0.0159905
0.0159993
0.0160044
0.0160067
0.0154731
0.0155057
0.0155629
0.0156283
0.0157009
0.0157745
0.0158405
0.0158943
0.0159348
0.0159638
0.0159836
0.0159966
0.0160046
0.0160091
0.0160111
0.0154783
0.0155101
0.0155678
0.0156339
0.0157074
0.0157813
0.0158471
0.0159001
0.0159398
0.015968
0.0159871
0.0159994
0.016007
0.0160113
0.0160131
0.0151867
0.0151908
0.0151938
0.0152039
0.0151865
0.0152013
0.0152057
0.0152092
0.0151996
0.0152352
0.0152142
0.0152266
0.0152377
0.0152489
0.015255
0.015259
0.0152088
0.0152171
0.015238
0.0152589
0.0152766
0.0152907
0.0153029
0.0153113
0.0153159
0.0152036
0.0152281
0.0152575
0.0152837
0.0153081
0.0153304
0.0153493
0.0153648
0.0153755
0.0153811
0.015204
0.015233
0.0152674
0.0153001
0.0153318
0.0153621
0.0153897
0.0154131
0.0154314
0.0154439
0.0154502
0.0152098
0.0152288
0.0152677
0.0153062
0.0153447
0.015383
0.0154189
0.0154506
0.0154764
0.015496
0.015509
0.0155155
0.0152009
0.0152184
0.0152585
0.0153008
0.0153451
0.0153904
0.0154343
0.0154738
0.0155072
0.0155335
0.0155529
0.0155654
0.0155716
0.0152368
0.0152395
0.015285
0.0153327
0.0153836
0.0154346
0.0154819
0.0155227
0.0155558
0.0155812
0.0155993
0.0156109
0.0156166
0.0151958
0.0152163
0.0152607
0.0153097
0.0153633
0.0154198
0.0154744
0.015523
0.0155633
0.015595
0.0156187
0.0156353
0.0156458
0.0156508
0.0152062
0.0152289
0.0152786
0.0153321
0.0153912
0.0154517
0.015508
0.0155563
0.0155953
0.0156251
0.0156469
0.015662
0.0156714
0.0156759
0.0151891
0.0152401
0.0152929
0.0153513
0.0154147
0.0154778
0.0155346
0.0155819
0.0156192
0.0156472
0.0156673
0.0156811
0.0156895
0.0156935
0.0152041
0.0152515
0.0153053
0.0153669
0.0154332
0.0154975
0.0155541
0.0156003
0.015636
0.0156624
0.0156813
0.0156939
0.0157017
0.0157053
0.0151892
0.0152085
0.0152577
0.0153138
0.0153778
0.0154458
0.0155107
0.0155668
0.015612
0.0156466
0.015672
0.0156899
0.0157019
0.0157092
0.0157126
0.0151934
0.015212
0.0152617
0.0153184
0.0153834
0.0154522
0.0155172
0.0155731
0.0156178
0.0156517
0.0156766
0.015694
0.0157057
0.0157127
0.015716
0.0149163
0.0149196
0.0149252
0.0149336
0.0149114
0.014923
0.0149258
0.0149286
0.0149309
0.0149619
0.014937
0.0149467
0.0149552
0.0149637
0.014968
0.0149711
0.0149393
0.014941
0.0149583
0.0149752
0.0149891
0.0149999
0.0150091
0.0150154
0.0150189
0.0149291
0.0149506
0.0149753
0.0149968
0.0150165
0.0150342
0.0150492
0.0150616
0.0150702
0.0150747
0.0149295
0.0149547
0.0149839
0.0150109
0.0150368
0.0150618
0.0150847
0.0151044
0.01512
0.0151308
0.0151363
0.0149404
0.0149514
0.0149842
0.0150162
0.015048
0.01508
0.0151107
0.0151384
0.0151616
0.0151795
0.0151915
0.0151976
0.0149325
0.0149425
0.0149765
0.0150117
0.0150484
0.0150866
0.0151246
0.01516
0.0151908
0.0152158
0.0152345
0.0152469
0.015253
0.0149638
0.0149601
0.0149983
0.0150379
0.0150807
0.015125
0.0151676
0.0152058
0.0152378
0.0152632
0.0152817
0.0152938
0.0152998
0.0149277
0.0149395
0.0149774
0.0150183
0.0150632
0.0151118
0.0151607
0.0152061
0.0152454
0.0152775
0.0153022
0.0153201
0.0153315
0.0153371
0.0149364
0.0149495
0.0149916
0.0150363
0.0150864
0.0151398
0.0151918
0.0152385
0.0152778
0.0153091
0.0153329
0.0153497
0.0153605
0.0153657
0.0149146
0.0149582
0.0150026
0.0150516
0.0151063
0.0151632
0.015217
0.015264
0.0153028
0.0153331
0.0153558
0.0153718
0.0153819
0.0153867
0.0149264
0.0149668
0.015012
0.0150641
0.0151222
0.0151813
0.0152359
0.0152828
0.0153208
0.0153502
0.015372
0.0153872
0.0153968
0.0154014
0.0149195
0.0149291
0.0149712
0.0150183
0.0150728
0.0151331
0.0151935
0.0152485
0.0152951
0.0153325
0.0153612
0.0153823
0.015397
0.0154062
0.0154106
0.0149228
0.014932
0.0149744
0.0150219
0.0150775
0.0151387
0.0151996
0.0152548
0.0153011
0.0153382
0.0153665
0.0153873
0.0154017
0.0154108
0.0154151
0.0146567
0.0146594
0.0146679
0.0146748
0.0146498
0.0146589
0.0146596
0.014662
0.0146738
0.0147017
0.0146744
0.0146815
0.0146873
0.0146931
0.0146955
0.0146978
0.0146819
0.0146798
0.0146938
0.0147069
0.0147171
0.0147243
0.0147303
0.0147343
0.0147368
0.0146692
0.0146881
0.0147087
0.0147256
0.0147404
0.0147534
0.0147642
0.0147731
0.0147793
0.0147827
0.0146697
0.0146913
0.0147159
0.0147374
0.0147575
0.0147766
0.0147943
0.0148097
0.0148221
0.0148308
0.0148353
0.0146833
0.0146891
0.0147164
0.0147419
0.0147668
0.014792
0.0148167
0.0148395
0.0148591
0.0148744
0.014885
0.0148903
0.0146758
0.0146816
0.0147101
0.0147383
0.0147672
0.0147976
0.0148288
0.0148587
0.0148856
0.0149081
0.0149253
0.0149368
0.0149426
0.0147042
0.0146961
0.0147274
0.0147588
0.0147928
0.0148292
0.0148656
0.0148995
0.014929
0.0149529
0.0149709
0.0149828
0.0149887
0.014671
0.0146775
0.0147096
0.0147427
0.0147783
0.0148179
0.0148595
0.0148999
0.0149363
0.014967
0.0149914
0.0150094
0.0150212
0.015027
0.0146783
0.014685
0.0147201
0.014756
0.0147964
0.0148411
0.0148868
0.0149297
0.0149674
0.0149985
0.0150227
0.0150404
0.0150518
0.0150574
0.0146538
0.014691
0.0147276
0.014767
0.0148121
0.0148609
0.0149095
0.0149539
0.0149921
0.015023
0.0150468
0.015064
0.015075
0.0150804
0.014663
0.014697
0.0147338
0.0147761
0.0148247
0.0148765
0.0149269
0.0149721
0.0150103
0.0150409
0.0150642
0.0150809
0.0150917
0.0150969
0.0146606
0.0146637
0.0146994
0.0147379
0.0147825
0.0148335
0.0148872
0.0149387
0.0149842
0.0150223
0.0150525
0.0150755
0.0150919
0.0151024
0.0151074
0.0146634
0.0146661
0.0147017
0.0147404
0.0147859
0.0148381
0.0148927
0.0149446
0.0149902
0.0150282
0.0150583
0.015081
0.0150972
0.0151076
0.0151126
0.0144052
0.0144076
0.0144198
0.0144252
0.0143997
0.0144062
0.0144047
0.0144066
0.0144264
0.0144525
0.014424
0.0144285
0.0144314
0.0144342
0.0144344
0.0144359
0.0144346
0.0144314
0.0144422
0.0144513
0.0144573
0.0144606
0.0144631
0.0144646
0.0144659
0.0144223
0.0144384
0.0144549
0.014467
0.0144766
0.0144844
0.0144906
0.0144957
0.0144993
0.0145014
0.0144228
0.0144403
0.0144606
0.0144764
0.0144901
0.014503
0.014515
0.0145257
0.0145345
0.0145408
0.0145442
0.0144363
0.0144395
0.0144611
0.01448
0.0144974
0.0145153
0.0145334
0.0145507
0.014566
0.0145784
0.0145871
0.0145916
0.0144288
0.0144336
0.0144566
0.0144775
0.014498
0.0145199
0.0145434
0.0145671
0.0145894
0.0146085
0.0146236
0.0146339
0.0146391
0.0144555
0.014445
0.0144693
0.0144917
0.0145163
0.0145439
0.0145731
0.0146018
0.0146277
0.0146494
0.0146661
0.0146773
0.0146829
0.0144237
0.014428
0.0144546
0.0144793
0.0145051
0.0145348
0.0145681
0.0146022
0.0146345
0.0146628
0.014686
0.0147034
0.014715
0.0147207
0.0144296
0.0144329
0.0144611
0.0144875
0.0145175
0.0145525
0.0145906
0.0146285
0.0146632
0.0146929
0.0147167
0.0147343
0.014746
0.0147517
0.0144047
0.014436
0.0144646
0.014494
0.0145284
0.0145682
0.0146101
0.0146505
0.0146867
0.014717
0.014741
0.0147586
0.0147701
0.0147757
0.0144113
0.0144389
0.0144673
0.0144993
0.0145375
0.0145808
0.0146255
0.0146675
0.0147044
0.0147349
0.0147589
0.0147763
0.0147877
0.0147932
0.0144101
0.0144097
0.014439
0.0144688
0.014503
0.014544
0.0145897
0.014636
0.0146789
0.0147162
0.0147468
0.0147706
0.0147879
0.0147991
0.0148046
0.0144124
0.0144115
0.0144406
0.0144702
0.0145052
0.0145474
0.0145943
0.0146413
0.0146847
0.0147221
0.0147527
0.0147764
0.0147936
0.0148048
0.0148103
0.0141592
0.0141613
0.0141785
0.0141829
0.0141603
0.0141636
0.0141586
0.0141605
0.0141861
0.0142125
0.0141851
0.014186
0.014185
0.0141841
0.0141816
0.0141825
0.0141955
0.0141953
0.0142021
0.014206
0.0142069
0.0142055
0.0142038
0.0142024
0.0142026
0.0141879
0.0141998
0.0142116
0.0142182
0.0142216
0.0142234
0.0142245
0.0142254
0.0142262
0.0142271
0.0141885
0.0141992
0.014215
0.0142243
0.014231
0.014237
0.0142428
0.0142484
0.0142535
0.0142573
0.0142595
0.0141976
0.0142011
0.0142156
0.014227
0.014236
0.0142458
0.0142568
0.0142684
0.0142793
0.0142886
0.0142953
0.0142988
0.0141891
0.0141981
0.0142136
0.0142256
0.0142366
0.0142493
0.0142647
0.0142818
0.0142991
0.0143147
0.0143275
0.0143364
0.0143409
0.0142164
0.0142056
0.0142209
0.0142329
0.014247
0.0142652
0.0142869
0.0143099
0.0143318
0.014351
0.0143661
0.0143765
0.0143817
0.0141837
0.0141902
0.0142102
0.0142248
0.0142394
0.0142585
0.0142829
0.0143103
0.014338
0.0143635
0.0143849
0.0144015
0.0144127
0.0144182
0.0141888
0.0141917
0.0142116
0.0142272
0.0142457
0.0142705
0.0143005
0.0143327
0.0143639
0.0143916
0.0144144
0.0144317
0.0144433
0.014449
0.0141667
0.0141909
0.0142105
0.0142285
0.0142516
0.0142817
0.0143165
0.0143523
0.0143857
0.0144148
0.0144383
0.014456
0.0144676
0.0144734
0.01417
0.01419
0.0142089
0.0142296
0.0142569
0.0142913
0.0143296
0.0143677
0.0144026
0.0144324
0.0144563
0.014474
0.0144857
0.0144915
0.0141652
0.0141648
0.0141873
0.0142075
0.0142306
0.014261
0.0142982
0.0143387
0.0143783
0.014414
0.0144442
0.0144682
0.014486
0.0144976
0.0145033
0.0141671
0.0141665
0.0141881
0.0142077
0.0142315
0.0142633
0.0143019
0.0143435
0.0143837
0.0144197
0.0144501
0.0144742
0.0144919
0.0145036
0.0145093
0.0139146
0.0139167
0.0139407
0.0139456
0.013933
0.0139305
0.0139199
0.0139224
0.0139491
0.0139804
0.0139576
0.0139528
0.0139462
0.0139401
0.0139338
0.0139342
0.0139629
0.0139721
0.0139727
0.0139683
0.0139623
0.0139549
0.0139481
0.0139433
0.0139424
0.0139753
0.0139709
0.0139755
0.0139749
0.0139706
0.0139655
0.0139609
0.0139574
0.0139554
0.0139551
0.0139761
0.0139646
0.0139749
0.0139763
0.0139748
0.0139732
0.0139726
0.0139732
0.0139747
0.0139763
0.0139775
0.0139654
0.0139724
0.0139756
0.0139777
0.013977
0.0139783
0.0139822
0.0139881
0.0139949
0.0140014
0.0140064
0.0140092
0.0139529
0.0139754
0.0139778
0.0139777
0.0139777
0.0139804
0.0139878
0.0139987
0.0140113
0.0140238
0.0140345
0.0140422
0.0140462
0.0139855
0.013977
0.013978
0.013977
0.0139796
0.0139884
0.0140028
0.0140205
0.0140389
0.0140558
0.0140695
0.0140791
0.0140839
0.0139477
0.0139643
0.0139735
0.0139745
0.013976
0.0139841
0.0139998
0.0140211
0.0140445
0.0140673
0.0140872
0.0141029
0.0141136
0.014119
0.0139539
0.0139603
0.0139682
0.01397
0.0139759
0.0139905
0.0140129
0.0140399
0.0140677
0.0140935
0.0141154
0.0141323
0.0141437
0.0141493
0.0139416
0.0139536
0.013961
0.0139656
0.0139769
0.0139977
0.0140258
0.0140571
0.014088
0.0141158
0.0141388
0.0141563
0.014168
0.0141738
0.0139385
0.0139472
0.0139542
0.0139623
0.0139786
0.0140044
0.0140368
0.0140712
0.014104
0.014133
0.0141566
0.0141745
0.0141864
0.0141922
0.0139219
0.0139274
0.0139406
0.0139492
0.0139604
0.0139804
0.0140097
0.0140447
0.014081
0.014115
0.0141446
0.0141686
0.0141866
0.0141986
0.0142044
0.0139239
0.0139297
0.0139409
0.0139483
0.0139602
0.0139817
0.0140126
0.0140489
0.0140861
0.0141207
0.0141505
0.0141747
0.0141927
0.0142047
0.0142106
0.0136625
0.0136656
0.0136992
0.0137101
0.0137238
0.0137063
0.0136854
0.0136904
0.0137068
0.0137581
0.0137416
0.0137273
0.0137115
0.0136975
0.0136856
0.0136859
0.0137354
0.013762
0.0137518
0.0137325
0.0137164
0.0137013
0.0136891
0.0136806
0.0136788
0.0138095
0.0137548
0.0137391
0.0137296
0.0137158
0.0137029
0.0136925
0.0136852
0.0136808
0.0136796
0.0138102
0.0137416
0.013735
0.0137239
0.0137136
0.0137042
0.0136978
0.0136943
0.0136931
0.0136931
0.0136936
0.0137381
0.0137565
0.0137358
0.0137243
0.0137125
0.0137056
0.0137033
0.0137048
0.0137087
0.0137134