/*--------------------------------*- C++ -*----------------------------------*\
| =========                 |                                                 |
| \\      /  F ield         | OpenFOAM: The Open Source CFD Toolbox           |
|  \\    /   O peration     | Version:  2.1.1                                 |
|   \\  /    A nd           | Web:      www.OpenFOAM.org                      |
|    \\/     M anipulation  |                                                 |
\*---------------------------------------------------------------------------*/
FoamFile
{
    version     2.0;
    format      ascii;
    class       volScalarField;
    location    "0.0005";
    object      p;
}
// * * * * * * * * * * * * * * * * * * * * * * * * * * * * * * * * * * * * * //

dimensions      [0 2 -2 0 0 0 0];

internalField   nonuniform List<scalar> 
10233
(
0.15333
0.159745
0.154524
0.150317
0.147932
0.146189
0.145108
0.144238
0.143582
0.143041
0.142612
0.142268
0.142002
0.141799
0.141658
0.152012
0.159375
0.155361
0.150676
0.148025
0.146213
0.145108
0.144235
0.143576
0.143034
0.142602
0.142255
0.141986
0.141781
0.141639
0.126606
0.158845
0.157077
0.151541
0.148383
0.14642
0.145239
0.144338
0.143654
0.14311
0.142661
0.142308
0.142035
0.141827
0.141682
0.159685
0.157757
0.152477
0.148909
0.146767
0.145464
0.144519
0.143814
0.143244
0.142795
0.14243
0.142147
0.141931
0.141782
0.156298
0.15871
0.154447
0.150151
0.147509
0.145924
0.144842
0.144078
0.143477
0.143009
0.142628
0.14233
0.142102
0.141947
0.143563
0.158725
0.156311
0.15172
0.148476
0.14652
0.14526
0.144423
0.143786
0.143301
0.142901
0.142592
0.142349
0.142176
0.162267
0.159586
0.154362
0.150008
0.147459
0.145897
0.144938
0.144227
0.14371
0.143278
0.142942
0.142673
0.142489
0.147277
0.160642
0.156945
0.151623
0.14853
0.146689
0.145606
0.144802
0.144242
0.143759
0.143386
0.143072
0.142862
0.159893
0.160181
0.153878
0.150105
0.14789
0.146653
0.145666
0.145019
0.144432
0.143992
0.143608
0.14336
0.144167
0.161726
0.157781
0.152338
0.149668
0.148223
0.146938
0.146128
0.145334
0.144729
0.14419
0.143866
0.152039
0.161381
0.157232
0.153048
0.150923
0.148989
0.147905
0.146774
0.145914
0.14514
0.144714
0.152373
0.165444
0.159616
0.155084
0.152202
0.150472
0.148815
0.14742
0.14627
0.145659
0.161336
0.160295
0.156547
0.154171
0.152012
0.150271
0.149047
0.148263
0.136323
0.156342
0.158862
0.155347
0.152208
0.152962
0.152426
0.140812
0.135222
0.165815
0.168124
0.115609
0.101967
0.10493
0.0999355
0.099401
0.0974668
0.0967685
0.0958618
0.0953343
0.094836
0.0944894
0.0942091
0.0940156
0.0938852
0.0938214
0.114562
0.101364
0.10475
0.100001
0.099434
0.0975702
0.0968465
0.095945
0.0954084
0.0949074
0.0945565
0.0942737
0.0940794
0.0939487
0.0938848
0.108396
0.102551
0.105416
0.100955
0.0999581
0.0980422
0.0971578
0.0961984
0.0956041
0.0950821
0.094708
0.0944154
0.0942154
0.0940796
0.0940146
0.103852
0.103627
0.101321
0.0999352
0.0983319
0.0973828
0.0964526
0.0958401
0.0953026
0.0949273
0.0946209
0.0944149
0.0942732
0.0942081
0.128771
0.106488
0.103918
0.101405
0.0993462
0.0980811
0.0969838
0.0962761
0.0956696
0.0952642
0.0949273
0.0947076
0.0945564
0.0944881
0.112734
0.106
0.103731
0.101673
0.0997204
0.0985073
0.0974163
0.0967204
0.0960813
0.09567
0.0953032
0.0950821
0.0949074
0.0948345
0.136454
0.106817
0.104413
0.10129
0.0997236
0.0982829
0.0974999
0.096722
0.0962776
0.0958418
0.0956045
0.0954092
0.0953329
0.117753
0.106572
0.103959
0.101822
0.100362
0.0990029
0.0982833
0.097419
0.096986
0.0964555
0.0961995
0.095947
0.0958605
0.135473
0.107284
0.103892
0.102434
0.100369
0.0997283
0.0985136
0.0980864
0.0973878
0.0971604
0.0968497
0.096767
0.114219
0.104291
0.104599
0.103892
0.101828
0.101296
0.0997273
0.0993524
0.0983387
0.0980459
0.0975754
0.0974642
0.141631
0.104376
0.10732
0.103988
0.104428
0.101685
0.101414
0.0999449
0.0999637
0.0994417
0.0993985
0.139856
0.13973
0.106578
0.106828
0.10374
0.103927
0.101333
0.100961
0.100016
0.0999306
0.138676
0.138232
0.106011
0.106497
0.103639
0.105425
0.104769
0.104931
0.113656
0.132329
0.135999
0.103867
0.102539
0.10142
0.101958
0.133562
0.131997
0.136638
0.139559
0.114029
0.110239
0.114847
0.113611
0.114414
0.113552
0.113381
0.112823
0.112506
0.112143
0.111886
0.111664
0.111508
0.111401
0.111347
0.114154
0.110102
0.114646
0.113669
0.114418
0.113619
0.113424
0.112879
0.112557
0.112196
0.111939
0.111716
0.11156
0.111453
0.1114
0.116282
0.111704
0.115068
0.114291
0.114712
0.113913
0.113615
0.113048
0.112697
0.112324
0.112057
0.111828
0.11167
0.11156
0.111507
0.110251
0.113923
0.114188
0.114547
0.114034
0.113714
0.113202
0.112848
0.112482
0.112217
0.111986
0.111827
0.111715
0.111662
0.122571
0.112761
0.114431
0.114792
0.1144
0.11404
0.113503
0.113122
0.112734
0.112462
0.112217
0.112056
0.111938
0.111885
0.113457
0.11033
0.114002
0.114529
0.114497
0.114207
0.11374
0.113379
0.112997
0.112734
0.112482
0.112323
0.112196
0.112141
0.128238
0.112536
0.114829
0.114741
0.114634
0.114139
0.113799
0.113381
0.113124
0.11285
0.112697
0.112558
0.112504
0.116537
0.111158
0.11461
0.114807
0.114826
0.114443
0.11414
0.113742
0.113505
0.113205
0.11305
0.11288
0.112821
0.125643
0.113067
0.114979
0.114937
0.114832
0.114639
0.114214
0.114045
0.113719
0.113618
0.113427
0.113379
0.119087
0.112362
0.115027
0.114989
0.114817
0.114748
0.114505
0.114406
0.114041
0.113916
0.113623
0.113549
0.139492
0.112389
0.113089
0.114627
0.11484
0.11454
0.1148
0.114557
0.114718
0.114425
0.114412
0.136747
0.130369
0.111166
0.112544
0.114011
0.114438
0.114198
0.114297
0.11368
0.113605
0.126597
0.127537
0.11034
0.112769
0.113934
0.115078
0.114659
0.114847
0.115122
0.123385
0.126182
0.110265
0.11171
0.110126
0.11023
0.131385
0.12721
0.126303
0.125754
0.113841
0.112486
0.113951
0.11363
0.114054
0.113485
0.113329
0.112865
0.112585
0.112255
0.112019
0.11181
0.111663
0.11156
0.11151
0.114172
0.112254
0.11384
0.113615
0.114042
0.113524
0.11336
0.112911
0.112629
0.112303
0.112067
0.111858
0.111711
0.111609
0.111559
0.115927
0.112742
0.114062
0.113898
0.11422
0.113717
0.113506
0.113048
0.11275
0.112417
0.112176
0.111963
0.111815
0.111711
0.111661
0.112399
0.113505
0.113857
0.114122
0.113805
0.113584
0.113177
0.112881
0.112559
0.112322
0.112109
0.111962
0.111857
0.111808
0.121148
0.113561
0.113784
0.114295
0.114027
0.11382
0.113411
0.113109
0.112779
0.112541
0.112322
0.112176
0.112067
0.112017
0.114167
0.112502
0.113764
0.11416
0.114125
0.113944
0.113601
0.11332
0.113006
0.112779
0.11256
0.112417
0.112303
0.112253
0.124474
0.113485
0.114112
0.114277
0.114202
0.113891
0.11364
0.113321
0.11311
0.112882
0.11275
0.11263
0.112583
0.115525
0.113216
0.114211
0.114298
0.114338
0.114094
0.113892
0.113604
0.113413
0.11318
0.11305
0.112913
0.112863
0.122336
0.113902
0.114272
0.114443
0.114347
0.114207
0.11395
0.113824
0.113589
0.113508
0.113363
0.113327
0.11832
0.114041
0.113949
0.114275
0.114306
0.114282
0.114131
0.114032
0.113811
0.113719
0.113529
0.113483
0.135897
0.114063
0.113914
0.114224
0.114121
0.114169
0.114301
0.114129
0.114224
0.114047
0.114052
0.13345
0.127254
0.113224
0.11349
0.113771
0.113789
0.113865
0.113902
0.113624
0.113624
0.123446
0.124534
0.11251
0.113568
0.113514
0.114069
0.113849
0.11395
0.11496
0.120853
0.123555
0.112411
0.112744
0.112279
0.11247
0.129179
0.124712
0.124088
0.123372
0.112815
0.110815
0.111448
0.111525
0.11189
0.111725
0.111714
0.111464
0.111302
0.111079
0.110912
0.110755
0.110642
0.110562
0.110521
0.113208
0.110728
0.111374
0.111502
0.111862
0.111738
0.111727
0.111491
0.11133
0.111112
0.110947
0.110792
0.11068
0.1106
0.110561
0.114838
0.110828
0.1115
0.111596
0.111941
0.111826
0.111808
0.111574
0.11141
0.111192
0.111027
0.110871
0.11076
0.11068
0.110641
0.110907
0.111126
0.111566
0.111837
0.111848
0.111833
0.111645
0.11149
0.111287
0.111129
0.110978
0.110871
0.110792
0.110754
0.119519
0.111316
0.111422
0.111908
0.111907
0.111943
0.111769
0.111628
0.111431
0.11128
0.11113
0.111027
0.110948
0.110911
0.113362
0.111043
0.111344
0.111803
0.111904
0.111966
0.111854
0.111739
0.111566
0.111431
0.111288
0.111192
0.111112
0.111077
0.122091
0.111355
0.111659
0.111947
0.112033
0.111974
0.111894
0.11174
0.111629
0.111492
0.111411
0.111331
0.1113
0.114058
0.11145
0.111643
0.111893
0.112025
0.11201
0.111975
0.111856
0.111771
0.111648
0.111575
0.111492
0.111462
0.120018
0.111628
0.11182
0.112038
0.11203
0.112036
0.111971
0.111946
0.111837
0.11181
0.111729
0.111713
0.116626
0.111839
0.11143
0.111823
0.111899
0.111951
0.111909
0.11191
0.111852
0.111828
0.111741
0.111723
0.13325
0.111858
0.111636
0.111652
0.111665
0.11181
0.111912
0.111842
0.111943
0.111865
0.111888
0.13066
0.124727
0.111455
0.111358
0.111349
0.111426
0.111572
0.111599
0.111508
0.111521
0.121435
0.122427
0.111049
0.111321
0.111133
0.111504
0.111379
0.111446
0.11377
0.119181
0.121668
0.110915
0.110832
0.110738
0.11081
0.127195
0.123017
0.122523
0.121831
0.111847
0.109648
0.109943
0.110198
0.110471
0.110509
0.11057
0.110463
0.110376
0.110235
0.110119
0.110006
0.109922
0.109861
0.109831
0.112268
0.109623
0.109892
0.110182
0.110446
0.110508
0.110572
0.110478
0.110394
0.110257
0.110144
0.110033
0.10995
0.10989
0.10986
0.113843
0.1096
0.10998
0.110186
0.110483
0.110534
0.110611
0.110521
0.110443
0.11031
0.1102
0.11009
0.110009
0.10995
0.109921
0.109742
0.109741
0.110178
0.110402
0.110531
0.110608
0.110556
0.110489
0.110372
0.11027
0.110167
0.11009
0.110033
0.110005
0.118311
0.109861
0.110014
0.110407
0.110518
0.110637
0.110607
0.110562
0.110458
0.110368
0.110271
0.110201
0.110145
0.110119
0.112417
0.109824
0.109947
0.110343
0.110484
0.110617
0.110626
0.110609
0.11053
0.110458
0.110372
0.11031
0.110258
0.110233
0.120609
0.109936
0.11016
0.110461
0.110591
0.110646
0.110658
0.11061
0.110563
0.110491
0.110443
0.110395
0.110375
0.112836
0.110063
0.110136
0.110381
0.110533
0.110609
0.110646
0.110628
0.110609
0.110558
0.110522
0.110479
0.110462
0.118495
0.110065
0.110292
0.110461
0.110537
0.110593
0.110621
0.11064
0.110611
0.110613
0.110574
0.110569
0.115253
0.110317
0.10992
0.110293
0.110385
0.110464
0.110488
0.110521
0.110534
0.110535
0.110511
0.110508
0.13166
0.110318
0.110069
0.110142
0.110164
0.110348
0.110411
0.110406
0.110484
0.110448
0.110469
0.129048
0.12306
0.110067
0.109938
0.109951
0.110016
0.110182
0.110188
0.110185
0.110195
0.120013
0.121088
0.109828
0.109865
0.109746
0.109983
0.109895
0.109942
0.112627
0.117916
0.120382
0.109747
0.109603
0.109628
0.109645
0.125943
0.121737
0.12135
0.120651
0.110862
0.108582
0.108627
0.108925
0.109095
0.109235
0.10933
0.109344
0.109327
0.109265
0.109201
0.109133
0.109078
0.109038
0.109017
0.111288
0.108583
0.108596
0.108918
0.109076
0.109229
0.109323
0.109347
0.109334
0.109276
0.109216
0.10915
0.109097
0.109057
0.109038
0.112798
0.108509
0.108667
0.108884
0.10909
0.109221
0.10933
0.109358
0.109355
0.109303
0.109248
0.109185
0.109135
0.109097
0.109078
0.108686
0.108519
0.108897
0.109034
0.109208
0.109311
0.10936
0.109368
0.109331
0.109285
0.10923
0.109185
0.10915
0.109132
0.117207
0.108637
0.108741
0.109018
0.109161
0.109298
0.109355
0.109386
0.109364
0.109332
0.109286
0.109248
0.109217
0.109201
0.111408
0.108706
0.108706
0.108995
0.109121
0.109264
0.109333
0.10938
0.10938
0.109364
0.109332
0.109303
0.109277
0.109263
0.11938
0.108716
0.108819
0.109082
0.109198
0.109301
0.109356
0.109381
0.109386
0.10937
0.109355
0.109334
0.109325
0.111707
0.108861
0.108826
0.109009
0.109138
0.109235
0.109301
0.109335
0.109356
0.109362
0.109359
0.109349
0.109343
0.117232
0.108766
0.108943
0.109049
0.109141
0.109199
0.109267
0.1093
0.109313
0.109331
0.109324
0.109329
0.114028
0.109051
0.108621
0.108944
0.109012
0.109084
0.109124
0.109164
0.109211
0.109222
0.109231
0.109234
0.130272
0.109052
0.108769
0.10883
0.108823
0.108998
0.109021
0.109037
0.109091
0.109077
0.109094
0.127721
0.121746
0.108863
0.108718
0.108709
0.108743
0.108899
0.108885
0.10892
0.108923
0.118795
0.119924
0.108709
0.108639
0.108522
0.108669
0.108598
0.108626
0.111552
0.116784
0.119253
0.10869
0.10851
0.108585
0.10858
0.124807
0.120593
0.120246
0.119556
0.109859
0.107515
0.107431
0.107733
0.107822
0.108002
0.108095
0.108177
0.108212
0.108213
0.108194
0.108165
0.108137
0.108115
0.108104
0.110286
0.107533
0.107412
0.107734
0.107809
0.107996
0.108087
0.108172
0.10821
0.108216
0.108199
0.108173
0.108147
0.108126
0.108115
0.111758
0.107431
0.107475
0.107684
0.107815
0.107971
0.108079
0.108162
0.10821
0.108221
0.108211
0.108189
0.108166
0.108147
0.108137
0.107628
0.107368
0.107708
0.107777
0.107957
0.108056
0.108147
0.1082
0.108223
0.108221
0.108206
0.108189
0.108173
0.108164
0.116123
0.107487
0.107564
0.107756
0.107899
0.108023
0.108116
0.10818
0.108215
0.108227
0.108221
0.108211
0.108199
0.108192
0.110372
0.107605
0.107534
0.107756
0.10786
0.107988
0.108078
0.108147
0.108191
0.108215
0.108223
0.10822
0.108215
0.108211
0.118231
0.107566
0.107593
0.107821
0.107909
0.108024
0.10809
0.108148
0.10818
0.1082
0.10821
0.10821
0.10821
0.110609
0.107707
0.107609
0.107756
0.107859
0.107954
0.108024
0.108079
0.108116
0.108148
0.108162
0.108172
0.108176
0.116062
0.107567
0.107712
0.107773
0.107861
0.10791
0.10799
0.108025
0.108057
0.10808
0.108087
0.108095
0.112878
0.107862
0.107419
0.107712
0.107758
0.107823
0.107862
0.1079
0.107958
0.107972
0.107996
0.108001
0.12901
0.107863
0.107568
0.107612
0.107595
0.107758
0.107758
0.107779
0.107815
0.10781
0.107821
0.126493
0.120545
0.107708
0.107568
0.107537
0.107566
0.10771
0.107684
0.107734
0.107732
0.117643
0.118808
0.107607
0.107489
0.107371
0.107476
0.107413
0.10743
0.110494
0.115689
0.118163
0.107631
0.107431
0.107533
0.107514
0.123694
0.119494
0.119166
0.118489
0.108846
0.106462
0.106313
0.106599
0.106628
0.10681
0.106886
0.106992
0.107049
0.107095
0.107109
0.107112
0.107106
0.1071
0.107098
0.109272
0.106488
0.106301
0.106604
0.10662
0.106805
0.106878
0.106985
0.107042
0.107091
0.107108
0.107113
0.107108
0.107103
0.1071
0.110721
0.106374
0.106358
0.106549
0.106622
0.106776
0.106864
0.106965
0.107029
0.107081
0.107104
0.107113
0.107112
0.107108
0.107105
0.106576
0.106273
0.106579
0.106598
0.106764
0.106842
0.106945
0.107008
0.107064
0.107094
0.107109
0.107112
0.107112
0.10711
0.115055
0.106387
0.106447
0.106577
0.106706
0.106805
0.106904
0.106974
0.107033
0.10707
0.107093
0.107103
0.107107
0.107107
0.109329
0.106524
0.106419
0.106592
0.106672
0.106776
0.106864
0.106934
0.106993
0.107033
0.107064
0.10708
0.10709
0.107093
0.117123
0.106461
0.106441
0.10664
0.106698
0.106807
0.106867
0.106935
0.106974
0.107009
0.107029
0.107041
0.107047
0.109531
0.106592
0.106464
0.106584
0.106662
0.106745
0.106807
0.106865
0.106904
0.106946
0.106965
0.106985
0.106991
0.114939
0.10643
0.106558
0.106585
0.106663
0.106699
0.106777
0.106806
0.106843
0.106865
0.106878
0.106885
0.111767
0.106725
0.106287
0.106559
0.106585
0.106641
0.106674
0.106707
0.106766
0.106777
0.106806
0.106809
0.127822
0.106726
0.106431
0.106465
0.106442
0.106594
0.106579
0.1066
0.106623
0.106621
0.106628
0.125326
0.119399
0.106593
0.106462
0.106421
0.106448
0.10658
0.10655
0.106604
0.106598
0.116528
0.117716
0.106525
0.106389
0.106275
0.106359
0.106301
0.106312
0.109441
0.114612
0.117088
0.106577
0.106374
0.106488
0.106461
0.122603
0.118417
0.1181
0.117434
0.107828
0.105418
0.105232
0.105493
0.105478
0.105643
0.105694
0.1058
0.105856
0.10592
0.105958
0.105983
0.105994
0.106
0.106002
0.108252
0.105447
0.105223
0.1055
0.105473
0.10564
0.105687
0.105792
0.105848
0.105912
0.105951
0.105978
0.105991
0.105997
0.105999
0.109686
0.105329
0.105277
0.105445
0.105475
0.105611
0.105673
0.10577
0.105831
0.105895
0.105937
0.105967
0.105982
0.10599
0.105993
0.10553
0.105206
0.10548
0.105461
0.105603
0.105656
0.105751
0.105809
0.105871
0.105914
0.105949
0.105967
0.105977
0.105981
0.113997
0.105316
0.105355
0.105442
0.105549
0.105621
0.10571
0.105771
0.105834
0.105877
0.105913
0.105936
0.10595
0.105956
0.108287
0.105459
0.10533
0.105467
0.105523
0.105601
0.105676
0.105734
0.105793
0.105834
0.105871
0.105894
0.105911
0.105919
0.116039
0.105378
0.105327
0.105499
0.105531
0.105624
0.105671
0.105735
0.105771
0.105809
0.105831
0.105848
0.105855
0.108466
0.105504
0.105356
0.105454
0.105509
0.105577
0.105624
0.105676
0.10571
0.105752
0.10577
0.105792
0.105798
0.113843
0.105329
0.105442
0.105445
0.105509
0.105531
0.105602
0.105621
0.105657
0.105673
0.105687
0.105692
0.11068
0.105623
0.105193
0.105442
0.105455
0.105499
0.105524
0.10555
0.105604
0.105611
0.10564
0.105642
0.126675
0.105624
0.105329
0.105357
0.105328
0.105468
0.105443
0.105462
0.105476
0.105473
0.105477
0.124197
0.118287
0.105504
0.105379
0.105332
0.105356
0.10548
0.105446
0.1055
0.105492
0.115437
0.116638
0.10546
0.105317
0.105207
0.105278
0.105223
0.10523
0.108392
0.113546
0.116024
0.105531
0.105329
0.105447
0.105417
0.121528
0.117355
0.117044
0.116384
0.106811
0.104384
0.104172
0.104405
0.104355
0.104492
0.104516
0.104605
0.104651
0.104713
0.104756
0.104795
0.104818
0.104832
0.104838
0.107232
0.104414
0.104169
0.104414
0.104355
0.104492
0.104512
0.104599
0.104644
0.104705
0.104748
0.104788
0.104811
0.104825
0.104831
0.108658
0.104298
0.104221
0.104363
0.104359
0.104466
0.104501
0.10458
0.104628
0.104687
0.104729
0.10477
0.104795
0.10481
0.104817
0.104493
0.104161
0.104401
0.104353
0.104464
0.104491
0.104566
0.104609
0.104665
0.104705
0.104744
0.104769
0.104787
0.104794
0.112949
0.104265
0.10428
0.104337
0.104417
0.104461
0.10453
0.104575
0.10463
0.104668
0.104705
0.104729
0.104747
0.104755
0.107251
0.104408
0.104261
0.104368
0.1044
0.104451
0.104506
0.104548
0.104596
0.10463
0.104665
0.104687
0.104704
0.104712
0.114972
0.104309
0.10424
0.104383
0.104394
0.104466
0.104496
0.104548
0.104576
0.10461
0.104628
0.104643
0.104649
0.107413
0.104435
0.104273
0.104354
0.104385
0.104435
0.104465
0.104506
0.104531
0.104566
0.10458
0.104599
0.104604
0.112764
0.104254
0.10435
0.104338
0.104385
0.104394
0.104452
0.104461
0.104491
0.104501
0.104511
0.104514
0.109609
0.104547
0.104128
0.10435
0.104354
0.104383
0.1044
0.104417
0.104464
0.104466
0.104491
0.104491
0.125555
0.104549
0.104255
0.104274
0.104241
0.104369
0.104338
0.104354
0.104358
0.104354
0.104354
0.123095
0.117197
0.104435
0.10431
0.104262
0.104281
0.104401
0.104363
0.104414
0.104404
0.114363
0.115569
0.104409
0.104265
0.104162
0.104221
0.104168
0.104172
0.107348
0.11249
0.114969
0.104493
0.104298
0.104413
0.104383
0.120468
0.116305
0.115995
0.115339
0.105797
0.103363
0.10313
0.103331
0.103251
0.103351
0.103347
0.10341
0.103438
0.103487
0.103524
0.103564
0.103592
0.103612
0.103621
0.106217
0.103391
0.103133
0.103341
0.103254
0.103352
0.103346
0.103407
0.103433
0.103481
0.103517
0.103555
0.103583
0.103602
0.103612
0.107639
0.103285
0.103185
0.103298
0.103261
0.103333
0.10334
0.103393
0.103421
0.103466
0.1035
0.103536
0.103564
0.103583
0.103592
0.10347
0.103139
0.103336
0.103266
0.103337
0.103337
0.103385
0.103409
0.10345
0.10348
0.103512
0.103536
0.103554
0.103563
0.111915
0.103232
0.10322
0.103253
0.103298
0.103316
0.103359
0.103385
0.103423
0.10345
0.103479
0.1035
0.103516
0.103524
0.106226
0.103373
0.103206
0.10329
0.103293
0.103317
0.103347
0.103369
0.103401
0.103423
0.10345
0.103466
0.10348
0.103486
0.113923
0.10325
0.103174
0.103284
0.103276
0.103321
0.103334
0.103369
0.103385
0.103409
0.103421
0.103433
0.103437
0.106371
0.103382
0.103212
0.103275
0.10328
0.103312
0.103321
0.103348
0.103359
0.103385
0.103393
0.103406
0.103409
0.111697
0.103203
0.103276
0.103256
0.10328
0.103276
0.103318
0.103316
0.103337
0.103339
0.103346
0.103346
0.108551
0.103494
0.10309
0.103276
0.103276
0.103284
0.103294
0.103298
0.103337
0.103333
0.103351
0.103349
0.124451
0.103497
0.103204
0.103212
0.103175
0.10329
0.103253
0.103266
0.103261
0.103253
0.10325
0.122009
0.116122
0.103381
0.103252
0.103207
0.103221
0.103337
0.103298
0.10334
0.10333
0.113305
0.11451
0.103373
0.103233
0.103139
0.103185
0.103132
0.10313
0.106313
0.111444
0.113924
0.10347
0.103285
0.103391
0.103363
0.119421
0.115267
0.114954
0.114299
0.104792
0.102363
0.102102
0.102267
0.102156
0.102211
0.10218
0.10221
0.102218
0.102247
0.102273
0.102303
0.10233
0.102351
0.102361
0.105211
0.102388
0.102113
0.102278
0.102165
0.102215
0.102182
0.10221
0.102217
0.102244
0.102268
0.102296
0.102321
0.102341
0.102351
0.106635
0.102301
0.102171
0.10225
0.102178
0.102206
0.102182
0.102203
0.10221
0.102234
0.102256
0.102281
0.102303
0.10232
0.102329
0.102474
0.102144
0.102287
0.102194
0.102216
0.102189
0.102203
0.102206
0.102226
0.102242
0.102264
0.102281
0.102295
0.102303
0.110899
0.102222
0.102174
0.102185
0.102188
0.102178
0.102189
0.102193
0.10221
0.102224
0.102242
0.102255
0.102267
0.102273
0.105217
0.102359
0.102165
0.102226
0.102197
0.102192
0.102193
0.102191
0.102203
0.102211
0.102226
0.102234
0.102243
0.102247
0.112891
0.102201
0.102126
0.102196
0.10217
0.102184
0.102178
0.102192
0.102193
0.102206
0.10221
0.102216
0.102217
0.105341
0.102345
0.10217
0.102213
0.10219
0.102198
0.102184
0.102193
0.102189
0.102203
0.102203
0.102209
0.102209
0.110639
0.102179
0.102221
0.102193
0.102191
0.10217
0.102192
0.102178
0.102189
0.102182
0.102182
0.102179
0.107505
0.102466
0.102084
0.102221
0.102213
0.102197
0.102197
0.102188
0.102216
0.102205
0.102214
0.10221
0.123343
0.10247
0.10218
0.10217
0.102127
0.102226
0.102185
0.102193
0.102178
0.102164
0.102155
0.120936
0.115059
0.102345
0.102202
0.102166
0.102175
0.102286
0.10225
0.102277
0.102267
0.112265
0.113459
0.102359
0.102222
0.102144
0.102171
0.102113
0.102102
0.105288
0.110407
0.112893
0.102474
0.102301
0.102388
0.102363
0.11839
0.114242
0.113921
0.113264
0.103802
0.101393
0.101086
0.101211
0.101063
0.101066
0.101007
0.101001
0.100987
0.100993
0.101005
0.101022
0.101042
0.101059
0.101071
0.10422
0.10142
0.101107
0.101225
0.101077
0.101074
0.101014
0.101004
0.100989
0.100993
0.101003
0.101018
0.101035
0.10105
0.10106
0.105656
0.101367
0.101185
0.10122
0.101103
0.101079
0.101021
0.101006
0.10099
0.10099
0.100997
0.101009
0.101023
0.101035
0.101042
0.101528
0.101188
0.101253
0.101132
0.101097
0.101038
0.101015
0.100995
0.100991
0.100992
0.101001
0.101009
0.101018
0.101023
0.109911
0.101242
0.101142
0.101129
0.10108
0.101039
0.101015
0.100995
0.100989
0.100987
0.100992
0.100997
0.101002
0.101005
0.104236
0.101376
0.101139
0.101176
0.101106
0.101069
0.101035
0.10101
0.100998
0.100989
0.10099
0.10099
0.100992
0.100993
0.111887
0.101165
0.101095
0.101117
0.10107
0.101048
0.101019
0.10101
0.100996
0.100994
0.100989
0.100988
0.100986
0.104329
0.101324
0.101151
0.101165
0.101111
0.101086
0.101048
0.101035
0.101015
0.101015
0.101006
0.101003
0.101001
0.109592
0.101187
0.101187
0.101145
0.10111
0.101069
0.101068
0.101039
0.101037
0.10102
0.101012
0.101006
0.106472
0.101488
0.101121
0.101187
0.101165
0.101116
0.101106
0.10108
0.101096
0.101078
0.101073
0.101066
0.122226
0.101486
0.101186
0.101151
0.101095
0.101175
0.101128
0.101132
0.101102
0.101076
0.101063
0.11987
0.114009
0.101325
0.101165
0.101139
0.101141
0.101252
0.10122
0.101224
0.101212
0.11125
0.112422
0.101375
0.101241
0.101187
0.101184
0.101106
0.101086
0.10428
0.109383
0.11188
0.101527
0.101366
0.101418
0.101393
0.117384
0.113238
0.112901
0.112234
0.102827
0.100472
0.100072
0.100166
0.0999612
0.0999091
0.0998174
0.0997782
0.099741
0.0997246
0.0997233
0.0997269
0.0997369
0.099747
0.0997557
0.103249
0.100507
0.100107
0.100186
0.0999781
0.0999196
0.0998275
0.099784
0.0997457
0.099727
0.0997237
0.0997252
0.099733
0.0997412
0.0997475
0.104716
0.100519
0.10023
0.100214
0.100027
0.0999435
0.0998463
0.099796
0.0997548
0.0997319
0.0997248
0.0997233
0.0997281
0.0997334
0.0997375
0.100677
0.100281
0.100241
0.100076
0.09997
0.0998725
0.0998137
0.0997691
0.0997412
0.0997291
0.0997234
0.0997236
0.0997253
0.0997275
0.108971
0.100306
0.100127
0.10008
0.0999672
0.0998887
0.0998285
0.0997849
0.0997547
0.0997358
0.0997289
0.0997248
0.0997235
0.0997236
0.103303
0.100442
0.100127
0.100137
0.100013
0.0999379
0.0998661
0.0998157
0.0997804
0.099755
0.0997415
0.0997317
0.0997265
0.0997244
0.110931
0.100144
0.100082
0.100039
0.0999652
0.0999031
0.0998497
0.099816
0.0997853
0.099769
0.0997542
0.0997449
0.0997406
0.103345
0.100325
0.100162
0.100129
0.100035
0.0999693
0.0999031
0.0998663
0.0998286
0.0998133
0.0997953
0.099783
0.0997775
0.108551
0.10024
0.10018
0.10011
0.100034
0.099965
0.0999374
0.0998879
0.0998713
0.0998452
0.0998263
0.0998169
0.105451
0.100608
0.10022
0.10018
0.100128
0.100038
0.100012
0.0999659
0.099969
0.0999428
0.0999186
0.0999091
0.12103
0.100601
0.100239
0.100161
0.100081
0.100136
0.100079
0.100074
0.100025
0.099977
0.0999614
0.11881
0.112972
0.100325
0.100144
0.100126
0.100126
0.100239
0.100213
0.100185
0.100166
0.110278
0.111406
0.100442
0.100306
0.10028
0.100229
0.100106
0.100072
0.103302
0.108379
0.1109
0.100676
0.100518
0.100505
0.100471
0.11641
0.112264
0.111899
0.111208
0.101876
0.0996266
0.0990199
0.0991492
0.0988062
0.0987621
0.0986004
0.0985415
0.0984756
0.0984381
0.0984275
0.0984193
0.0984205
0.0984239
0.0984269
0.102298
0.0996825
0.0990747
0.0991658
0.0988352
0.0987721
0.0986153
0.0985492
0.0984837
0.0984432
0.0984307
0.0984202
0.0984198
0.0984213
0.0984235
0.103834
0.0998306
0.099285
0.0992443
0.0989276
0.0988102
0.0986553
0.0985709
0.0985024
0.0984554
0.0984379
0.0984243
0.0984213
0.0984201
0.0984208
0.10001
0.0994337
0.0992469
0.0990125
0.0988353
0.0986971
0.0985952
0.0985261
0.0984727
0.0984494
0.0984322
0.0984247
0.0984201
0.0984194
0.108107
0.0994152
0.0991075
0.0990176
0.0988334
0.0987295
0.0986234
0.0985567
0.0985002
0.0984655
0.0984496
0.0984378
0.0984303
0.0984276
0.102461
0.0995925
0.0990981
0.0991259
0.0989005
0.0987982
0.0986782
0.0986032
0.0985428
0.0985005
0.0984731
0.0984549
0.0984428
0.0984384
0.110052
0.099139
0.0990689
0.0989557
0.0988463
0.0987406
0.098662
0.0986036
0.0985567
0.0985254
0.0985016
0.0984827
0.0984756
0.10242
0.0993589
0.099209
0.0990996
0.0989506
0.0988373
0.0987405
0.0986782
0.0986229
0.0985946
0.09857
0.0985482
0.098541
0.10751
0.0993494
0.0991985
0.0990762
0.0989501
0.098846
0.0987977
0.0987286
0.0986961
0.098654
0.0986142
0.0986003
0.104423
0.0999254
0.0994159
0.0991996
0.0990989
0.0989551
0.0988997
0.0988322
0.0988339
0.0988088
0.098771
0.0987623
0.119575
0.0999331
0.0993501
0.0992093
0.0990681
0.099125
0.0990161
0.0990109
0.0989261
0.0988336
0.0988067
0.117752
0.112024
0.0993597
0.0991382
0.0990973
0.0991064
0.0992456
0.0992421
0.0991637
0.0991492
0.10938
0.110431
0.0995925
0.0994142
0.0994321
0.099283
0.0990721
0.0990202
0.102384
0.107405
0.109978
0.100009
0.0998283
0.0996784
0.0996263
0.115473
0.111335
0.110917
0.110179
0.100963
0.0988897
0.0979074
0.0981186
0.0976073
0.0975789
0.0973512
0.0972878
0.0971951
0.0971516
0.0971208
0.0971029
0.0970951
0.0970946
0.0970945
0.101373
0.0989819
0.0979743
0.0981258
0.097643
0.0975846
0.0973686
0.0972951
0.0972049
0.097158
0.097126
0.0971057
0.0970972
0.097093
0.0970939
0.103066
0.0994196
0.098369
0.0982912
0.0978012
0.0976467
0.097432
0.0973261
0.0972339
0.0971763
0.0971402
0.0971154
0.0971042
0.0970972
0.0970954
0.0996968
0.0986771
0.0982496
0.0979309
0.0976637
0.0974865
0.0973533
0.0972648
0.0971984
0.0971596
0.0971302
0.0971156
0.0971057
0.0971025
0.107346
0.0985394
0.0980667
0.0979327
0.0976678
0.0975359
0.097393
0.0973094
0.097237
0.0971934
0.0971597
0.09714
0.0971257
0.0971206
0.101798
0.0988713
0.0980636
0.0981022
0.0977598
0.0976279
0.0974645
0.0973695
0.0972886
0.0972371
0.097198
0.0971757
0.0971574
0.0971514
0.109307
0.0981372
0.0980598
0.0978466
0.0977013
0.0975511
0.0974512
0.0973695
0.097309
0.0972637
0.0972329
0.0972037
0.0971947
0.101641
0.0984505
0.0982488
0.0980589
0.0978309
0.0976857
0.0975512
0.0974641
0.0973918
0.0973519
0.0973247
0.0972938
0.0972871
0.106488
0.0984927
0.0981367
0.0979959
0.0978302
0.0977007
0.0976266
0.0975345
0.0974849
0.0974306
0.0973673
0.0973512
0.103265
0.099639
0.0986312
0.0981367
0.0980586
0.0978456
0.0977587
0.0976661
0.0976618
0.0976446
0.0975827
0.0975785
0.117569
0.0996437
0.0984932
0.0982482
0.098059
0.0981008
0.0979307
0.0979286
0.0977989
0.097641
0.0976077
0.11657
0.111041
0.0984516
0.0981368
0.0980634
0.0980651
0.0982474
0.0982877
0.0981217
0.0981182
0.108614
0.109575
0.098872
0.0985378
0.0986749
0.0983659
0.0979707
0.0979075
0.101633
0.106523
0.109158
0.0996938
0.0994147
0.098973
0.0988897
0.114551
0.110511
0.109983
0.109145
0.100168
0.0982832
0.0966804
0.0970487
0.0963471
0.0963493
0.096064
0.0960049
0.095892
0.0958472
0.0958066
0.0957844
0.0957719
0.0957655
0.0957629
0.100538
0.0983318
0.0967646
0.0970208
0.0963788
0.0963454
0.09608
0.0960102
0.0959019
0.0958533
0.0958124
0.0957883
0.095775
0.0957669
0.0957641
0.102595
0.0995061
0.0974536
0.0973083
0.0966332
0.0964366
0.0961717
0.0960503
0.0959407
0.095876
0.0958317
0.0958018
0.0957859
0.095775
0.0957711
0.0999737
0.0979756
0.0971596
0.0967932
0.0964323
0.0962296
0.0960751
0.0959739
0.0958994
0.0958541
0.0958193
0.0958016
0.0957881
0.0957833
0.106715
0.0975944
0.0969631
0.0968003
0.096449
0.0962978
0.0961251
0.096031
0.0959459
0.0958962
0.095854
0.0958315
0.095812
0.0958055
0.101565
0.0983037
0.0969878
0.0970407
0.0965719
0.096409
0.0962105
0.0960996
0.0960038
0.0959455
0.0958992
0.0958754
0.0958523
0.0958461
0.108777
0.0971484
0.0970869
0.0967188
0.0965247
0.0963223
0.0962025
0.096099
0.0960303
0.0959729
0.0959392
0.0959006
0.0958911
0.1013
0.0976738
0.0973532
0.097115
0.0967083
0.09651
0.0963219
0.0962094
0.0961237
0.0960732
0.0960483
0.0960084
0.0960035
0.105717
0.0982221
0.0972187
0.0970253
0.0967063
0.0965234
0.096407
0.0962956
0.0962273
0.0961697
0.0960786
0.0960635
0.101999
0.100487
0.0987334
0.0972199
0.097115
0.0967171
0.0965706
0.0964469
0.0964301
0.0964341
0.0963421
0.0963478
0.114179
0.100474
0.0982213
0.0973516
0.0970859
0.0970388
0.096798
0.0967905
0.0966298
0.0963762
0.0963471
0.114899
0.109737
0.0976744
0.0971477
0.0969881
0.0969613
0.0971561
0.0973042
0.097014
0.0970474
0.108077
0.109037
0.0983064
0.0975927
0.0979724
0.0974487
0.09676
0.0966808
0.10145
0.105994
0.108499
0.0999696
0.0994962
0.0983175
0.0982832
0.113555
0.110076
0.109156
0.108102
0.0999207
0.0977246
0.0953049
0.0958967
0.0950212
0.0950614
0.094738
0.0946897
0.0945673
0.0945261
0.094482
0.0944596
0.0944453
0.0944374
0.0944347
0.100232
0.0976183
0.095353
0.0958138
0.0950299
0.095045