/*--------------------------------*- C++ -*----------------------------------*\
| =========                 |                                                 |
| \\      /  F ield         | OpenFOAM: The Open Source CFD Toolbox           |
|  \\    /   O peration     | Version:  2.1.1                                 |
|   \\  /    A nd           | Web:      www.OpenFOAM.org                      |
|    \\/     M anipulation  |                                                 |
\*---------------------------------------------------------------------------*/
FoamFile
{
    version     2.0;
    format      ascii;
    class       volScalarField;
    location    "0.0015";
    object      p;
}
// * * * * * * * * * * * * * * * * * * * * * * * * * * * * * * * * * * * * * //

dimensions      [0 2 -2 0 0 0 0];

internalField   nonuniform List<scalar> 
10156
(
0.0521866
0.052187
0.0521839
0.0521851
0.0521782
0.0521824
0.0521693
0.052182
0.0521557
0.0521906
0.0521297
0.0522204
0.0520759
0.0522821
0.0630445
0.052187
0.0521872
0.0521842
0.0521852
0.0521785
0.0521826
0.05217
0.0521822
0.052157
0.0521917
0.0521319
0.0522271
0.0520701
0.0523115
0.0633762
0.0521842
0.0521844
0.0521816
0.0521826
0.0521764
0.0521799
0.0521687
0.0521784
0.052158
0.0521818
0.0521402
0.052193
0.0521146
0.052195
0.061495
0.0521853
0.0521854
0.0521826
0.0521833
0.0521775
0.0521805
0.0521707
0.0521795
0.0521613
0.052186
0.0521424
0.0522201
0.0520677
0.0523874
0.0642519
0.0521786
0.0521788
0.0521766
0.0521776
0.0521728
0.0521757
0.0521674
0.0521737
0.052161
0.0521713
0.052155
0.052151
0.0521779
0.0683846
0.0585022
0.0521828
0.0521828
0.05218
0.0521806
0.0521758
0.0521776
0.0521714
0.0521755
0.0521677
0.052173
0.0521799
0.0521411
0.0523116
0.0616369
0.0521698
0.0521703
0.052169
0.0521709
0.0521675
0.0521714
0.0521645
0.052172
0.05216
0.0521826
0.0521243
0.0522163
0.0699177
0.0575739
0.0521823
0.0521824
0.0521786
0.0521797
0.0521739
0.0521756
0.0521722
0.0521741
0.0521658
0.052174
0.0521351
0.0523176
0.062737
0.0521563
0.0521573
0.0521582
0.0521615
0.0521611
0.0521678
0.05216
0.0521656
0.0521747
0.0521873
0.0521763
0.0701099
0.0591754
0.0521911
0.052192
0.0521821
0.0521863
0.0521717
0.0521734
0.0521835
0.0521748
0.0521926
0.0520207
0.0523884
0.0656917
0.0521303
0.0521324
0.0521407
0.0521428
0.0521551
0.0521805
0.0521237
0.0521386
0.0521743
0.0524237
0.0737344
0.052221
0.0522277
0.0521935
0.0522206
0.0521514
0.0521415
0.0522165
0.0523177
0.0701117
0.0656866
0.0520768
0.0520709
0.0521153
0.0520684
0.0521783
0.052312
0.0699179
0.0627376
0.0591744
0.052283
0.0523123
0.0521958
0.0523881
0.0683852
0.0616373
0.0575742
0.0630458
0.0633776
0.0614963
0.0642528
0.0585028
0.0511099
0.0511103
0.0511075
0.0511091
0.0511026
0.0511075
0.0510948
0.0511083
0.0510821
0.0511186
0.0510553
0.0511485
0.0510034
0.0512111
0.0619722
0.0511103
0.0511107
0.0511079
0.0511094
0.0511031
0.0511077
0.0510955
0.0511086
0.0510834
0.0511193
0.0510552
0.0511518
0.0510031
0.0512411
0.0623042
0.0511078
0.0511081
0.0511055
0.0511069
0.0511012
0.0511053
0.0510945
0.0511049
0.0510847
0.0511096
0.0510664
0.0511211
0.0510423
0.0511237
0.0604229
0.0511093
0.0511095
0.0511069
0.051108
0.0511026
0.0511061
0.0510968
0.0511061
0.051088
0.051114
0.0510691
0.0511482
0.0509952
0.0513156
0.0631802
0.0511031
0.0511034
0.0511013
0.0511027
0.0510982
0.0511017
0.0510937
0.0511006
0.0510883
0.0510988
0.0510827
0.051079
0.0511053
0.0673133
0.0574303
0.0511078
0.051108
0.0511054
0.0511062
0.0511017
0.0511039
0.0510981
0.0511026
0.0510947
0.0511009
0.0511072
0.0510691
0.0512391
0.0605649
0.0510953
0.0510959
0.0510947
0.0510969
0.0510938
0.0510981
0.0510913
0.0510995
0.0510873
0.0511106
0.0510517
0.0511442
0.0688457
0.0565017
0.0511087
0.0511088
0.051105
0.0511062
0.0511008
0.0511028
0.0510997
0.0511017
0.0510932
0.0511021
0.0510631
0.0512457
0.0616649
0.0510825
0.0510836
0.0510849
0.0510881
0.0510883
0.0510949
0.0510873
0.0510931
0.0511026
0.0511163
0.0511074
0.0690387
0.0581033
0.0511189
0.0511195
0.0511098
0.0511142
0.0510992
0.0511012
0.0511112
0.0511024
0.0511167
0.0509494
0.0513457
0.064623
0.051056
0.0510556
0.0510668
0.0510696
0.0510828
0.0511076
0.0510513
0.0510638
0.0511032
0.0513238
0.072667
0.0511492
0.0511524
0.0511217
0.0511488
0.0510795
0.0510695
0.0511444
0.0512457
0.0690429
0.064624
0.0510044
0.051004
0.0510432
0.050996
0.0511058
0.0512396
0.0688461
0.0616653
0.0581031
0.0512122
0.0512422
0.0511248
0.0513164
0.0673139
0.0605654
0.056502
0.0619736
0.0623059
0.0604245
0.0631813
0.0574311
0.0500337
0.0500341
0.0500315
0.0500334
0.0500273
0.0500327
0.0500203
0.0500349
0.0500082
0.0500468
0.0499824
0.0500773
0.049929
0.0501381
0.0608993
0.0500341
0.0500346
0.050032
0.0500338
0.0500279
0.050033
0.0500212
0.0500352
0.0500095
0.0500481
0.0499878
0.0500837
0.0499215
0.0501669
0.0612316
0.0500318
0.0500323
0.0500299
0.0500316
0.0500262
0.0500308
0.0500204
0.0500315
0.0500113
0.0500376
0.049994
0.0500499
0.0499679
0.0500512
0.0593504
0.0500336
0.0500339
0.0500316
0.0500329
0.0500279
0.0500318
0.0500229
0.0500328
0.0500145
0.0500417
0.049996
0.0500762
0.0499223
0.0502433
0.062108
0.0500278
0.0500282
0.0500264
0.0500281
0.0500239
0.0500277
0.0500201
0.0500274
0.0500154
0.0500264
0.0500101
0.0500068
0.0500326
0.0662415
0.0563581
0.050033
0.0500332
0.0500309
0.0500319
0.0500277
0.0500302
0.0500247
0.0500295
0.0500217
0.0500283
0.0500343
0.0499969
0.0501665
0.0594927
0.0500209
0.0500216
0.0500206
0.0500229
0.0500202
0.0500247
0.050018
0.0500269
0.0500144
0.0500385
0.0499789
0.050072
0.0677736
0.0554294
0.0500352
0.0500353
0.0500315
0.0500329
0.0500275
0.0500297
0.050027
0.0500287
0.0500204
0.0500296
0.0499902
0.0501734
0.0605926
0.0500085
0.0500096
0.0500113
0.0500145
0.0500154
0.0500217
0.0500144
0.0500203
0.0500303
0.0500434
0.0500335
0.0679671
0.0570314
0.0500469
0.050048
0.0500376
0.0500418
0.0500266
0.0500286
0.0500388
0.0500299
0.0500439
0.0498774
0.0502582
0.0635517
0.0499829
0.0499879
0.0499941
0.0499963
0.0500103
0.0500346
0.0499789
0.0499904
0.0500338
0.0502646
0.0715953
0.050078
0.0500841
0.0500504
0.0500768
0.0500073
0.0499973
0.0500722
0.0501737
0.0679718
0.0635549
0.0499303
0.0499229
0.0499692
0.0499233
0.0500332
0.050167
0.0677741
0.0605931
0.0570318
0.0501396
0.0501686
0.0500527
0.0502444
0.0662423
0.0594932
0.0554297
0.0609011
0.0612337
0.0593523
0.0621094
0.056359
0.0489578
0.0489583
0.0489559
0.0489579
0.0489523
0.048958
0.0489461
0.0489615
0.048934
0.0489739
0.0489076
0.0490047
0.0488568
0.049067
0.0598269
0.0489583
0.0489588
0.0489564
0.0489584
0.0489529
0.0489584
0.048947
0.0489617
0.0489355
0.0489737
0.0489051
0.049009
0.0488594
0.049097
0.0601591
0.0489562
0.0489567
0.0489546
0.0489565
0.0489515
0.0489564
0.0489465
0.0489582
0.0489377
0.0489649
0.0489194
0.0489776
0.0488962
0.0489796
0.0582777
0.0489581
0.0489585
0.0489564
0.0489579
0.0489534
0.0489575
0.0489489
0.0489595
0.0489408
0.0489691
0.0489227
0.0490039
0.0488495
0.0491711
0.0610357
0.0489528
0.0489533
0.0489517
0.0489535
0.0489497
0.0489538
0.0489466
0.0489541
0.0489425
0.0489538
0.0489374
0.0489345
0.0489598
0.0651695
0.0552858
0.0489582
0.0489585
0.0489564
0.0489576
0.0489538
0.0489565
0.0489514
0.0489563
0.0489488
0.0489555
0.0489614
0.0489245
0.0490938
0.0584203
0.0489466
0.0489473
0.0489466
0.048949
0.0489467
0.0489513
0.0489448
0.0489541
0.0489416
0.0489662
0.048906
0.0489996
0.0667013
0.0543569
0.0489616
0.0489617
0.0489581
0.0489595
0.0489542
0.0489563
0.048954
0.0489556
0.0489477
0.0489569
0.0489175
0.049101
0.0595203
0.048934
0.048935
0.0489373
0.0489407
0.0489425
0.0489486
0.0489413
0.0489475
0.0489578
0.048971
0.0489612
0.0668949
0.055959
0.0489736
0.0489725
0.0489642
0.048969
0.0489539
0.0489557
0.0489664
0.0489571
0.0489712
0.0488051
0.0491893
0.0624786
0.0489075
0.0489035
0.0489188
0.0489228
0.0489375
0.0489617
0.0489062
0.0489176
0.0489612
0.0491886
0.0705234
0.0490051
0.049009
0.048978
0.0490044
0.048935
0.0489249
0.0489999
0.0491014
0.0669003
0.0624843
0.0488589
0.0488628
0.0488984
0.0488508
0.0489606
0.0490943
0.0667019
0.0595208
0.05596
0.0490695
0.0491001
0.0489819
0.0491725
0.0651705
0.0584209
0.0543573
0.0598291
0.0601619
0.0582803
0.0610375
0.0552869
0.0478817
0.0478825
0.0478804
0.0478825
0.0478773
0.0478833
0.0478718
0.0478881
0.0478604
0.0479023
0.0478356
0.0479336
0.0477819
0.0479927
0.0587538
0.0478825
0.0478831
0.047881
0.0478831
0.0478781
0.0478838
0.0478729
0.0478883
0.0478621
0.0479041
0.0478434
0.0479389
0.0477734
0.0480211
0.059086
0.0478807
0.0478813
0.0478794
0.0478814
0.0478769
0.047882
0.0478726
0.0478851
0.0478643
0.0478933
0.0478478
0.0479059
0.0478208
0.0479062
0.0572048
0.0478826
0.0478832
0.0478814
0.047883
0.047879
0.0478832
0.0478751
0.0478861
0.0478673
0.0478966
0.0478497
0.0479316
0.0477765
0.0480983
0.0599631
0.0478779
0.0478785
0.0478771
0.0478791
0.0478757
0.0478799
0.0478732
0.047881
0.0478694
0.0478812
0.0478647
0.0478621
0.047887
0.0640972
0.0542134
0.0478835
0.0478839
0.0478821
0.0478833
0.0478799
0.0478826
0.0478781
0.047883
0.0478757
0.0478827
0.0478885
0.047852
0.048021
0.0573478
0.0478722
0.0478731
0.0478727
0.0478752
0.0478732
0.0478781
0.0478715
0.047881
0.0478684
0.0478938
0.0478332
0.0479271
0.065629
0.0532845
0.0478881
0.0478882
0.0478849
0.0478861
0.0478811
0.0478831
0.0478812
0.0478827
0.0478748
0.0478842
0.0478448
0.0480286
0.0584478
0.04786
0.0478611
0.0478637
0.0478671
0.0478694
0.0478757
0.0478685
0.0478747
0.0478852
0.0478985
0.0478886
0.0658227
0.0548866
0.0479013
0.0479
0.0478918
0.0478964
0.0478813
0.0478829
0.0478939
0.0478844
0.0478987
0.0477326
0.0481163
0.0614066
0.0478343
0.0478308
0.0478455
0.0478496
0.0478648
0.0478888
0.0478334
0.0478449
0.0478888
0.0481163
0.0694513
0.047933
0.0479371
0.047906
0.047932
0.0478626
0.0478525
0.0479274
0.048029
0.0658281
0.0614118
0.0477853
0.0477888
0.0478251
0.047778
0.0478878
0.0480216
0.0656296
0.0584484
0.0548877
0.0479969
0.0480274
0.0479095
0.0481001
0.0640983
0.0573486
0.0532849
0.0587566
0.0590895
0.0572078
0.0599652
0.0542147
0.0468056
0.0468068
0.0468048
0.0468073
0.0468024
0.046809
0.0467974
0.0468147
0.0467863
0.0468296
0.0467618
0.0468611
0.0467089
0.0469204
0.0576808
0.0468069
0.0468077
0.0468058
0.0468081
0.0468034
0.0468096
0.0467986
0.0468151
0.0467881
0.0468311
0.046769
0.0468655
0.046702
0.046949
0.0580132
0.046805
0.0468059
0.0468041
0.0468065
0.0468022
0.046808
0.0467985
0.0468117
0.0467905
0.0468205
0.0467742
0.0468334
0.0467479
0.0468338
0.0561319
0.0468075
0.0468082
0.0468065
0.0468084
0.0468047
0.0468093
0.0468012
0.0468128
0.0467935
0.0468238
0.0467763
0.046859
0.0467035
0.0470258
0.0588903
0.0468028
0.0468037
0.0468024
0.0468047
0.0468015
0.0468062
0.0467995
0.0468078
0.0467962
0.0468084
0.0467918
0.0467895
0.0468142
0.0630247
0.0531408
0.0468093
0.0468098
0.0468081
0.0468093
0.0468062
0.046809
0.0468046
0.0468099
0.0468025
0.0468099
0.0468155
0.0467794
0.0469481
0.0562753
0.0467978
0.0467988
0.0467986
0.0468012
0.0467995
0.0468047
0.0467981
0.046808
0.0467953
0.0468211
0.0467603
0.0468545
0.0645564
0.0522119
0.0468149
0.046815
0.0468117
0.0468129
0.0468079
0.04681
0.0468081
0.0468099
0.0468019
0.0468115
0.046772
0.0469559
0.0573751
0.0467863
0.0467876
0.0467902
0.0467935
0.0467963
0.0468026
0.0467954
0.0468019
0.0468126
0.0468258
0.0468158
0.0647502
0.053814
0.0468295
0.0468301
0.04682
0.0468238
0.0468085
0.0468102
0.0468213
0.0468117
0.046826
0.0466599
0.0470434
0.060334
0.0467623
0.0467681
0.046774
0.0467766
0.0467921
0.0468158
0.0467606
0.0467721
0.0468162
0.0470437
0.0683789
0.0468616
0.046868
0.0468342
0.0468596
0.0467899
0.0467799
0.0468549
0.0469563
0.0647557
0.0603393
0.0467106
0.046703
0.0467496
0.0467048
0.0468149
0.0469487
0.064557
0.0573757
0.0538151
0.0469223
0.0469512
0.0468358
0.0470271
0.0630257
0.056276
0.0522123
0.0576831
0.0580161
0.0561346
0.0588922
0.053142
0.0457297
0.0457313
0.0457291
0.0457325
0.0457273
0.045735
0.0457229
0.0457414
0.0457118
0.0457559
0.0456869
0.0457872
0.0456371
0.0458497
0.0566084
0.0457314
0.0457326
0.0457305
0.0457336
0.0457286
0.0457358
0.0457242
0.0457418
0.0457134
0.0457554
0.0456859
0.0457913
0.0456389
0.0458796
0.056941
0.0457293
0.0457306
0.0457286
0.0457318
0.0457272
0.0457339
0.045724
0.0457383
0.0457162
0.0457467
0.0456989
0.0457604
0.0456767
0.0457624
0.0550595
0.0457328
0.0457338
0.0457319
0.0457343
0.0457303
0.0457357
0.0457271
0.0457397
0.0457198
0.0457508
0.0457027
0.0457862
0.0456307
0.0459534
0.0578177
0.0457276
0.0457288
0.0457273
0.0457304
0.0457268
0.0457324
0.0457254
0.0457345
0.0457227
0.0457354
0.0457187
0.0457166
0.0457412
0.0619521
0.052068
0.0457354
0.045736
0.0457341
0.0457358
0.0457324
0.0457357
0.045731
0.0457369
0.0457292
0.0457371
0.0457424
0.0457067
0.0458751
0.0552025
0.0457233
0.0457245
0.0457241
0.0457272
0.0457255
0.0457311
0.0457247
0.0457348
0.0457221
0.0457483
0.0456873
0.0457817
0.0634835
0.0511391
0.0457417
0.045742
0.0457384
0.0457398
0.0457347
0.045737
0.0457349
0.0457372
0.0457288
0.0457387
0.045699
0.0458831
0.0563023
0.0457121
0.0457134
0.0457163
0.0457199
0.0457228
0.0457294
0.0457222
0.0457288
0.0457399
0.045753
0.045743
0.0636775
0.0527412
0.0457562
0.0457554
0.0457468
0.0457509
0.0457356
0.0457373
0.0457485
0.0457389
0.0457531
0.0455871
0.0459707
0.0592614
0.0456875
0.0456861
0.0456993
0.0457031
0.0457191
0.0457427
0.0456876
0.0456991
0.0457433
0.0459707
0.0673063
0.045788
0.0457921
0.0457611
0.0457868
0.0457172
0.0457071
0.0457821
0.0458836
0.063683
0.0592667
0.0456383
0.0456401
0.0456778
0.0456316
0.0457419
0.0458756
0.0634841
0.0563028
0.0527424
0.045851
0.0458809
0.0457637
0.0459544
0.0619529
0.0552032
0.0511395
0.0566101
0.0569431
0.0550615
0.0578192
0.0520689
0.0446542
0.0446561
0.0446536
0.044658
0.0446521
0.0446613
0.0446482
0.044668
0.0446375
0.0446828
0.0446134
0.0447143
0.0445637
0.0447769
0.0555356
0.0446562
0.0446577
0.0446553
0.0446592
0.0446536
0.0446622
0.0446497
0.0446686
0.0446392
0.0446823
0.0446126
0.044719
0.044565
0.0448068
0.0558683
0.0446538
0.0446554
0.0446532
0.0446572
0.0446521
0.0446601
0.0446494
0.0446648
0.0446421
0.0446737
0.0446254
0.0446878
0.0446034
0.0446897
0.0539868
0.0446583
0.0446594
0.0446573
0.0446604
0.0446558
0.0446622
0.044653
0.0446666
0.044646
0.0446778
0.0446292
0.0447133
0.0445576
0.0448807
0.056745
0.0446524
0.0446538
0.0446522
0.0446559
0.0446519
0.0446585
0.044651
0.0446611
0.044649
0.0446623
0.0446456
0.0446438
0.0446682
0.0608795
0.0509951
0.0446617
0.0446624
0.0446603
0.0446624
0.0446586
0.0446626
0.044657
0.044664
0.0446558
0.0446642
0.0446691
0.0446338
0.044802
0.0541297
0.0446487
0.04465
0.0446496
0.0446532
0.0446513
0.0446577
0.0446511
0.0446614
0.0446486
0.0446754
0.0446141
0.0447088
0.0624105
0.0500662
0.0446684
0.0446689
0.0446651
0.0446668
0.0446613
0.0446642
0.0446616
0.0446644
0.0446556
0.0446658
0.0446259
0.0448103
0.0552294
0.044638
0.0446395
0.0446424
0.0446462
0.0446492
0.044656
0.0446488
0.0446556
0.0446671
0.04468
0.0446701
0.0626048
0.0516685
0.0446833
0.0446826
0.044674
0.0446781
0.0446626
0.0446645
0.0446756
0.044666
0.0446801
0.0445143
0.0448979
0.0581887
0.0446141
0.0446132
0.0446258
0.0446296
0.044646
0.0446694
0.0446144
0.044626
0.0446705
0.0448976
0.0662336
0.0447151
0.0447198
0.0446884
0.0447139
0.0446443
0.0446343
0.0447092
0.0448107
0.0626103
0.0581939
0.0445646
0.0445658
0.0446043
0.0445584
0.0446687
0.0448025
0.0624111
0.0552299
0.0516696
0.0447779
0.0448077
0.0446906
0.0448815
0.0608802
0.0541302
0.0500666
0.055537
0.05587
0.0539884
0.0567461
0.0509959
0.043579
0.043581
0.0435783
0.0435834
0.0435771
0.0435874
0.0435736
0.0435947
0.0435636
0.0436102
0.0435404
0.0436425
0.0434897
0.043703
0.0544624
0.0435811
0.0435828
0.0435803
0.0435849
0.0435788
0.0435885
0.0435752
0.0435953
0.0435655
0.043611
0.0435458
0.0436479
0.0434842
0.0437318
0.054795
0.0435785
0.0435803
0.0435779
0.0435827
0.0435771
0.0435862
0.0435748
0.0435915
0.0435683
0.0436012
0.0435529
0.0436153
0.0435289
0.0436162
0.0529137
0.0435837
0.043585
0.0435828
0.0435864
0.0435814
0.0435887
0.0435788
0.0435936
0.0435723
0.0436049
0.0435558
0.0436406
0.0434844
0.0438076
0.055672
0.0435774
0.043579
0.0435773
0.0435815
0.0435773
0.0435847
0.0435768
0.0435878
0.0435751
0.0435892
0.0435725
0.0435708
0.0435951
0.0598066
0.0499222
0.0435879
0.0435887
0.0435865
0.0435889
0.0435848
0.0435895
0.0435841
0.0435912
0.0435825
0.0435913
0.0435959
0.043561
0.0437289
0.0530568
0.043574
0.0435755
0.0435751
0.0435791
0.0435769
0.0435832
0.0435773
0.0435881
0.043575
0.0436024
0.0435409
0.0436359
0.0613376
0.0489932
0.0435952
0.0435957
0.0435919
0.0435939
0.043588
0.0435913
0.0435882
0.0435916
0.0435824
0.0435929
0.0435529
0.0437374
0.0541564
0.0435641
0.0435659
0.0435686
0.0435726
0.0435754
0.0435827
0.0435752
0.0435824
0.0435941
0.043607
0.0435971
0.0615318
0.0505955
0.0436107
0.0436115
0.0436016
0.0436053
0.0435895
0.0435916
0.0436026
0.0435931
0.0436071
0.0434415
0.0438244
0.0571158
0.0435411
0.0435463
0.0435534
0.0435562
0.0435729
0.0435962
0.0435412
0.043553
0.0435976
0.0438251
0.0651608
0.0436432
0.0436485
0.0436159
0.0436411
0.0435713
0.0435613
0.0436362
0.0437378
0.0615373
0.0571212
0.0434905
0.0434849
0.0435295
0.043485
0.0435956
0.0437293
0.0613381
0.054157
0.0505966
0.0437038
0.0437326
0.043617
0.0438083
0.0598072
0.0530572
0.0489935
0.0544636
0.0547964
0.0529149
0.0556728
0.0499229
0.042504
0.0425059
0.0425031
0.0425089
0.0425022
0.0425136
0.042499
0.0425215
0.0424896
0.042537
0.0424666
0.0425688
0.0424171
0.0426312
0.0533896
0.0425061
0.042508
0.0425053
0.0425105
0.042504
0.0425147
0.0425008
0.0425222
0.0424916
0.042537
0.0424669
0.0425725
0.0424182
0.0426606
0.053722
0.0425033
0.0425053
0.0425028
0.0425082
0.0425023
0.0425124
0.0425003
0.0425184
0.0424943
0.0425281
0.0424788
0.0425422
0.0424566
0.0425438
0.0518406
0.0425092
0.0425107
0.0425083
0.0425124
0.0425071
0.0425152
0.0425047
0.0425206
0.0424986
0.0425319
0.0424823
0.0425676
0.0424113
0.0427348
0.054599
0.0425025
0.0425042
0.0425025
0.0425072
0.0425029
0.0425109
0.0425022
0.0425144
0.0425013
0.0425161
0.0424994
0.0424979
0.042522
0.0587337
0.0488494
0.042514
0.042515
0.0425127
0.0425155
0.0425112
0.0425163
0.0425091
0.0425179
0.0425091
0.0425184
0.0425227
0.0424881
0.0426558
0.0519838
0.0424995
0.0425011
0.0425006
0.042505
0.042503
0.042511
0.0425034
0.0425147
0.0425014
0.0425294
0.0424677
0.042563
0.0602646
0.04792
0.042522
0.0425226
0.0425187
0.042521
0.0425149
0.0425186
0.0425149
0.0425188
0.0425092
0.04252
0.0424799
0.0426644
0.0530834
0.0424902
0.042492
0.0424947
0.042499
0.0425016
0.0425094
0.0425016
0.0425092
0.042521
0.0425341
0.0425242
0.060459
0.0495224
0.0425376
0.0425375
0.0425285
0.0425323
0.0425165
0.0425187
0.0425296
0.0425202
0.0425341
0.0423686
0.0427523
0.0560431
0.0424673
0.0424674
0.0424793
0.0424827
0.0424997
0.0425229
0.042468
0.0424799
0.0425244
0.0427514
0.064088
0.0425695
0.0425731
0.0425427
0.0425681
0.0424983
0.0424884
0.0425633
0.0426648
0.0604644
0.0560482
0.0424178
0.0424188
0.0424572
0.0424118
0.0425224
0.0426561
0.0602651
0.0530839
0.0495234
0.0426319
0.0426612
0.0425444
0.0427354
0.0587342
0.0519842
0.0479203
0.0533906
0.0537232
0.0518417
0.0545997
0.0488499
0.0414288
0.0414309
0.0414281
0.0414344
0.0414274
0.0414398
0.0414245
0.0414484
0.0414158
0.0414641
0.041393
0.0414973
0.0413436
0.0415575
0.0523164
0.0414311
0.0414331
0.0414304
0.0414362
0.0414294
0.041441
0.0414264
0.0414491
0.0414179
0.041465
0.0413985
0.0415018
0.0413386
0.0415862
0.0526489
0.0414282
0.0414304
0.0414278
0.0414338
0.0414276
0.0414386
0.0414259
0.0414452
0.0414204
0.0414554
0.0414061
0.0414696
0.0413826
0.0414706
0.0507675
0.0414347
0.0414363
0.0414339
0.0414385
0.0414329
0.0414418
0.0414306
0.0414475
0.041425
0.041459
0.041409
0.0414948
0.0413382
0.0416618
0.053526
0.0414277
0.0414295
0.0414278
0.0414329
0.0414286
0.0414372
0.0414281
0.0414412
0.0414275
0.0414432
0.0414262
0.0414249
0.0414489
0.0576607
0.0477764
0.0414402
0.0414413
0.0414389
0.041442
0.0414375
0.041443
0.0414355
0.0414449
0.0414358
0.0414454
0.0414495
0.0414152
0.0415828
0.0509108
0.0414249
0.0414267
0.0414262
0.041431
0.0414289
0.0414375
0.0414295
0.0414415
0.0414279
0.0414565
0.0413946
0.0414901
0.0591915
0.0468469
0.0414489
0.0414495
0.0414456
0.0414479
0.0414417
0.0414456
0.0414417
0.0414459
0.0414361
0.0414471
0.0414068
0.0415916
0.0520104
0.0414163
0.0414183
0.0414208
0.0414253
0.0414279
0.0414361
0.0414281
0.0414361
0.041448
0.0414611
0.0414511
0.0593861
0.0484492
0.0414647
0.0414655
0.0414558
0.0414594
0.0414435
0.0414457
0.0414567
0.0414473
0.0414612
0.0412958
0.0416785
0.05497
0.0413936
0.041399
0.0414066
0.0414094
0.0414265
0.0414498
0.0413948
0.0414069
0.0414515
0.0416792
0.0630149
0.0414978
0.0415023
0.0414701
0.0414952
0.0414253
0.0414155
0.0414903
0.0415919
0.0593915
0.0549752
0.0413442
0.0413391
0.0413831
0.0413386
0.0414493
0.041583
0.0591919
0.0520109
0.0484503
0.0415581
0.0415867
0.041471
0.0416622
0.0576611
0.0509111
0.0468471
0.0523174
0.05265
0.0507685
0.0535266
0.0477768
0.0403537
0.0403561
0.0403532
0.0403601
0.0403527
0.040366
0.0403501
0.0403751
0.0403418
0.040391
0.0403203
0.0404224
0.0402706
0.0404854
0.0512435
0.0403562
0.0403585
0.0403557
0.0403619
0.0403549
0.0403673
0.0403521
0.0403758
0.040344
0.040391
0.0403205
0.0404269
0.0402712
0.0405146
0.0515759
0.0403533
0.0403557
0.0403531
0.0403595
0.0403531
0.0403649
0.0403516
0.0403719
0.0403465
0.0403821
0.0403321
0.0403964
0.0403102
0.040398
0.0496945
0.0403604
0.0403621
0.0403596
0.0403645
0.0403587
0.0403683
0.0403567
0.0403744
0.0403514
0.0403859
0.0403356
0.0404217
0.0402651
0.0405889
0.0524529
0.040353
0.040355
0.0403533
0.0403588
0.0403543
0.0403635
0.0403545
0.040368
0.0403539
0.0403701
0.040353
0.040352
0.0403759
0.0565877
0.0467034
0.0403664
0.0403676
0.0403651
0.0403684
0.0403636
0.0403697
0.0403636
0.0403721
0.0403626
0.0403723
0.0403765
0.0403423
0.0405098
0.0498378
0.0403504
0.0403523
0.0403519
0.0403569
0.0403544
0.0403623
0.0403555
0.0403684
0.0403544
0.0403836
0.0403214
0.0404172
0.0581185
0.045774
0.0403755
0.0403762
0.0403722
0.0403746
0.0403682
0.0403721
0.0403684
0.040373
0.040363
0.0403743
0.0403338
0.0405189
0.0509375
0.0403423
0.0403444
0.0403469
0.0403517
0.0403541
0.0403627
0.0403545
0.040363
0.0403748
0.0403882
0.0403781
0.0583131
0.0473764
0.0403915
0.0403914
0.0403825
0.0403862
0.0403704
0.0403725
0.0403838
0.0403744
0.0403882
0.0402229
0.0406061
0.0538971
0.0403209
0.040321
0.0403325
0.0403359
0.0403532
0.0403766
0.0403216
0.0403338
0.0403783
0.0406055
0.061942
0.040423
0.0404273
0.0403968
0.0404221
0.0403523
0.0403426
0.0404174
0.0405191
0.0583185
0.0539023
0.0402712
0.0402717
0.0403106
0.0402654
0.0403762
0.04051
0.0581189
0.0509379
0.0473774
0.0404859
0.0405151
0.0403984
0.0405892
0.056588
0.0498381
0.0457742
0.0512444
0.0515769
0.0496954
0.0524535
0.0467037
0.0392789
0.0392815
0.0392786
0.0392859
0.0392783
0.0392922
0.0392758
0.0393016
0.039268
0.0393175
0.0392455
0.0393516
0.0391974
0.0394117
0.0501702
0.0392816
0.0392839
0.0392811
0.0392877
0.0392804
0.0392935
0.0392778
0.0393023
0.0392702
0.0393185
0.0392511
0.0393552
0.0391931
0.0394404
0.0505027
0.0392787
0.0392811
0.0392784
0.0392853
0.0392787
0.039291
0.0392774
0.0392984
0.0392727
0.0393091
0.0392592
0.0393234
0.0392363
0.0393247
0.0486214
0.0392861
0.0392878
0.0392854
0.0392905
0.0392846
0.0392946
0.0392827
0.039301
0.0392778
0.0393127
0.0392622
0.0393487
0.039192
0.0395157
0.0513799
0.0392785
0.0392806
0.0392788
0.0392846
0.0392801
0.0392897
0.0392802
0.0392945
0.0392801
0.039297
0.0392797
0.039279
0.0393028
0.0555147
0.0456304
0.0392925
0.0392937
0.0392912
0.0392948
0.0392899
0.0392963
0.0392886
0.0392987
0.0392893
0.0392991
0.0393034
0.0392694
0.0394369
0.0487649
0.0392761
0.0392781
0.0392776
0.0392829
0.0392806
0.0392901
0.0392817
0.0392951
0.0392809
0.0393107
0.0392482
0.0393444
0.0570455
0.0447014
0.039302
0.0393026
0.0392987
0.0393012
0.0392948
0.0392991
0.0392952
0.0393
0.0392898
0.0393013
0.0392608
0.0394462
0.0498646
0.0392684
0.0392706
0.039273
0.039278
0.0392803
0.0392894
0.039281
0.0392898
0.0393015
0.0393152
0.0393048
0.0572402
0.0463039
0.039318
0.0393188
0.0393094
0.0393129
0.0392972
0.0392993
0.0393108
0.0393014
0.0393152
0.0391499
0.0395322
0.0528242
0.0392461
0.0392515
0.0392595
0.0392625
0.0392799
0.0393035
0.0392483
0.0392607
0.0393052
0.0395333
0.060869
0.039352
0.0393556
0.0393238
0.0393489
0.0392792
0.0392695
0.0393444
0.0394463
0.0572456
0.0528295
0.0391979
0.0391935
0.0392367
0.0391923
0.039303
0.039437
0.0570458
0.0498649
0.0463048
0.0394122
0.0394408
0.039325
0.039516
0.0555149
0.0487651
0.0447014
0.050171
0.0505036
0.0486222
0.0513804
0.0456307
0.0382043
0.038207
0.038204
0.0382116
0.0382038
0.0382183
0.0382015
0.038228
0.0381941
0.0382444
0.0381739
0.0382757
0.0381239
0.0383393
0.0490973
0.0382071
0.0382095
0.0382066
0.0382135
0.0382061
0.0382196
0.0382037
0.0382287
0.0381963
0.0382443
0.0381742
0.0382809
0.0381238
0.0383682
0.0494297
0.0382041
0.0382066
0.0382039
0.038211
0.0382043
0.0382171
0.0382032
0.0382249
0.0381988
0.0382355
0.0381852
0.0382501
0.0381637
0.0382519
0.0475483
0.0382118
0.0382136
0.0382111
0.0382165
0.0382104
0.0382209
0.0382088
0.0382276
0.0382041
0.0382393
0.0381888
0.0382754
0.0381189
0.0384426
0.0503069
0.038204
0.0382062
0.0382044
0.0382104
0.0382058
0.038216
0.0382065
0.0382212
0.0382064
0.0382238
0.0382063
0.0382059
0.0382297
0.0544416
0.0445575
0.0382186
0.0382197
0.0382173
0.038221
0.038216
0.0382228
0.0382165
0.0382257
0.0382159
0.0382259
0.0382302
0.0381964
0.038364
0.0476921
0.0382018
0.0382038
0.0382034
0.0382089
0.0382063
0.038215
0.0382079
0.0382217
0.0382074
0.0382376
0.0381749
0.0382715
0.0559725
0.0436287
0.0382283
0.038229
0.0382251
0.0382277
0.0382212
0.0382255
0.0382217
0.0382269
0.0382165
0.0382284
0.0381877
0.0383736
0.0487918
0.0381945
0.0381966
0.038199
0.0382042
0.0382065
0.0382159
0.0382074
0.0382164
0.0382282
0.0382422
0.0382318
0.0561676
0.0452314
0.0382449
0.0382446
0.0382358
0.0382395
0.0382239
0.038226
0.0382376
0.0382283
0.0382421
0.0380769
0.0384607
0.0517516
0.0381743
0.0381746
0.0381855
0.038189
0.0382064
0.0382302
0.0381749
0.0381875
0.0382317
0.038459
0.059796
0.0382763
0.0382812
0.0382504
0.0382756
0.038206
0.0381965
0.0382715
0.0383736
0.0561727
0.0517563
0.0381244
0.0381242
0.038164
0.0381192
0.0382298
0.0383641
0.0559727
0.048792
0.0452321
0.0383398
0.0383685
0.0382522
0.0384428
0.0544418
0.0476922
0.0436287
0.049098
0.0494305
0.0475491
0.0503073
0.0445577
0.0371296
0.0371325
0.0371295
0.0371373
0.0371294
0.0371444
0.0371274
0.0371543
0.0371202
0.0371704
0.0370978
0.0372053
0.0370511
0.0372658
0.048024
0.0371325
0.0371349
0.037132
0.0371392
0.0371317
0.0371456
0.0371296
0.037155
0.0371225
0.0371711
0.0371032
0.0372078
0.0370481
0.0372943
0.0483566
0.0371296
0.037132
0.0371294
0.0371367
0.03713
0.0371432
0.0371291
0.0371512
0.0371249
0.0371622
0.037112
0.0371768
0.0370901
0.0371787
0.0464752
0.0371375
0.0371393
0.0371368
0.0371424
0.0371362
0.0371471
0.0371349
0.037154
0.0371304
0.0371659
0.0371153
0.037202
0.0370459
0.0373692
0.0492339
0.0371295
0.0371317
0.03713
0.0371362
0.0371317
0.0371421
0.0371323
0.0371475
0.0371325
0.0371505
0.0371329
0.0371327
0.0371567
0.0533686
0.0434846
0.0371445
0.0371457
0.0371433
0.0371472
0.0371422
0.0371492
0.0371412
0.0371521
0.0371423
0.0371526
0.037157
0.0371235
0.0372914
0.0466192
0.0371276
0.0371297
0.0371292
0.037135
0.0371327
0.0371428
0.0371341
0.0371482
0.0371337
0.0371645
0.0371015
0.0371987
0.0548994
0.0425559
0.0371546
0.0371552
0.0371514
0.0371541
0.0371476
0.0371524
0.0371482
0.0371538
0.0371431
0.0371555
0.0371145
0.0373013
0.0477191
0.0371206
0.0371228
0.0371251
0.0371305
0.0371326
0.0371423
0.0371337
0.037143
0.0371547
0.0371691
0.0371585
0.0550949
0.0441586
0.0371709
0.0371714
0.0371624
0.037166
0.0371505
0.0371526
0.0371644
0.0371553
0.037169
0.037004
0.0373866
0.0506787
0.0370985
0.0371036
0.0371122
0.0371155
0.0371329
0.0371569
0.0371014
0.0371141
0.0371584
0.0373866
0.058723
0.0372056
0.0372081
0.0371771
0.0372022
0.0371328
0.0371235
0.0371985
0.0373011
0.0550999
0.0506833
0.0370516
0.0370484
0.0370904
0.0370461
0.0371568
0.0372914
0.0548994
0.0477191
0.0441592
0.0372662
0.0372946
0.0371789
0.0373694
0.0533687
0.0466192
0.0425558
0.0480247
0.0483573
0.0464759
0.0492343
0.0434847
0.0360552
0.0360579
0.0360549
0.036063
0.036055
0.0360704
0.0360533
0.0360805
0.0360464
0.0360972
0.0360273
0.036128
0.0359774
0.0361931
0.0469512
0.036058
0.0360604
0.0360575
0.0360649
0.0360574
0.0360716
0.0360555
0.0360811
0.0360487
0.036097
0.0360279
0.0361339
0.0359766
0.0362213
0.0472836
0.036055
0.0360575
0.0360551
0.0360624
0.0360557
0.0360692
0.0360551
0.0360775
0.0360511
0.0360885
0.0360382
0.0361032
0.0360174
0.0361057
0.0454022
0.0360631
0.0360649
0.0360624
0.0360683
0.0360621
0.0360733
0.036061
0.0360804
0.0360566
0.0360922
0.0360419
0.0361284
0.0359733
0.0362957
0.0481609
0.036055
0.0360573
0.0360557
0.0360621
0.0360576
0.0360683
0.0360588
0.0360739
0.0360588
0.036077
0.0360594
0.0360596
0.0360837
0.0522955
0.0424117
0.0360704
0.0360716
0.0360692
0.0360733
0.0360682
0.0360756
0.0360692
0.036079
0.0360687
0.0360793
0.0360838
0.0360506
0.0362195
0.0455467
0.0360534
0.0360555
0.0360552
0.0360609
0.0360584
0.0360673
0.0360603
0.0360746
0.03606
0.0360913
0.0360281
0.0361262
0.0538265
0.0414837
0.0360807
0.0360812
0.0360776
0.0360804
0.0360738
0.0360785
0.0360745
0.0360806
0.0360696
0.0360827
0.0360412
0.0362298
0.0466464
0.0360468
0.0360489
0.0360512
0.0360566
0.0360587
0.0360686
0.0360598
0.0360694
0.036081
0.0360961
0.0360852
0.0540227
0.0430862
0.0360976
0.0360971
0.0360886
0.0360923
0.036077
0.0360792
0.0360911
0.0360825
0.0360959
0.0359315
0.0363143
0.0496061
0.0360271
0.0360281
0.0360384
0.036042
0.0360593
0.0360836
0.0360279
0.0360405
0.036085
0.0363125
0.0576503
0.0361293
0.0361342
0.0361035
0.0361285
0.0360596
0.0360505
0.0361258
0.0362292
0.0540274
0.0496111
0.0359779
0.0359771
0.0360177
0.0359735
0.0360838
0.0362193
0.0538264
0.0466461
0.0430864
0.0361935
0.0362216
0.0361059
0.0362959
0.0522956
0.0455466
0.0414834
0.0469518
0.0472842
0.0454029
0.0481613
0.0424118
0.0349808
0.0349833
0.0349804
0.0349886
0.0349807
0.0349963
0.0349793
0.0350066
0.0349726
0.0350226
0.0349507
0.0350561
0.034904
0.0351216
0.045879
0.0349834
0.0349858
0.0349829