/*--------------------------------*- C++ -*----------------------------------*\
| =========                 |                                                 |
| \\      /  F ield         | OpenFOAM: The Open Source CFD Toolbox           |
|  \\    /   O peration     | Version:  2.1.1                                 |
|   \\  /    A nd           | Web:      www.OpenFOAM.org                      |
|    \\/     M anipulation  |                                                 |
\*---------------------------------------------------------------------------*/
FoamFile
{
    version     2.0;
    format      ascii;
    class       volScalarField;
    location    "0.16";
    object      p;
}
// * * * * * * * * * * * * * * * * * * * * * * * * * * * * * * * * * * * * * //

dimensions      [0 2 -2 0 0 0 0];

internalField   nonuniform List<scalar> 
163952
(
0.0416793
0.041103
0.0363671
0.0311723
0.0299756
0.0273641
0.026774
0.0264503
0.0366873
0.0323452
0.0273036
0.0248139
0.0235702
0.0227912
0.0224768
0.0223356
0.0337186
0.0279817
0.0244779
0.0228382
0.0219255
0.0213876
0.0210489
0.0208686
0.020783
0.0335884
0.0260895
0.0232551
0.0219085
0.0211531
0.0206743
0.0203546
0.0201429
0.0200167
0.0199532
0.0335897
0.0255476
0.0227309
0.0214527
0.0207377
0.0202739
0.0199498
0.019719
0.0195594
0.0194588
0.0194064
0.033719
0.0260898
0.022731
0.0213092
0.0205466
0.0200577
0.0197122
0.0194582
0.0192715
0.0191394
0.0190538
0.0190083
0.0366874
0.0279819
0.0232553
0.0214528
0.0205467
0.0199882
0.0195998
0.0193131
0.0190973
0.0189367
0.0188217
0.0187461
0.0187056
0.0323457
0.0244783
0.0219088
0.020738
0.0200579
0.0195999
0.0192662
0.0190144
0.018823
0.0186796
0.0185764
0.0185081
0.0184713
0.0363678
0.0273042
0.0228387
0.0211535
0.0202742
0.0197124
0.0193132
0.0190145
0.0187863
0.0186119
0.0184808
0.018386
0.0183231
0.018289
0.0311731
0.0248145
0.0219261
0.0206748
0.0199503
0.0194585
0.0190976
0.0188232
0.018612
0.0184499
0.0183276
0.018239
0.0181799
0.0181479
0.0299763
0.0235709
0.0213883
0.0203552
0.0197195
0.0192719
0.018937
0.0186799
0.018481
0.0183277
0.0182117
0.0181275
0.0180713
0.0180408
0.0273649
0.022792
0.0210496
0.0201436
0.01956
0.0191399
0.0188221
0.0185768
0.0183863
0.0182391
0.0181276
0.0180464
0.0179922
0.0179627
0.0416801
0.0267748
0.0224777
0.0208694
0.0200174
0.0194595
0.0190543
0.0187466
0.0185086
0.0183234
0.0181802
0.0180715
0.0179923
0.0179393
0.0179105
0.0411039
0.0264512
0.0223365
0.0207839
0.019954
0.0194071
0.0190089
0.0187062
0.0184718
0.0182894
0.0181482
0.018041
0.0179629
0.0179106
0.0178821
0.0235053
0.0235621
0.0225002
0.0237094
0.0224404
0.0221263
0.0220814
0.0220605
0.022605
0.024419
0.0221061
0.0217938
0.0215332
0.0213423
0.0212676
0.0212158
0.0233833
0.0221581
0.0217401
0.0213281
0.0209873
0.0207086
0.0205238
0.0204276
0.0203782
0.0221278
0.0218374
0.0214001
0.0209587
0.0205659
0.0202547
0.0200184
0.0198587
0.0197664
0.0197221
0.0221286
0.0217082
0.021216
0.0207121
0.020285
0.0199424
0.0196829
0.0194915
0.0193597
0.0192794
0.0192408
0.0233837
0.0218378
0.0212161
0.0206321
0.0201432
0.0197651
0.0194758
0.0192579
0.019097
0.0189847
0.0189143
0.0188803
0.0226055
0.0221585
0.0214004
0.0207122
0.0201432
0.0197066
0.0193771
0.0191266
0.0189372
0.0187967
0.0186977
0.0186348
0.0186042
0.0244194
0.0217406
0.0209591
0.0202853
0.0197653
0.0193772
0.0190842
0.0188609
0.0186913
0.0185649
0.0184752
0.0184178
0.0183898
0.0225008
0.0221067
0.0213286
0.0205664
0.0199428
0.0194761
0.0191268
0.018861
0.0186572
0.0185016
0.0183852
0.0183022
0.0182489
0.0182228
0.0237101
0.0217945
0.0209879
0.0202552
0.0196833
0.0192582
0.0189374
0.0186914
0.0185017
0.0183561
0.0182468
0.0181687
0.0181184
0.0180937
0.0224412
0.0215339
0.0207092
0.020019
0.019492
0.0190975
0.0187971
0.0185652
0.0183854
0.0182469
0.0181427
0.0180681
0.0180199
0.0179962
0.0221271
0.0213431
0.0205245
0.0198593
0.0193603
0.0189852
0.0186981
0.0184756
0.0183025
0.0181689
0.0180682
0.0179959
0.0179492
0.0179262
0.0235062
0.0220823
0.0212684
0.0204285
0.0197672
0.0192801
0.0189149
0.0186353
0.0184183
0.0182492
0.0181186
0.01802
0.0179493
0.0179035
0.017881
0.023563
0.0220615
0.0212167
0.020379
0.0197229
0.0192415
0.0188809
0.0186047
0.0183903
0.0182232
0.018094
0.0179964
0.0179264
0.017881
0.0178588
0.0198616
0.0198759
0.0199409
0.0203228
0.0205463
0.0204306
0.020323
0.0202824
0.0199479
0.0207918
0.0203415
0.0202634
0.0201686
0.0201297
0.0201003
0.0200749
0.0201583
0.0203555
0.0202551
0.0201344
0.0199977
0.0198531
0.0197617
0.0197066
0.0196762
0.0205056
0.0202886
0.0201635
0.0199835
0.0197914
0.0196255
0.0194856
0.0193855
0.0193232
0.0192919
0.0205065
0.0202435
0.0200905
0.0198688
0.0196438
0.0194411
0.0192749
0.0191435
0.0190488
0.0189888
0.0189592
0.0201586
0.020289
0.0200906
0.019831
0.019565
0.0193314
0.0191348
0.0189765
0.0188537
0.0187652
0.0187085
0.0186807
0.0199483
0.020356
0.0201638
0.019869
0.0195651
0.019294
0.0190656
0.0188782
0.0187291
0.0186146
0.018532
0.0184787
0.0184526
0.0207923
0.0202556
0.0199839
0.0196441
0.0193316
0.0190657
0.0188459
0.018668
0.0185276
0.0184202
0.0183427
0.0182926
0.018268
0.0199416
0.0203422
0.020135
0.0197919
0.0194415
0.0191351
0.0188784
0.0186681
0.0184991
0.0183661
0.0182645
0.0181911
0.0181436
0.0181202
0.0203235
0.0202641
0.0199983
0.0196261
0.0192754
0.0189769
0.0187294
0.0185278
0.0183662
0.018239
0.018142
0.0180719
0.0180263
0.0180039
0.0205471
0.0201693
0.0198538
0.0194863
0.0191441
0.0188542
0.018615
0.0184205
0.0182647
0.0181421
0.0180485
0.0179808
0.0179368
0.0179151
0.0204315
0.0201306
0.0197625
0.0193862
0.0190495
0.0187658
0.0185324
0.0183431
0.0181914
0.018072
0.0179809
0.0179149
0.0178719
0.0178508
0.0198625
0.020324
0.0201012
0.0197075
0.019324
0.0189895
0.0187092
0.0184793
0.018293
0.0181439
0.0180266
0.0179369
0.017872
0.0178298
0.017809
0.0198769
0.0202834
0.0200759
0.0196771
0.0192927
0.01896
0.0186814
0.0184532
0.0182685
0.0181206
0.0180042
0.0179153
0.017851
0.0178091
0.0177885
0.0185144
0.0185247
0.0186318
0.0188587
0.0191897
0.0191892
0.0191367
0.0191147
0.0186469
0.0190727
0.0191127
0.0191002
0.0190708
0.0190722
0.0190709
0.0190673
0.0187878
0.0191168
0.0191042
0.0190971
0.0190683
0.0190165
0.0189806
0.0189552
0.0189409
0.0192203
0.0191202
0.0191141
0.0190638
0.0189975
0.0189332
0.0188703
0.0188204
0.0187857
0.0187674
0.019221
0.0191007
0.0190956
0.0190324
0.0189429
0.0188494
0.0187635
0.0186889
0.0186318
0.0185936
0.0185741
0.0187881
0.0191206
0.0190956
0.0190212
0.0189123
0.0187961
0.0186857
0.0185886
0.0185081
0.0184476
0.0184075
0.0183875
0.0186473
0.0191173
0.0191145
0.0190326
0.0189125
0.0187776
0.0186455
0.0185258
0.018424
0.0183419
0.0182806
0.0182403
0.0182202
0.0190733
0.0191048
0.0190642
0.0189432
0.0187963
0.0186456
0.0185048
0.0183813
0.0182783
0.0181966
0.018136
0.0180961
0.0180763
0.0186325
0.0191134
0.0190977
0.018998
0.0188498
0.018686
0.018526
0.0183814
0.0182572
0.0181548
0.0180743
0.0180148
0.0179757
0.0179563
0.0188595
0.0191009
0.019069
0.0189338
0.018764
0.018589
0.0184243
0.0182785
0.018155
0.0180539
0.0179747
0.0179164
0.0178781
0.0178591
0.0191905
0.0190717
0.0190172
0.018871
0.0186895
0.0185086
0.0183423
0.0181969
0.0180745
0.0179748
0.0178969
0.0178396
0.017802
0.0177834
0.0191902
0.0190731
0.0189815
0.0188212
0.0186325
0.0184482
0.0182811
0.0181364
0.0180151
0.0179166
0.0178397
0.0177833
0.0177462
0.0177279
0.0185154
0.0191377
0.0190719
0.0189561
0.0187866
0.0185943
0.0184082
0.0182409
0.0180966
0.0179761
0.0178784
0.0178022
0.0177463
0.0177096
0.0176915
0.0185258
0.0191157
0.0190684
0.0189419
0.0187683
0.018575
0.0183882
0.0182208
0.0180769
0.0179567
0.0178595
0.0177837
0.017728
0.0176915
0.0176735
0.0177964
0.0178045
0.0178577
0.0180062
0.0182226
0.018266
0.0182564
0.0182547
0.0178828
0.0181152
0.018223
0.018242
0.0182474
0.0182597
0.0182678
0.0182723
0.0179728
0.0182247
0.0182508
0.0182838
0.0183021
0.0183015
0.0182984
0.0182922
0.0182879
0.0182574
0.0182468
0.0182906
0.0183038
0.0183039
0.0182962
0.0182808
0.0182646
0.0182508
0.0182428
0.0182578
0.0182416
0.0182976
0.0183129
0.0183003
0.018275
0.0182434
0.0182105
0.0181826
0.0181625
0.0181519
0.0179731
0.0182471
0.0182976
0.0183156
0.0182975
0.0182582
0.0182104
0.0181615
0.0181168
0.0180811
0.0180564
0.0180437
0.0178834
0.0182251
0.018291
0.0183131
0.0182976
0.0182523
0.0181919
0.0181279
0.0180678
0.018016
0.0179756
0.0179482
0.0179343
0.0181158
0.0182514
0.0183043
0.0183007
0.0182585
0.018192
0.0181162
0.0180417
0.0179747
0.0179188
0.017876
0.0178471
0.0178326
0.0178584
0.0182238
0.0182845
0.0183045
0.0182755
0.0182108
0.0181281
0.0180418
0.0179607
0.0178898
0.0178316
0.0177874
0.0177578
0.017743
0.018007
0.0182429
0.0183029
0.0182969
0.018244
0.018162
0.0180681
0.017975
0.0178899
0.0178167
0.0177573
0.0177125
0.0176826
0.0176677
0.0182236
0.0182483
0.0183023
0.0182815
0.0182112
0.0181174
0.0180164
0.0179192
0.0178318
0.0177574
0.0176975
0.0176524
0.0176225
0.0176075
0.0182671
0.0182607
0.0182993
0.0182655
0.0181834
0.0180817
0.0179762
0.0178764
0.0177877
0.0177127
0.0176525
0.0176074
0.0175775
0.0175625
0.0177975
0.0182575
0.0182689
0.0182933
0.0182517
0.0181634
0.0180571
0.0179488
0.0178476
0.0177582
0.0176829
0.0176226
0.0175775
0.0175476
0.0175326
0.0178056
0.0182559
0.0182734
0.018289
0.0182438
0.0181528
0.0180445
0.017935
0.0178332
0.0177435
0.0176681
0.0176077
0.0175627
0.0175327
0.0175178
0.0172862
0.0172928
0.0173057
0.0173985
0.0175237
0.0175739
0.017579
0.017585
0.0173281
0.017472
0.0175539
0.0175848
0.0176061
0.0176253
0.0176358
0.0176418
0.0173831
0.0175547
0.0175961
0.01764
0.0176738
0.0176943
0.0177081
0.0177137
0.0177155
0.0175554
0.0175821
0.0176402
0.0176786
0.0177076
0.0177273
0.0177373
0.0177415
0.0177417
0.0177409
0.0175558
0.0175865
0.0176571
0.0177029
0.0177283
0.017741
0.0177431
0.0177384
0.0177315
0.0177251
0.0177214
0.0173835
0.0175825
0.0176572
0.0177115
0.017739
0.0177461
0.0177401
0.0177262
0.0177092
0.0176934
0.0176815
0.0176751
0.0173287
0.0175552
0.0176407
0.0177032
0.0177392
0.0177477
0.0177368
0.0177147
0.017688
0.0176617
0.0176396
0.0176238
0.0176156
0.0174727
0.0175967
0.0176792
0.0177287
0.0177464
0.0177369
0.0177103
0.0176756
0.0176397
0.0176069
0.0175803
0.0175619
0.0175524
0.0173065
0.0175548
0.0176408
0.0177083
0.0177415
0.0177405
0.0177149
0.0176758
0.0176319
0.0175894
0.0175521
0.0175227
0.0175025
0.0174922
0.0173994
0.0175858
0.0176747
0.017728
0.0177438
0.0177268
0.0176884
0.0176399
0.0175895
0.0175425
0.0175024
0.017471
0.0174497
0.0174388
0.0175248
0.0176071
0.0176953
0.0177382
0.0177391
0.0177098
0.0176623
0.0176072
0.0175524
0.0175025
0.0174604
0.0174279
0.0174058
0.0173946
0.0175751
0.0176265
0.0177092
0.0177425
0.0177323
0.0176941
0.0176402
0.0175808
0.0175231
0.0174713
0.017428
0.0173947
0.0173721
0.0173608
0.0172874
0.0175802
0.017637
0.0177149
0.0177427
0.0177261
0.0176823
0.0176245
0.0175624
0.0175029
0.01745
0.017406
0.0173722
0.0173495
0.017338
0.0172941
0.0175863
0.0176431
0.0177167
0.017742
0.0177224
0.017676
0.0176163
0.017553
0.0174927
0.0174392
0.0173949
0.017361
0.0173381
0.0173265
0.0168527
0.0168602
0.0168535
0.016913
0.01698
0.0170258
0.0170348
0.0170426
0.0168717
0.0169728
0.01702
0.0170512
0.0170762
0.0170989
0.017111
0.0171177
0.0169061
0.0170204
0.0170638
0.0171077
0.017144
0.0171706
0.0171912
0.0172028
0.0172081
0.0170077
0.0170462
0.0171046
0.0171502
0.0171892
0.0172204
0.0172427
0.0172579
0.0172663
0.01727
0.017008
0.0170539
0.0171232
0.0171782
0.01722
0.0172519
0.0172734
0.0172862
0.0172932
0.0172964
0.0172976
0.0169066
0.0170465
0.0171233
0.0171883
0.0172365
0.0172692
0.0172892
0.0172989
0.0173016
0.0173008
0.0172988
0.0172974
0.0168723
0.017021
0.0171051
0.0171785
0.0172366
0.0172751
0.0172958
0.017303
0.0173014
0.017295
0.0172876
0.0172814
0.017278
0.0169736
0.0170645
0.0171508
0.0172205
0.0172695
0.0172959
0.0173039
0.0172995
0.0172884
0.0172749
0.0172623
0.0172529
0.0172479
0.0168545
0.017021
0.0171086
0.01719
0.0172525
0.0172897
0.0173033
0.0172997
0.0172857
0.0172671
0.0172482
0.0172319
0.0172201
0.017214
0.0169141
0.0170523
0.017145
0.0172213
0.0172741
0.0172995
0.0173018
0.0172887
0.0172673
0.0172432
0.0172203
0.0172014
0.017188
0.017181
0.0169812
0.0170774
0.0171717
0.0172437
0.0172871
0.0173023
0.0172956
0.0172753
0.0172485
0.0172205
0.0171949
0.0171741
0.0171595
0.0171521
0.0170271
0.0171002
0.0171924
0.0172591
0.0172942
0.0173016
0.0172883
0.0172629
0.0172323
0.0172016
0.0171742
0.0171522
0.0171369
0.0171291
0.016854
0.0170363
0.0171123
0.0172041
0.0172675
0.0172975
0.0172997
0.0172822
0.0172535
0.0172206
0.0171883
0.0171598
0.017137
0.0171212
0.0171132
0.0168616
0.0170441
0.0171191
0.0172094
0.0172712
0.0172987
0.0172984
0.0172788
0.0172486
0.0172146
0.0171815
0.0171524
0.0171293
0.0171133
0.0171051
0.0164625
0.0164705
0.0164602
0.016499
0.0165311
0.0165691
0.0165789
0.0165865
0.0164737
0.0165509
0.0165721
0.0165995
0.0166229
0.0166454
0.0166578
0.0166648
0.0164968
0.0165726
0.0166125
0.0166524
0.0166864
0.016713
0.0167349
0.0167486
0.0167553
0.0165547
0.0165943
0.0166481
0.0166931
0.0167336
0.0167681
0.0167951
0.0168153
0.0168278
0.0168338
0.016555
0.0166022
0.0166653
0.0167202
0.0167671
0.0168071
0.0168382
0.0168608
0.0168762
0.0168854
0.0168897
0.0164974
0.0165947
0.0166654
0.0167301
0.0167853
0.0168303
0.0168647
0.0168888
0.0169044
0.0169139
0.016919
0.0169212
0.0164745
0.0165733
0.0166486
0.0167205
0.0167855
0.0168383
0.0168772
0.0169032
0.0169188
0.0169269
0.0169306
0.0169318
0.0169321
0.0165518
0.0166134
0.0166939
0.0167677
0.0168306
0.0168774
0.0169077
0.0169245
0.0169319
0.0169334
0.016932
0.01693
0.0169287
0.0164614
0.0165733
0.0166535
0.0167345
0.0168078
0.0168652
0.0169035
0.0169247
0.0169331
0.0169334
0.0169294
0.0169242
0.0169196
0.0169171
0.0165003
0.0166008
0.0166876
0.0167691
0.0168391
0.0168895
0.0169193
0.0169322
0.0169336
0.0169282
0.0169201
0.0169118
0.0169054
0.0169019
0.0165326
0.0166243
0.0167143
0.0167963
0.0168618
0.0169053
0.0169276
0.0169338
0.0169298
0.0169202
0.0169089
0.0168985
0.0168907
0.0168866
0.0165707
0.0166469
0.0167363
0.0168166
0.0168773
0.0169148
0.0169314
0.0169327
0.0169246
0.0169121
0.0168987
0.0168868
0.0168781
0.0168735
0.0164641
0.0165805
0.0166594
0.01675
0.0168292
0.0168866
0.01692
0.0169327
0.0169308
0.0169202
0.0169058
0.016891
0.0168782
0.0168689
0.016864
0.0164721
0.0165882
0.0166664
0.0167568
0.0168353
0.0168909
0.0169223
0.0169331
0.0169295
0.0169177
0.0169024
0.016887
0.0168737
0.0168641
0.0168591
0.016107
0.0161145
0.0161068
0.0161325
0.0161442
0.0161746
0.0161835
0.0161902
0.0161169
0.0161784
0.0161826
0.0162054
0.0162257
0.0162459
0.0162574
0.016264
0.0161337
0.0161832
0.0162181
0.016253
0.0162831
0.0163073
0.0163279
0.0163414
0.0163484
0.0161646
0.0162012
0.0162485
0.0162899
0.0163279
0.0163615
0.016389
0.0164104
0.0164245
0.0164314
0.0161649
0.0162084
0.0162637
0.0163144
0.0163606
0.0164021
0.0164367
0.0164637
0.0164833
0.0164958
0.0165018
0.0161344
0.0162017
0.0162639
0.0163235
0.0163784
0.0164272
0.0164681
0.0165
0.0165231
0.016539
0.0165487
0.0165533
0.0161179
0.0161841
0.0162492
0.0163149
0.0163786
0.016436
0.0164837
0.0165204
0.0165467
0.0165646
0.0165759
0.0165825
0.0165855
0.0161795
0.0162191
0.0162908
0.0163613
0.0164277
0.0164839
0.016527
0.0165576
0.0165777
0.01659
0.0165971
0.0166008
0.0166024
0.0161082
0.016184
0.0162543
0.016329
0.0164029
0.0164688
0.0165208
0.0165578
0.0165818
0.0165959
0.0166034
0.0166069
0.0166082
0.0166085
0.0161341
0.016207
0.0162846
0.0163627
0.0164378
0.0165008
0.0165474
0.0165781
0.0165961
0.0166052
0.0166088
0.0166093
0.0166086
0.016608
0.0161459
0.0162274
0.0163088
0.0163904
0.0164649
0.0165241
0.0165653
0.0165906
0.0166038
0.0166089
0.0166094
0.0166077
0.0166056
0.0166043
0.0161764
0.0162477
0.0163296
0.0164119
0.0164846
0.0165401
0.0165768
0.0165978
0.0166074
0.0166096
0.0166078
0.0166046
0.0166015
0.0165997
0.0161088
0.0161854
0.0162592
0.0163432
0.016426
0.0164972
0.0165499
0.0165835
0.0166016
0.0166088
0.0166091
0.0166059
0.0166016
0.016598
0.0165959
0.0161163
0.0161921
0.0162659
0.0163502
0.0164331
0.0165033
0.0165545
0.0165866
0.0166033
0.0166092
0.0166086
0.0166047
0.0166
0.016596
0.0165937
0.0157807
0.0157871
0.0157832
0.0158007
0.0157996
0.0158236
0.0158312
0.0158367
0.0157911
0.0158413
0.015834
0.0158529
0.0158699
0.0158871
0.0158971
0.015903
0.0158042
0.0158352
0.0158649
0.0158948
0.0159207
0.0159417
0.01596
0.0159723
0.0159787
0.015818
0.0158502
0.015891
0.0159274
0.0159614
0.015992
0.0160177
0.0160383
0.0160522
0.0160593
0.0158183
0.0158567
0.0159042
0.0159492
0.0159916
0.016031
0.0160654
0.0160932
0.0161142
0.016128
0.0161348
0.015805
0.0158508
0.0159044
0.0159572
0.0160081
0.0160559
0.0160981
0.0161328
0.0161596
0.0161789
0.0161912
0.0161971
0.0157923
0.0158362
0.0158918
0.0159497
0.0160084
0.0160646
0.0161147
0.0161562
0.0161884
0.016212
0.0162283
0.0162384
0.0162432
0.0158427
0.0158662
0.0159285
0.0159924
0.0160564
0.016115
0.016164
0.0162023
0.0162304
0.01625
0.0162629
0.0162707
0.0162743
0.0157849
0.0158357
0.0158963
0.0159627
0.0160321
0.0160989
0.0161567
0.0162025
0.0162364
0.01626
0.0162757
0.0162856
0.0162912
0.0162938
0.0158026
0.0158548
0.0159224
0.0159935
0.0160666
0.0161338
0.0161891
0.0162309
0.0162602
0.0162797
0.016292
0.0162993
0.0163032
0.0163049
0.0158017
0.0158719
0.0159436
0.0160194
0.0160946
0.0161608
0.0162129
0.0162507
0.0162761
0.0162922
0.0163017
0.0163069
0.0163095
0.0163106
0.0158258
0.0158892
0.0159619
0.0160401
0.0161157
0.0161802
0.0162293
0.0162637
0.0162861
0.0162996
0.0163071
0.0163108
0.0163125
0.016313
0.0157827
0.0158334
0.0158992
0.0159743
0.016054
0.0161296
0.0161925
0.0162395
0.0162716
0.0162919
0.0163037
0.0163098
0.0163126
0.0163136
0.0163138
0.0157892
0.0158389
0.0159051
0.0159808
0.0160611
0.0161365
0.0161986
0.0162444
0.0162753
0.0162946
0.0163055
0.016311
0.0163133
0.016314
0.016314
0.0154779
0.0154832
0.0154825
0.0154951
0.015485
0.0155041
0.0155101
0.0155146
0.015489
0.0155309
0.0155155
0.015531
0.015545
0.0155593
0.0155675
0.0155725
0.0154999
0.0155174
0.0155424
0.0155677
0.0155895
0.0156072
0.0156227
0.0156333
0.015639
0.0155022
0.0155302
0.015565
0.0155962
0.0156256
0.0156524
0.0156752
0.0156937
0.0157065
0.0157131
0.0155026
0.015536
0.0155765
0.0156153
0.0156527
0.0156882
0.01572
0.0157465
0.015767
0.0157807
0.0157876
0.0155009
0.015531
0.0155768
0.0156224
0.0156675
0.0157115
0.0157518
0.0157862
0.0158138
0.0158342
0.0158476
0.0158542
0.0154905
0.0155187
0.015566
0.0156159
0.0156679
0.0157198
0.0157682
0.0158104
0.0158448
0.0158711
0.01589
0.015902
0.0159079
0.0155326
0.015544
0.0155976
0.0156537
0.0157121
0.0157686
0.0158187
0.0158601
0.0158924
0.0159163
0.0159329
0.0159433
0.0159483
0.0154846
0.0155176
0.0155695
0.0156272
0.0156895
0.0157527
0.015811
0.0158604
0.0158995
0.0159289
0.01595
0.0159642
0.015973
0.0159771
0.0154974
0.0155333
0.0155916
0.0156542
0.0157215
0.0157874
0.0158456
0.015893
0.0159292
0.0159555
0.0159739
0.015986
0.0159934
0.0159968
0.0154875
0.0155474
0.0156094
0.0156771
0.0157481
0.0158151
0.0158722
0.0159171
0.0159504
0.0159741
0.0159902
0.0160006
0.0160068
0.0160096
0.0155067
0.0155618
0.015625
0.0156958
0.0157688
0.0158357
0.0158912
0.0159338
0.0159649
0.0159865
0.0160008
0.0160099
0.0160152
0.0160176
0.0154803
0.0155128
0.01557
0.0156356
0.0157086
0.0157826
0.0158492
0.0159034
0.0159444
0.0159738
0.0159939
0.0160071
0.0160154
0.0160201
0.0160222
0.0154856
0.0155172
0.0155751
0.0156413
0.0157152
0.0157896
0.0158558
0.0159093
0.0159495
0.015978
0.0159974
0.0160101
0.0160179
0.0160223
0.0160243
0.0151934
0.0151977
0.0151996
0.0152099
0.0151925
0.0152077
0.0152123
0.015216
0.0152054
0.0152409
0.0152198
0.0152324
0.0152437
0.0152552
0.0152617
0.0152659
0.0152149
0.0152226
0.0152435
0.0152645
0.0152825
0.0152969
0.0153096
0.0153182
0.015323
0.0152095
0.0152338
0.0152631
0.0152895
0.0153141
0.0153367
0.015356
0.0153719
0.015383
0.0153888
0.01521
0.0152389
0.0152732
0.015306
0.0153379
0.0153686
0.0153966
0.0154204
0.0154391
0.0154519
0.0154584
0.0152161
0.0152347
0.0152736
0.0153123
0.0153511
0.0153897
0.0154261
0.0154582
0.0154845
0.0155044
0.0155177
0.0155244
0.0152072
0.0152243
0.0152644
0.0153069
0.0153515
0.0153973
0.0154416
0.0154817
0.0155155
0.0155423
0.0155619
0.0155748
0.0155812
0.015243
0.0152455
0.0152911
0.0153392
0.0153905
0.015442
0.0154898
0.0155312
0.0155648
0.0155905
0.015609
0.0156209
0.0156267
0.0152022
0.0152224
0.0152669
0.0153161
0.0153702
0.0154272
0.0154824
0.0155315
0.0155724
0.0156045
0.0156286
0.0156455
0.0156563
0.0156614
0.0152127
0.0152352
0.015285
0.0153389
0.0153984
0.0154596
0.0155165
0.0155654
0.0156048
0.0156351
0.0156573
0.0156727
0.0156823
0.0156869
0.0151957
0.0152467
0.0152996
0.0153584
0.0154224
0.0154861
0.0155435
0.0155914
0.0156292
0.0156576
0.0156781
0.0156921
0.0157008
0.0157049
0.0152109
0.0152583
0.0153124
0.0153744
0.0154412
0.0155062
0.0155633
0.0156101
0.0156463
0.0156732
0.0156923
0.0157053
0.0157133
0.015717
0.0151964
0.0152155
0.0152647
0.015321
0.0153855
0.0154541
0.0155196
0.0155763
0.0156221
0.0156572
0.0156829
0.0157012
0.0157134
0.0157209
0.0157244
0.0152006
0.0152191
0.0152689
0.0153258
0.0153913
0.0154606
0.0155263
0.0155828
0.015628
0.0156625
0.0156877
0.0157054
0.0157173
0.0157246
0.015728
0.0149229
0.0149265
0.0149306
0.0149392
0.014917
0.0149292
0.0149322
0.0149353
0.0149364
0.014967
0.014942
0.0149519
0.0149608
0.0149698
0.0149745
0.0149779
0.0149449
0.0149459
0.0149632
0.0149803
0.0149946
0.0150058
0.0150156
0.0150222
0.0150261
0.0149347
0.0149558
0.0149805
0.015002
0.015022
0.0150402
0.0150557
0.0150686
0.0150777
0.0150825
0.0149352
0.0149603
0.0149893
0.0150164
0.0150426
0.015068
0.0150915
0.0151117
0.0151279
0.0151391
0.0151449
0.0149466
0.014957
0.0149899
0.015022
0.0150541
0.0150865
0.0151178
0.0151461
0.0151698
0.0151882
0.0152007
0.015207
0.0149386
0.014948
0.0149821
0.0150175
0.0150546
0.0150934
0.015132
0.015168
0.0151994
0.0152249
0.0152441
0.0152568
0.0152632
0.0149698
0.0149657
0.0150041
0.0150442
0.0150875
0.0151324
0.0151757
0.0152146
0.0152473
0.0152731
0.0152921
0.0153045
0.0153106
0.0149339
0.0149453
0.0149832
0.0150245
0.0150699
0.0151192
0.0151689
0.015215
0.0152549
0.0152876
0.0153128
0.0153311
0.0153428
0.0153486
0.0149428
0.0149556
0.0149978
0.0150429
0.0150937
0.0151478
0.0152006
0.015248
0.0152879
0.0153198
0.015344
0.0153613
0.0153723
0.0153777
0.014921
0.0149646
0.0150092
0.0150586
0.0151141
0.0151717
0.0152263
0.0152741
0.0153134
0.0153443
0.0153674
0.0153837
0.0153941
0.0153991
0.0149331
0.0149735
0.0150189
0.0150716
0.0151304
0.0151903
0.0152457
0.0152933
0.0153319
0.0153618
0.015384
0.0153995
0.0154093
0.0154141
0.0149266
0.0149361
0.0149781
0.0150256
0.0150806
0.0151416
0.0152028
0.0152586
0.0153059
0.0153438
0.015373
0.0153945
0.0154095
0.015419
0.0154235
0.0149301
0.014939
0.0149814
0.0150293
0.0150855
0.0151474
0.0152091
0.015265
0.0153121
0.0153497
0.0153785
0.0153997
0.0154144
0.0154237
0.0154281
0.0146632
0.0146663
0.0146727
0.0146799
0.0146549
0.0146646
0.014666
0.0146686
0.0146788
0.0147062
0.0146785
0.014686
0.0146925
0.014699
0.0147019
0.0147046
0.0146872
0.0146839
0.0146978
0.0147112
0.0147219
0.0147298
0.0147366
0.0147412
0.014744
0.0146745
0.0146929
0.0147132
0.0147302
0.0147454
0.014759
0.0147705
0.0147801
0.0147869
0.0147907
0.0146752
0.0146967
0.014721
0.0147426
0.0147629
0.0147826
0.014801
0.0148171
0.0148302
0.0148394
0.0148443
0.0146892
0.0146944
0.0147217
0.0147474
0.0147727
0.0147984
0.0148238
0.0148474
0.0148676
0.0148837
0.0148947
0.0149003
0.0146817
0.0146867
0.0147153
0.0147439
0.0147733
0.0148044
0.0148363
0.014867
0.0148947
0.0149178
0.0149355
0.0149475
0.0149536
0.0147097
0.0147011
0.0147328
0.0147648
0.0147996
0.0148368
0.0148741
0.0149089
0.0149391
0.0149636
0.0149821
0.0149944
0.0150005
0.014677
0.0146828
0.014715
0.0147485
0.0147849
0.0148255
0.014868
0.0149093
0.0149465
0.014978
0.015003
0.0150214
0.0150336
0.0150396
0.0146846
0.0146907
0.0147259
0.0147623
0.0148037
0.0148494
0.0148961
0.0149399
0.0149784
0.0150101
0.0150349
0.015053
0.0150648
0.0150705
0.01466
0.0146972
0.014734
0.014774
0.01482
0.0148699
0.0149194
0.0149648
0.0150037
0.0150352
0.0150596
0.0150771
0.0150885
0.015094
0.0146695
0.0147036
0.0147407
0.0147837
0.0148332
0.014886
0.0149374
0.0149835
0.0150224
0.0150536
0.0150774
0.0150945
0.0151055
0.0151108
0.0146677
0.0146706
0.0147063
0.0147451
0.0147904
0.0148424
0.0148971
0.0149495
0.0149959
0.0150347
0.0150655
0.0150889
0.0151057
0.0151164
0.0151216
0.0146706
0.014673
0.0147088
0.0147479
0.0147941
0.0148473
0.0149028
0.0149556
0.0150022
0.0150408
0.0150714
0.0150946
0.0151112
0.0151218
0.015127
0.0144116
0.0144145
0.0144235
0.0144296
0.0144042
0.0144116
0.0144108
0.0144132
0.0144305
0.0144559
0.0144269
0.014432
0.0144358
0.0144397
0.0144407
0.0144428
0.0144393
0.0144345
0.0144451
0.0144545
0.0144613
0.0144656
0.0144692
0.0144715
0.0144734
0.0144273
0.0144427
0.0144587
0.0144709
0.0144809
0.0144895
0.0144967
0.0145028
0.0145072
0.0145099
0.0144282
0.0144454
0.0144654
0.0144811
0.0144952
0.0145087
0.0145216
0.0145333
0.014543
0.01455
0.0145538
0.0144419
0.0144445
0.0144662
0.0144853
0.0145032
0.0145217
0.0145407
0.0145589
0.0145752
0.0145884
0.0145977
0.0146025
0.0144344
0.014438
0.0144613
0.0144828
0.014504
0.0145268
0.0145512
0.0145759
0.0145991
0.0146191
0.0146348
0.0146457
0.0146512
0.0144606
0.0144494
0.0144742
0.0144976
0.0145232
0.0145519
0.0145823
0.0146119
0.0146387
0.0146612
0.0146785
0.0146902
0.0146961
0.0144293
0.0144327
0.0144594
0.0144848
0.0145116
0.0145427
0.0145772
0.0146125
0.0146457
0.0146749
0.0146987
0.0147167
0.0147287
0.0147347
0.0144358
0.0144381
0.0144665
0.0144937
0.0145249
0.0145613
0.0146007
0.0146397
0.0146753
0.0147058
0.0147302
0.0147484
0.0147604
0.0147663
0.0144107
0.0144418
0.0144708
0.014501
0.0145367
0.0145778
0.014621
0.0146625
0.0146995
0.0147306
0.0147551
0.0147732
0.014785
0.0147909
0.0144177
0.0144453
0.0144742
0.014507
0.0145465
0.0145911
0.0146369
0.01468
0.0147178
0.014749
0.0147735
0.0147913
0.014803
0.0148087
0.0144171
0.0144164
0.0144459
0.0144762
0.0145113
0.0145534
0.0146005
0.0146479
0.0146919
0.0147299
0.0147612
0.0147855
0.0148032
0.0148147
0.0148204
0.0144197
0.0144185
0.0144477
0.0144778
0.0145138
0.0145572
0.0146053
0.0146535
0.0146979
0.0147361
0.0147673
0.0147915
0.0148091
0.0148206
0.0148262
0.0141655
0.0141684
0.0141809
0.0141864
0.014164
0.0141686
0.0141648
0.0141673
0.0141893
0.0142145
0.014186
0.014188
0.0141886
0.0141893
0.0141879
0.0141895
0.0141995
0.0141969
0.0142035
0.0142078
0.0142099
0.0142099
0.0142098
0.0142096
0.0142105
0.0141929
0.0142035
0.0142146
0.0142211
0.0142251
0.0142281
0.0142305
0.0142328
0.0142347
0.0142362
0.014194
0.0142044
0.0142196
0.0142287
0.0142358
0.0142426
0.0142496
0.0142565
0.0142627
0.0142674
0.0142702
0.014203
0.0142058
0.0142206
0.0142323
0.0142419
0.0142526
0.0142646
0.0142773
0.0142893
0.0142996
0.014307
0.0143111
0.0141943
0.0142014
0.0142179
0.0142308
0.0142429
0.0142567
0.0142732
0.0142915
0.0143099
0.0143265
0.01434
0.0143496
0.0143546
0.0142208
0.0142091
0.0142253
0.0142387
0.0142543
0.014274
0.014297
0.0143212
0.0143442
0.0143642
0.0143801
0.014391
0.0143965
0.0141889
0.0141939
0.0142142
0.01423
0.0142461
0.014267
0.0142929
0.0143218
0.0143507
0.0143771
0.0143993
0.0144165
0.0144281
0.014434
0.0141949
0.0141962
0.0142166
0.0142334
0.0142535
0.01428
0.0143117
0.0143453
0.0143775
0.0144061
0.0144297
0.0144475
0.0144595
0.0144654
0.0141726
0.0141964
0.0142165
0.0142358
0.0142605
0.0142923
0.0143286
0.0143657
0.0144002
0.01443
0.0144542
0.0144724
0.0144844
0.0144904
0.0141762
0.0141963
0.0142158
0.0142378
0.0142667
0.0143027
0.0143424
0.0143817
0.0144176
0.0144482
0.0144727
0.0144909
0.0145029
0.0145089
0.0141724
0.0141716
0.0141942
0.0142151
0.0142394
0.0142713
0.0143102
0.014352
0.0143928
0.0144294
0.0144604
0.0144849
0.0145031
0.0145151
0.014521
0.0141746
0.0141735
0.0141953
0.0142156
0.0142407
0.014274
0.0143142
0.0143571
0.0143985
0.0144354
0.0144665
0.0144911
0.0145093
0.0145212
0.0145271
0.013921
0.0139243
0.0139411
0.0139474
0.0139355
0.0139349
0.0139262
0.0139296
0.0139514
0.0139803
0.0139553
0.0139524
0.0139485
0.0139448
0.0139404
0.0139417
0.0139663
0.0139715
0.0139718
0.0139681
0.0139639
0.0139588
0.0139542
0.013951
0.013951
0.0139809
0.0139741
0.0139775
0.0139769
0.0139734
0.0139699
0.0139672
0.0139655
0.0139648
0.0139654
0.0139822
0.0139704
0.0139796
0.0139807
0.0139797
0.0139791
0.01398
0.0139822
0.0139851
0.0139878
0.0139897
0.0139706
0.0139769
0.0139809
0.0139835
0.0139835
0.0139858
0.013991
0.0139982
0.0140064
0.014014
0.0140199
0.0140232
0.013958
0.0139772
0.0139816
0.0139832
0.0139847
0.0139889
0.0139976
0.0140098
0.0140237
0.0140373
0.0140489
0.0140573
0.0140618
0.013989
0.0139791
0.0139821
0.0139832
0.0139879
0.0139985
0.0140145
0.0140336
0.0140532
0.014071
0.0140855
0.0140956
0.0141009
0.0139527
0.0139666
0.0139766
0.0139795
0.0139833
0.0139937
0.0140114
0.0140343
0.0140591
0.0140829
0.0141037
0.01412
0.0141312
0.014137
0.0139601
0.0139639
0.0139727
0.0139763
0.0139846
0.0140014
0.0140258
0.0140544
0.0140835
0.0141102
0.0141328
0.0141502
0.0141621
0.014168
0.0139475
0.0139588
0.0139669
0.0139734
0.0139868
0.0140097
0.0140397
0.0140725
0.0141046
0.0141332
0.0141569
0.0141749
0.014187
0.0141931
0.0139446
0.0139535
0.0139614
0.0139713
0.0139896
0.0140174
0.0140515
0.0140873
0.0141212
0.014151
0.0141752
0.0141936
0.0142058
0.0142119
0.0139294
0.0139343
0.0139478
0.0139574
0.0139702
0.0139921
0.0140233
0.01406
0.0140976
0.0141326
0.014163
0.0141876
0.014206
0.0142183
0.0142244
0.0139317
0.0139367
0.0139483
0.0139568
0.0139704
0.0139938
0.0140266
0.0140645
0.0141029
0.0141385
0.0141691
0.0141938
0.0142123
0.0142245
0.0142306
0.0136694
0.013674
0.0136949
0.0137082
0.0137251
0.0137101
0.0136923
0.0136982
0.0137082
0.0137547
0.0137344
0.013723
0.0137125
0.013702
0.0136929
0.0136943
0.0137381
0.0137586
0.0137481
0.01373
0.0137165
0.013705
0.0136957
0.0136894
0.0136888
0.0138163
0.013758
0.0137404
0.0137309
0.0137183
0.0137075
0.0136997
0.0136946
0.0136918
0.0136917
0.013818
0.0137487
0.0137408
0.0137291
0.0137193
0.0137112
0.0137065
0.0137049
0.0137054
0.0137066
0.013708
0.0137434
0.0137612
0.0137422
0.0137315
0.0137206
0.0137148
0.0137139
0.013717
0.0137224
0.0137283
0.0137332
0.0137361