/*--------------------------------*- C++ -*----------------------------------*\
| =========                 |                                                 |
| \\      /  F ield         | OpenFOAM: The Open Source CFD Toolbox           |
|  \\    /   O peration     | Version:  2.1.1                                 |
|   \\  /    A nd           | Web:      www.OpenFOAM.org                      |
|    \\/     M anipulation  |                                                 |
\*---------------------------------------------------------------------------*/
FoamFile
{
    version     2.0;
    format      ascii;
    class       surfaceScalarField;
    location    "0.003";
    object      phi;
}
// * * * * * * * * * * * * * * * * * * * * * * * * * * * * * * * * * * * * * //

dimensions      [0 3 -1 0 0 0 0];

internalField   nonuniform List<scalar> 
29479
(
8.15454e-13
6.3648e-11
1.73424e-10
-2.50229e-12
8.69076e-12
5.73283e-11
1.51812e-10
-7.04357e-12
8.20717e-11
5.00243e-11
-3.74263e-11
2.04016e-12
3.46473e-11
2.5668e-10
-3.41604e-11
-3.24728e-12
4.84951e-12
3.34042e-11
2.53146e-10
-5.46259e-11
-3.4537e-12
-7.66873e-12
3.71628e-11
2.80124e-10
-7.83032e-11
1.49541e-11
-2.01901e-11
2.73606e-11
2.97628e-10
-7.86753e-11
1.96567e-11
-4.34976e-11
3.9041e-11
3.28781e-10
2.01442e-11
-1.94501e-11
7.49482e-11
1.48247e-10
-1.5943e-11
-3.91759e-14
2.10462e-11
2.48485e-10
-1.62949e-11
7.23148e-13
-8.02078e-13
2.11638e-11
2.47636e-10
-1.62945e-11
1.59069e-12
-2.83749e-12
2.02073e-11
2.49186e-10
-1.54928e-11
3.96058e-12
-8.79469e-12
1.91854e-11
2.53603e-10
-2.71984e-11
8.20312e-12
-1.15185e-11
2.55393e-11
2.5853e-10
-3.28735e-11
1.39763e-11
-2.13938e-11
2.88845e-11
2.6495e-10
-5.7325e-11
3.21007e-11
-3.01199e-11
2.71834e-11
2.72554e-10
4.1965e-11
-1.22974e-11
5.71018e-11
1.65065e-10
-8.31742e-12
-2.19336e-13
1.08877e-11
2.48334e-10
-8.56629e-12
5.28164e-13
-1.02444e-12
1.08983e-11
2.48516e-10
-8.28523e-12
1.58829e-12
-2.91281e-12
1.08308e-11
2.48931e-10
-8.18491e-12
2.93296e-12
-7.14478e-12
1.1783e-11
2.50874e-10
-1.19981e-11
6.49394e-12
-1.03598e-11
1.57333e-11
2.50936e-10
-1.60346e-11
8.39717e-12
-1.28745e-11
2.08395e-11
2.51586e-10
-2.82801e-11
1.28613e-11
-1.20058e-11
2.95679e-11
2.51337e-10
-3.33207e-11
9.79278e-12
-1.76902e-11
3.10618e-11
2.63435e-10
-7.47819e-11
3.58406e-11
-6.4075e-11
3.7066e-11
3.41358e-10
2.00682e-11
2.83113e-11
6.9216e-11
-3.33333e-12
-1.92517e-13
6.03051e-12
2.47557e-10
-3.4719e-12
2.43198e-13
-8.02527e-13
6.08904e-12
2.47962e-10
-3.61363e-12
8.10723e-13
-1.91207e-12
6.2675e-12
2.48439e-10
-3.99107e-12
1.46043e-12
-3.92234e-12
6.95053e-12
2.49494e-10
-5.75607e-12
3.01079e-12
-6.11061e-12
8.99553e-12
2.49913e-10
-8.54442e-12
4.36156e-12
-8.80114e-12
1.23687e-11
2.50888e-10
-1.31751e-11
7.75084e-12
-1.11189e-11
1.71403e-11
2.50295e-10
-1.80428e-11
8.76308e-12
-1.20594e-11
2.20853e-11
2.51875e-10
-2.75479e-11
1.09283e-11
-1.21913e-11
2.71539e-11
2.56629e-10
-4.18108e-11
1.31305e-11
-2.66222e-11
3.0123e-11
2.74326e-10
2.36611e-11
4.72363e-11
9.55308e-11
-2.36115e-12
-2.02392e-13
4.42582e-12
2.48136e-10
-2.39848e-12
2.19614e-13
-7.23839e-13
4.48181e-12
2.48421e-10
-2.43507e-12
5.97348e-13
-1.43603e-12
4.61626e-12
2.48656e-10
-2.41784e-12
9.53076e-13
-2.46259e-12
4.86939e-12
2.49056e-10
-2.91818e-12
1.69837e-12
-3.57097e-12
5.62407e-12
2.49165e-10
-3.99556e-12
2.2523e-12
-4.90968e-12
6.93321e-12
2.4973e-10
-6.38093e-12
3.49156e-12
-6.48713e-12
9.14903e-12
2.50343e-10
-9.37978e-12
4.53328e-12
-8.65508e-12
1.19517e-11
2.52312e-10
-1.32871e-11
7.3677e-12
-1.17283e-11
1.54149e-11
2.54991e-10
-1.6104e-11
9.1463e-12
-1.51236e-11
1.79913e-11
2.593e-10
-4.42556e-11
1.93962e-11
-4.27083e-11
2.38254e-11
2.92835e-10
3.67103e-11
2.33659e-11
9.11543e-11
-1.5874e-12
-1.94841e-13
3.43103e-12
2.48347e-10
-1.60052e-12
1.962e-13
-6.47043e-13
3.47366e-12
2.48577e-10
-1.62999e-12
4.76236e-13
-1.1738e-12
3.57379e-12
2.48754e-10
-1.63699e-12
7.0896e-13
-1.84177e-12
3.72502e-12
2.49045e-10
-1.80083e-12
1.15593e-12
-2.53684e-12
4.07198e-12
2.4911e-10
-2.12264e-12
1.42437e-12
-3.31056e-12
4.58106e-12
2.49427e-10
-2.86648e-12
2.04774e-12
-4.23179e-12
5.41732e-12
2.49641e-10
-3.96904e-12
2.56484e-12
-5.77921e-12
6.51251e-12
2.50806e-10
-6.05313e-12
4.18212e-12
-8.77585e-12
8.21087e-12
2.53257e-10
-9.24624e-12
7.29701e-12
-1.59077e-11
1.07093e-11
2.59886e-10
-1.18626e-11
1.34172e-11
-2.47195e-11
1.38594e-11
2.64598e-10
-3.37541e-11
2.39664e-11
-4.47377e-11
4.03985e-11
2.59472e-10
-1.34493e-12
-1.8711e-13
2.78257e-12
2.48745e-10
-1.34056e-12
1.79785e-13
-5.9453e-13
2.81278e-12
2.48942e-10
-1.34841e-12
4.04144e-13
-1.03676e-12
2.88187e-12
2.49099e-10
-1.33213e-12
5.96298e-13
-1.55153e-12
2.97696e-12
2.4931e-10
-1.38958e-12
9.06786e-13
-2.092e-12
3.17502e-12
2.49399e-10
-1.48946e-12
1.11725e-12
-2.689e-12
3.4417e-12
2.49619e-10
-1.76972e-12
1.52502e-12
-3.39484e-12
3.86303e-12
2.49777e-10
-2.13816e-12
1.89116e-12
-4.51181e-12
4.35721e-12
2.50414e-10
-3.04686e-12
2.96773e-12
-7.03336e-12
5.27804e-12
2.51977e-10
-4.90464e-12
5.35576e-12
-1.31833e-11
7.01972e-12
2.56521e-10
-1.04736e-11
1.0967e-11
-2.3655e-11
1.098e-11
2.64872e-10
-2.85989e-11
2.19009e-11
-3.63942e-11
1.96917e-11
2.77956e-10
-2.32314e-11
5.09085e-11
-4.96751e-11
2.4321e-11
2.62092e-10
-1.02976e-12
-1.76501e-13
2.23502e-12
2.48968e-10
-1.02412e-12
1.64139e-13
-5.50778e-13
2.25813e-12
2.49152e-10
-1.02976e-12
3.56498e-13
-9.43122e-13
2.31096e-12
2.49305e-10
-1.02771e-12
5.26272e-13
-1.38284e-12
2.3843e-12
2.495e-10
-1.05037e-12
7.74677e-13
-1.85107e-12
2.51536e-12
2.49611e-10
-1.0869e-12
9.71892e-13
-2.38671e-12
2.6813e-12
2.4982e-10
-1.18714e-12
1.31113e-12
-3.02723e-12
2.94473e-12
2.49958e-10
-1.31841e-12
1.64494e-12
-3.96739e-12
3.28733e-12
2.50354e-10
-1.57534e-12
2.44041e-12
-5.78124e-12
3.83415e-12
2.51093e-10
-2.33086e-12
4.08416e-12
-1.01861e-11
5.01254e-12
2.53539e-10
-5.27678e-12
8.3184e-12
-1.94663e-11
7.75819e-12
2.5941e-10
-1.20731e-11
1.53002e-11
-2.83803e-11
1.28141e-11
2.65194e-10
-2.75128e-11
2.64741e-11
-3.12125e-11
2.03056e-11
2.63531e-10
6.58126e-11
7.92954e-12
7.96697e-11
-8.57061e-13
-1.67458e-13
1.79893e-12
2.49225e-10
-8.49228e-13
1.53e-13
-5.18224e-13
1.81531e-12
2.49399e-10
-8.50591e-13
3.23527e-13
-8.7941e-13
1.85507e-12
2.49551e-10
-8.48923e-13
4.81792e-13
-1.27487e-12
1.91195e-12
2.4973e-10
-8.61368e-13
6.92428e-13
-1.698e-12
2.0051e-12
2.49861e-10
-8.84239e-13
8.78615e-13
-2.18524e-12
2.1227e-12
2.50068e-10
-9.42643e-13
1.16937e-12
-2.77098e-12
2.30445e-12
2.50239e-10
-1.028e-12
1.47439e-12
-3.57961e-12
2.56397e-12
2.50569e-10
-1.22741e-12
2.07566e-12
-4.90785e-12
2.99773e-12
2.51062e-10
-1.73209e-12
3.13518e-12
-7.81017e-12
3.83534e-12
2.52578e-10
-3.60636e-12
5.83414e-12
-1.42583e-11
5.92601e-12
2.56263e-10
-9.65132e-12
1.01874e-11
-2.23496e-11
1.02134e-11
2.62892e-10
-2.36769e-11
1.75834e-11
-2.55537e-11
1.89792e-11
2.66627e-10
-4.05932e-11
3.01647e-11
-5.5555e-11
3.07299e-11
3.02713e-10
-6.62894e-13
-1.60815e-13
1.40804e-12
2.49413e-10
-6.55298e-13
1.4439e-13
-4.91731e-13
1.4208e-12
2.49581e-10
-6.56162e-13
2.99325e-13
-8.31701e-13
1.45003e-12
2.49738e-10
-6.54674e-13
4.50271e-13
-1.19996e-12
1.4935e-12
2.4991e-10
-6.59979e-13
6.40314e-13
-1.59513e-12
1.56097e-12
2.50053e-10
-6.68049e-13
8.18045e-13
-2.04856e-12
1.64823e-12
2.5025e-10
-6.88543e-13
1.07801e-12
-2.58693e-12
1.77552e-12
2.50421e-10
-7.11981e-13
1.35838e-12
-3.30671e-12
1.95719e-12
2.50703e-10
-7.63887e-13
1.86612e-12
-4.3465e-12
2.25554e-12
2.50989e-10
-9.20062e-13
2.60506e-12
-6.27335e-12
2.81055e-12
2.51777e-10
-1.62283e-12
4.40376e-12
-1.03768e-11
4.10372e-12
2.53517e-10
-4.51219e-12
7.68856e-12
-1.79737e-11
7.17823e-12
2.58091e-10
-1.23962e-11
1.31449e-11
-2.32304e-11
1.34108e-11
2.6186e-10
-3.44014e-11
1.52952e-11
-4.11425e-11
3.76342e-11
2.69751e-10
-5.21259e-13
-1.55113e-13
1.06341e-12
2.49609e-10
-5.15217e-13
1.36672e-13
-4.71738e-13
1.07286e-12
2.49777e-10
-5.13361e-13
2.83004e-13
-7.96361e-13
1.09461e-12
2.49932e-10
-5.11316e-13
4.25963e-13
-1.14364e-12
1.1261e-12
2.50102e-10
-5.21831e-13
5.97487e-13
-1.5167e-12
1.17635e-12
2.50264e-10
-5.36483e-13
7.64777e-13
-1.94076e-12
1.24246e-12
2.5047e-10
-5.58539e-13
9.96815e-13
-2.43269e-12
1.33162e-12
2.50662e-10
-5.90787e-13
1.23885e-12
-3.06743e-12
1.45976e-12
2.50959e-10
-6.50553e-13
1.6589e-12
-3.9146e-12
1.65626e-12
2.5125e-10
-7.82123e-13
2.18466e-12
-5.28711e-12
2.02085e-12
2.51863e-10
-1.19036e-12
3.39204e-12
-7.95398e-12
2.73256e-12
2.53015e-10
-2.82982e-12
5.58938e-12
-1.3769e-11
4.7015e-12
2.56418e-10
-8.30989e-12
1.06429e-11
-2.09881e-11
8.42561e-12
2.61626e-10
-2.51485e-11
1.98062e-11
-3.52734e-11
1.85077e-11
2.75021e-10
-1.48619e-11
8.56144e-11
2.1395e-11
1.30534e-10
-3.7261e-13
-1.50389e-13
7.40438e-13
2.49781e-10
-3.68468e-13
1.31284e-13
-4.57299e-13
7.48418e-13
2.49946e-10
-3.65973e-13
2.70252e-13
-7.70418e-13
7.63192e-13
2.50102e-10
-3.68001e-13
4.06393e-13
-1.1045e-12
7.85754e-13
2.5028e-10
-3.74046e-13
5.6608e-13
-1.4637e-12
8.17615e-13
2.50454e-10
-3.79034e-13
7.25916e-13
-1.86984e-12
8.60393e-13
2.50662e-10
-3.89963e-13
9.4373e-13
-2.33187e-12
9.1814e-13
2.50859e-10
-4.05845e-13
1.15436e-12
-2.91481e-12
9.98246e-13
2.51168e-10
-4.22722e-13
1.52204e-12
-3.64112e-12
1.10186e-12
2.5144e-10
-4.75775e-13
1.89065e-12
-4.73616e-12
1.27991e-12
2.52041e-10
-5.72203e-13
2.80163e-12
-6.52508e-12
1.50525e-12
2.52784e-10
-1.20971e-12
4.06474e-12
-1.099e-11
2.10393e-12
2.56036e-10
-2.84697e-12
8.32301e-12
-1.89289e-11
2.02659e-12
2.6213e-10
-6.56808e-12
1.38973e-11
-2.55943e-11
-1.84222e-12
2.7318e-10
-3.72768e-13
6.26936e-11
-1.92093e-12
2.05062e-10
-2.46723e-13
-1.46487e-13
4.40181e-13
2.49957e-10
-2.451e-13
1.26283e-13
-4.46673e-13
4.44346e-13
2.50121e-10
-2.4695e-13
2.5857e-13
-7.53093e-13
4.52483e-13
2.50289e-10
-2.49155e-13
3.89122e-13
-1.07863e-12
4.65934e-13
2.50472e-10
-2.54206e-13
5.44115e-13
-1.42813e-12
4.85011e-13
2.50653e-10
-2.62272e-13
6.9459e-13
-1.82181e-12
5.11473e-13
2.50878e-10
-2.79582e-13
8.97444e-13
-2.26381e-12
5.46095e-13
2.51099e-10
-3.07658e-13
1.0834e-12
-2.81639e-12
5.93876e-13
2.51446e-10
-3.49739e-13
1.4117e-12
-3.47768e-12
6.53675e-13
2.51762e-10
-4.44741e-13
1.68374e-12
-4.4697e-12
7.46812e-13
2.52484e-10
-6.07188e-13
2.45122e-12
-6.03894e-12
8.38924e-13
2.53355e-10
-1.00048e-12
3.43672e-12
-1.05776e-11
9.57149e-13
2.57228e-10
-9.52688e-13
8.12374e-12
-2.06335e-11
1.0805e-13
2.64131e-10
3.30154e-12
1.61588e-11
-3.62815e-11
-2.86415e-12
2.73559e-10
1.34208e-11
4.44825e-11
-7.46416e-11
-1.0519e-11
2.6402e-10
-1.19795e-13
-1.44223e-13
1.42009e-13
2.50123e-10
-1.19856e-13
1.22614e-13
-4.40971e-13
1.4699e-13
2.50291e-10
-1.19832e-13
2.51641e-13
-7.43309e-13
1.49035e-13
2.50462e-10
-1.19875e-13
3.79299e-13
-1.06565e-12
1.52691e-13
2.50653e-10
-1.21039e-13
5.30357e-13
-1.41067e-12
1.58401e-13
2.50842e-10
-1.25461e-13
6.74221e-13
-1.80014e-12
1.66227e-13
2.51085e-10
-1.31657e-13
8.71518e-13
-2.23576e-12
1.76455e-13
2.51319e-10
-1.44287e-13
1.04679e-12
-2.78084e-12
1.89174e-13
2.51689e-10
-1.64793e-13
1.36128e-12
-3.42485e-12
2.03124e-13
2.52025e-10
-2.12918e-13
1.60068e-12
-4.40626e-12
2.241e-13
2.52794e-10
-3.0518e-13
2.35061e-12
-5.98815e-12
2.39509e-13
2.53712e-10
-5.95152e-13
3.28258e-12
-1.07514e-11
2.57655e-13
2.57962e-10
-2.72822e-13
8.1806e-12
-2.10783e-11
-6.33698e-14
2.64584e-10
1.70311e-12
1.61907e-11
-3.45687e-11
-1.22801e-12
2.73069e-10
6.90657e-12
3.57806e-11
-5.89912e-11
-3.46385e-12
2.60574e-10
-1.39566e-10
1.8895e-12
2.35262e-11
1.14129e-10
-1.17277e-10
-3.55525e-12
5.70056e-12
1.80406e-11
9.70908e-11
-2.82857e-11
-1.41997e-12
6.21754e-12
2.34881e-11
8.46707e-12
5.25175e-10
1.01542e-09
-2.24519e-10
-2.25359e-10
-3.35277e-10
-3.37076e-10
2.34066e-11
2.34988e-11
-2.36549e-10
-2.37543e-10
-1.514e-11
5.23752e-10
1.02049e-09
-2.17551e-10
-2.47522e-10
-3.2431e-10
-3.38685e-10
3.70567e-11
3.13909e-11
-2.29203e-10
-2.31808e-10
-1.92175e-10
5.33836e-10
1.18999e-09
-2.64135e-10
-2.96298e-10
-3.35719e-10
-3.44127e-10
4.38194e-11
-1.79742e-11
-1.80435e-10
-1.51926e-10
7.66482e-11
4.96087e-10
9.59929e-10
-3.0169e-10
-2.32271e-10
-3.45999e-10
-2.96587e-10
1.03903e-11
5.19723e-11
-1.24697e-10
-1.20479e-10
-1.55326e-11
-1.60949e-10
-1.88995e-10
-2.63891e-10
1.24258e-11
-3.96784e-12
5.6444e-11
2.75637e-10
-1.02932e-10
6.7742e-13
-9.50753e-12
3.36907e-11
7.80716e-11
-2.85645e-12
3.15416e-10
1.27915e-09
-2.33029e-10
-2.35633e-10
-2.98264e-10
-2.99813e-10
-1.94397e-11
3.15202e-10
1.30128e-09
-2.35451e-10
-2.46107e-10
-2.95389e-10
-2.99205e-10
-1.12711e-10
3.36709e-10
1.38868e-09
-2.50947e-10
-2.59044e-10
-2.94294e-10
-2.93996e-10
-2.14736e-10
3.68939e-10
1.37709e-09
-2.78931e-10
-2.57551e-10
-3.15579e-10
-2.95859e-10
-2.92111e-10
5.02552e-10
1.11276e-09
-2.62761e-10
-2.18412e-10
-3.30472e-10
-2.99705e-10
-5.19874e-11
1.82085e-11
-2.06822e-10
-1.85987e-10
8.88204e-11
5.50479e-10
9.14027e-10
-2.69931e-10
-2.11565e-10
-3.46443e-10
-2.95322e-10
6.59161e-12
7.76546e-11
-2.1666e-10
-1.84038e-10
-1.71327e-11
-1.92625e-10
-1.9597e-10
-2.46904e-10
-1.15883e-11
-1.47282e-11
9.04438e-11
2.71597e-10
-1.2479e-10
-8.9863e-12
-7.61769e-12
4.28448e-11
9.85492e-11
-1.71763e-11
2.06853e-10
1.15369e-09
-2.40792e-10
-2.41826e-10
-2.72714e-10
-2.72752e-10
-4.33302e-11
2.08688e-10
1.1633e-09
-2.42851e-10
-2.45715e-10
-2.72264e-10
-2.69793e-10
-9.27411e-11
2.22627e-10
1.19839e-09
-2.48562e-10
-2.49217e-10
-2.71974e-10
-2.65149e-10
-1.49453e-10
2.30228e-10
1.25397e-09
-2.59908e-10
-2.4753e-10
-2.8297e-10
-2.68132e-10
-2.06697e-10
3.20788e-10
1.3189e-09
-2.60845e-10
-2.39163e-10
-3.00536e-10
-2.7935e-10
-2.3782e-10
3.79293e-10
1.33791e-09
-2.64916e-10
-2.4082e-10
-3.25746e-10
-3.04123e-10
-2.67963e-10
4.95187e-10
1.09799e-09
-2.40968e-10
-2.16294e-10
-3.35875e-10
-3.12741e-10
-4.57082e-11
2.1713e-11
-2.23587e-10
-2.09578e-10
9.01885e-11
5.41079e-10
9.61206e-10
-2.50289e-10
-2.33878e-10
-3.5159e-10
-3.24381e-10
7.72396e-12
7.58676e-11
-2.30516e-10
-1.95394e-10
-1.49288e-11
-1.62597e-10
-1.80453e-10
-2.84815e-10
8.83041e-13
3.56259e-12
5.76747e-11
3.12884e-10
-3.93469e-11
6.24311e-12
-2.92581e-12
3.60296e-11
-1.62531e-11
1.45633e-10
1.08031e-09
-2.4165e-10
-2.41755e-10
-2.60076e-10
-2.59417e-10
-3.50052e-11
1.47454e-10
1.08449e-09
-2.4287e-10
-2.42303e-10
-2.61187e-10
-2.5815e-10
-6.09216e-11
1.58945e-10
1.09474e-09
-2.44133e-10
-2.42318e-10
-2.61952e-10
-2.56742e-10
-9.59694e-11
1.63157e-10
1.11719e-09
-2.48143e-10
-2.42631e-10
-2.66866e-10
-2.57431e-10
-1.2923e-10
2.02838e-10
1.17409e-09
-2.50001e-10
-2.40265e-10
-2.73661e-10
-2.58959e-10
-1.60423e-10
2.213e-10
1.24238e-09
-2.54571e-10
-2.3973e-10
-2.88587e-10
-2.70302e-10
-2.0562e-10
3.06941e-10
1.31261e-09
-2.53119e-10
-2.37211e-10
-3.02913e-10
-2.85924e-10
-2.14426e-10
3.50549e-10
1.33986e-09
-2.60064e-10
-2.46395e-10
-3.26085e-10
-3.07979e-10
-2.08516e-10
4.16963e-10
1.0696e-09
-2.40822e-10
-2.23577e-10
-3.27919e-10
-3.07299e-10
-3.39797e-11
3.19893e-11
-2.06558e-10
-1.84309e-10
7.62583e-11
3.0626e-10
9.29499e-10
-2.48357e-10
-2.29421e-10
-3.40388e-10
-3.22344e-10
6.74704e-11
5.88158e-11
-1.73509e-10
-1.29418e-10
1.21896e-11
-1.03012e-10
-1.12561e-10
-6.03989e-11
4.32454e-11
9.34128e-11
-1.50795e-11
1.09807e-10
1.05532e-09
-2.43281e-10
-2.42997e-10
-2.5952e-10
-2.5866e-10
-3.16937e-11
1.1145e-10
1.05779e-09
-2.44129e-10
-2.42751e-10
-2.60717e-10
-2.57569e-10
-5.01939e-11
1.19657e-10
1.0622e-09
-2.4466e-10
-2.41949e-10
-2.61681e-10
-2.5613e-10
-7.14744e-11
1.22868e-10
1.0682e-09
-2.46266e-10
-2.41351e-10
-2.6395e-10
-2.55059e-10
-9.14752e-11
1.43466e-10
1.08596e-09
-2.46674e-10
-2.39853e-10
-2.65965e-10
-2.54097e-10
-1.15025e-10
1.49364e-10
1.11043e-09
-2.48515e-10
-2.40018e-10
-2.70557e-10
-2.55854e-10
-1.3965e-10
1.8516e-10
1.17025e-09
-2.49621e-10
-2.39952e-10
-2.75988e-10
-2.5828e-10
-1.64765e-10
1.93927e-10
1.2337e-09
-2.55023e-10
-2.41435e-10
-2.88479e-10
-2.67027e-10
-2.10261e-10
2.47669e-10
1.29106e-09
-2.57314e-10
-2.39222e-10
-3.03967e-10
-2.75771e-10
-3.06514e-10
2.08966e-10
1.33108e-09
-2.72719e-10
-2.6402e-10
-3.28279e-10
-2.72516e-10
5.87203e-11
2.07957e-10
9.29607e-10
-3.22805e-10
-2.29432e-10
-3.4025e-10
-2.48623e-10
1.25756e-11
7.65955e-11
-1.12708e-10
-1.02905e-10
6.73973e-11
-1.29277e-10
-1.73368e-10
-5.93316e-11
1.80463e-11
1.00005e-10
-1.20234e-11
8.31015e-11
1.04031e-09
-2.44343e-10
-2.43888e-10
-2.57096e-10
-2.56275e-10
-2.49511e-11
8.43039e-11
1.04218e-09
-2.451e-10
-2.43414e-10
-2.58179e-10
-2.55418e-10
-3.89669e-11
8.98936e-11
1.04555e-09
-2.4561e-10
-2.42577e-10
-2.59155e-10
-2.54424e-10
-5.57679e-11
9.31665e-11
1.04977e-09
-2.4669e-10
-2.41805e-10
-2.61053e-10
-2.53722e-10
-7.28056e-11
1.0573e-10
1.05728e-09
-2.46788e-10
-2.40307e-10
-2.62791e-10
-2.52616e-10
-9.39174e-11
1.10386e-10
1.06534e-09
-2.47637e-10
-2.39744e-10
-2.65626e-10
-2.52244e-10
-1.19672e-10
1.29357e-10
1.08738e-09
-2.47833e-10
-2.39048e-10
-2.67394e-10
-2.51547e-10
-1.61766e-10
1.32827e-10
1.11821e-09
-2.50385e-10
-2.3993e-10
-2.71721e-10
-2.52983e-10
-2.47471e-10
1.61624e-10
1.20147e-09
-2.54605e-10
-2.40764e-10
-2.79744e-10
-2.54607e-10
-4.16828e-10
1.64099e-10
1.2903e-09
-2.75769e-10
-2.39098e-10
-3.03924e-10
-2.57279e-10
3.1867e-11
2.14308e-10
1.06935e-09
-3.07118e-10
-2.23464e-10
-3.27897e-10
-2.40751e-10
-3.40355e-11
-1.84497e-10
-2.0663e-10
-2.19912e-10
-2.62535e-11
-3.92587e-11
7.49241e-11
2.42366e-10
-1.04342e-11
6.43882e-11
1.03137e-09
-2.45609e-10
-2.45086e-10
-2.56169e-10
-2.55368e-10
-2.14146e-11
6.52085e-11
1.03254e-09
-2.46271e-10
-2.44522e-10
-2.57116e-10
-2.54553e-10
-3.29018e-11
6.87205e-11
1.03486e-09
-2.46764e-10
-2.43745e-10
-2.5802e-10
-2.53672e-10
-4.61364e-11
7.10606e-11
1.03822e-09
-2.47571e-10
-2.42982e-10
-2.59382e-10
-2.52948e-10
-6.03603e-11
7.87205e-11
1.04366e-09
-2.47872e-10
-2.41781e-10
-2.60708e-10
-2.52065e-10
-7.83811e-11
8.2763e-11
1.04952e-09
-2.4858e-10
-2.40883e-10
-2.6294e-10
-2.51477e-10
-9.98861e-11
9.46334e-11
1.06012e-09
-2.48719e-10
-2.39667e-10
-2.65079e-10
-2.50423e-10
-1.32916e-10
9.97992e-11
1.07309e-09
-2.49952e-10
-2.39497e-10
-2.67651e-10
-2.49935e-10
-1.93981e-10
1.19556e-10
1.11809e-09
-2.52987e-10
-2.39908e-10
-2.71709e-10
-2.50356e-10
-3.50741e-10
1.39328e-10
1.23343e-09
-2.67051e-10
-2.41398e-10
-2.88468e-10
-2.54979e-10
-5.41136e-10
2.05405e-10
1.33955e-09
-3.07911e-10
-2.46322e-10
-3.26037e-10
-2.59985e-10
7.58849e-11
2.67544e-10
9.60885e-10
-3.24323e-10
-2.33819e-10
-3.51559e-10
-2.50257e-10
-1.48491e-11
9.0255e-11
-1.80288e-10
-1.62471e-10
7.74631e-12
-1.95379e-10
-2.30506e-10
-2.07222e-10
5.12287e-12
4.43404e-12
1.20326e-11
2.61518e-10
-9.04962e-12
4.99366e-11
1.02486e-09
-2.46434e-10
-2.45882e-10
-2.54894e-10
-2.54153e-10
-1.85544e-11
5.05422e-11
1.02569e-09
-2.47052e-10
-2.4529e-10
-2.55752e-10
-2.53425e-10
-2.86082e-11
5.28358e-11
1.02733e-09
-2.47553e-10
-2.44565e-10
-2.56604e-10
-2.52671e-10
-4.03369e-11
5.46617e-11
1.02999e-09
-2.48241e-10
-2.43847e-10
-2.57763e-10
-2.52016e-10
-5.37084e-11
5.95365e-11
1.03414e-09
-2.48639e-10
-2.42847e-10
-2.58884e-10
-2.51215e-10
-7.1357e-11
6.30175e-11
1.0398e-09
-2.49317e-10
-2.41959e-10
-2.60535e-10
-2.50587e-10
-9.46392e-11
7.13486e-11
1.04874e-09
-2.49622e-10
-2.4064e-10
-2.623e-10
-2.49611e-10
-1.29361e-10
7.83199e-11
1.0601e-09
-2.5044e-10
-2.39665e-10
-2.65087e-10
-2.48709e-10
-1.85159e-10
9.38505e-11
1.08731e-09
-2.51557e-10
-2.39034e-10
-2.674e-10
-2.47817e-10
-3.06984e-10
1.14868e-10
1.17012e-09
-2.58294e-10
-2.39932e-10
-2.76003e-10
-2.49605e-10
-4.95222e-10
1.60339e-10
1.31242e-09
-2.85912e-10
-2.37182e-10
-3.02917e-10
-2.53101e-10
2.1716e-11
2.37564e-10
1.09778e-09
-3.12726e-10
-2.16277e-10
-3.35878e-10
-2.40971e-10
-4.57105e-11
-2.09581e-10
-2.23598e-10
-2.26268e-10
-2.48419e-11
-4.42209e-11
6.54427e-11
2.51604e-10
-4.46903e-11
3.90032e-12
-2.26649e-12
4.30565e-11
-8.20131e-12
3.85965e-11
1.02108e-09
-2.47268e-10
-2.46712e-10
-2.54126e-10
-2.5343e-10
-1.67497e-11
3.90308e-11
1.02168e-09
-2.47852e-10
-2.4612e-10
-2.54903e-10
-2.52752e-10
-2.57703e-11
4.0515e-11
1.02289e-09
-2.48358e-10
-2.45439e-10
-2.5569e-10
-2.52065e-10
-3.60736e-11
4.18753e-11
1.02493e-09
-2.48979e-10
-2.4475e-10
-2.56676e-10
-2.51431e-10
-4.78775e-11
4.50534e-11
1.02802e-09
-2.49445e-10
-2.4388e-10
-2.57685e-10
-2.50715e-10
-6.30239e-11
4.78736e-11
1.03263e-09
-2.50112e-10
-2.43069e-10
-2.5906e-10
-2.50103e-10
-8.27718e-11
5.37005e-11
1.03979e-09
-2.50596e-10
-2.41957e-10
-2.60536e-10
-2.49306e-10
-1.10395e-10
6.03207e-11
1.0495e-09
-2.51487e-10
-2.40877e-10
-2.62945e-10
-2.48568e-10
-1.49369e-10
7.27615e-11
1.06529e-09
-2.5225e-10
-2.3973e-10
-2.65632e-10
-2.4762e-10
-2.21312e-10
9.13772e-11
1.11037e-09
-2.55862e-10
-2.4e-10
-2.7057e-10
-2.48502e-10
-3.79287e-10
1.29158e-10
1.24231e-09
-2.70299e-10
-2.39706e-10
-2.88593e-10
-2.54558e-10
-5.50491e-10
2.06542e-10
1.33782e-09
-3.0411e-10
-2.40811e-10
-3.2575e-10
-2.64923e-10
7.76584e-11
2.92057e-10
9.13995e-10
-2.95311e-10
-2.11555e-10
-3.46447e-10
-2.6993e-10
-1.71206e-11
8.88285e-11
-1.95953e-10
-1.92614e-10
6.59176e-12
-1.84035e-10
-2.16659e-10
-2.41873e-10
1.37433e-11
4.78978e-12
1.80397e-11
2.82962e-10
-7.6081e-12
2.914e-11
1.01827e-09
-2.47921e-10
-2.47369e-10
-2.53283e-10
-2.52632e-10
-1.55452e-11
2.94631e-11
1.01878e-09
-2.4849e-10
-2.46787e-10
-2.54e-10
-2.51998e-10
-2.40166e-11
3.04609e-11
1.01975e-09
-2.48998e-10
-2.46137e-10
-2.54729e-10
-2.51359e-10
-3.37128e-11
3.15191e-11
1.02148e-09
-2.49592e-10
-2.45474e-10
-2.55608e-10
-2.5075e-10
-4.50459e-11
3.37182e-11
1.02401e-09
-2.50083e-10
-2.4467e-10
-2.56513e-10
-2.50072e-10
-5.95261e-11
3.60734e-11
1.02802e-09
-2.50724e-10
-2.4388e-10
-2.57691e-10
-2.49441e-10
-7.87092e-11
4.03322e-11
1.03413e-09
-2.51222e-10
-2.42844e-10
-2.58887e-10
-2.48631e-10
-1.05721e-10
4.61123e-11
1.04365e-09
-2.52074e-10
-2.41776e-10
-2.60715e-10
-2.47864e-10
-1.43451e-10
5.57451e-11
1.05725e-09
-2.52622e-10
-2.40297e-10
-2.62803e-10
-2.46779e-10
-2.02826e-10
7.1419e-11
1.08593e-09
-2.54103e-10
-2.3984e-10
-2.6598e-10
-2.46668e-10
-3.2078e-10
9.59293e-11
1.17406e-09
-2.58956e-10
-2.4025e-10
-2.73676e-10
-2.49998e-10
-5.02594e-10
1.4937e-10
1.31888e-09
-2.79342e-10
-2.39159e-10
-3.00546e-10
-2.60851e-10
1.8209e-11
2.14698e-10
1.11272e-09
-2.99707e-10
-2.18403e-10
-3.30481e-10
-2.62769e-10
-5.19904e-11
-1.85987e-10
-2.06824e-10
-2.32013e-10
-3.59052e-11
-3.90114e-11
7.97322e-11
2.45406e-10
-7.17904e-12
2.09591e-11
1.01661e-09
-2.48567e-10
-2.48022e-10
-2.52635e-10
-2.52019e-10
-1.46358e-11
2.11821e-11
1.01704e-09
-2.49125e-10
-2.47453e-10
-2.53303e-10
-2.51417e-10
-2.25781e-11
2.1823e-11
1.01786e-09
-2.49646e-10
-2.46839e-10
-2.53984e-10
-2.50811e-10
-3.15128e-11
2.25865e-11
1.01934e-09
-2.50238e-10
-2.46212e-10
-2.54793e-10
-2.50234e-10
-4.18636e-11
2.40277e-11
1.02148e-09
-2.50763e-10
-2.45476e-10
-2.55613e-10
-2.49589e-10
-5.46539e-11
2.57718e-11
1.02492e-09
-2.51438e-10
-2.44749e-10
-2.56675e-10
-2.48972e-10
-7.10505e-11
2.86079e-11
1.02998e-09
-2.52021e-10
-2.43843e-10
-2.57764e-10
-2.48232e-10
-9.31546e-11
3.28881e-11
1.03821e-09
-2.52954e-10
-2.42977e-10
-2.59386e-10
-2.47564e-10
-1.22851e-10
3.89529e-11
1.04975e-09
-2.53727e-10
-2.41796e-10
-2.61059e-10
-2.46682e-10
-1.63142e-10
5.01583e-11
1.06817e-09
-2.55063e-10
-2.41341e-10
-2.63961e-10
-2.46261e-10
-2.30218e-10
6.08951e-11
1.11717e-09
-2.57429e-10
-2.42619e-10
-2.66878e-10
-2.48139e-10
-3.68973e-10
9.26953e-11
1.25397e-09
-2.68127e-10
-2.47524e-10
-2.82981e-10
-2.59911e-10
-4.96077e-10
1.12674e-10
1.37706e-09
-2.95856e-10
-2.57548e-10
-3.15588e-10
-2.78942e-10
5.19745e-11
1.92152e-10
9.59925e-10
-2.96569e-10
-2.32268e-10
-3.45998e-10
-3.017e-10
-1.55289e-11
7.66489e-11
-1.88989e-10
-1.60946e-10
1.03889e-11
-1.20476e-10
-1.24696e-10
-8.65329e-11
-1.13969e-11
2.24322e-11
1.27475e-10
-6.93036e-12
1.35885e-11
1.01542e-09
-2.49143e-10
-2.48601e-10
-2.51979e-10
-2.51389e-10
-1.41248e-11
1.37357e-11
1.0158e-09
-2.49698e-10
-2.48043e-10
-2.52607e-10
-2.50812e-10
-2.18148e-11
1.41326e-11
1.01653e-09
-2.50229e-10
-2.47449e-10
-2.53247e-10
-2.50225e-10
-3.04491e-11
1.46448e-11
1.01786e-09
-2.5082e-10
-2.46839e-10
-2.53986e-10
-2.49642e-10
-4.05042e-11
1.55515e-11
1.01975e-09
-2.51365e-10
-2.46136e-10
-2.5473e-10
-2.48994e-10
-5.28244e-11
1.675e-11
1.02289e-09
-2.5207e-10
-2.45436e-10
-2.55691e-10
-2.48354e-10
-6.87053e-11
1.85547e-11
1.02732e-09
-2.52675e-10
-2.4456e-10
-2.56606e-10
-2.47548e-10
-8.98798e-11
2.1405e-11
1.03485e-09
-2.53677e-10
-2.4374e-10
-2.58024e-10
-2.46759e-10
-1.19643e-10
2.4941e-11
1.04554e-09
-2.54427e-10
-2.42569e-10
-2.59161e-10
-2.45606e-10
-1.58932e-10
3.16728e-11
1.06219e-09
-2.56131e-10
-2.4194e-10
-2.61688e-10
-2.44657e-10
-2.22623e-10
3.49896e-11
1.09474e-09
-2.56741e-10
-2.42309e-10
-2.61962e-10
-2.44132e-10
-3.36734e-10
4.33042e-11
1.19841e-09
-2.65145e-10
-2.4921e-10
-2.71987e-10
-2.48563e-10
-5.33847e-10
1.94003e-11
1.38868e-09
-2.93993e-10
-2.59042e-10
-2.94302e-10
-2.50953e-10
-1.79721e-11
1.51205e-11
1.18998e-09
-3.44124e-10
-2.96295e-10
-3.35726e-10
-2.64134e-10
4.38179e-11
-1.51926e-10
-1.8044e-10
-1.64683e-10
2.82584e-12
-6.32583e-11
2.07142e-10
-6.74577e-12
6.68069e-12
1.01479e-09
-2.49717e-10
-2.49174e-10
-2.51402e-10
-2.50834e-10
-1.37257e-11
6.7545e-12
1.01513e-09
-2.50272e-10
-2.48622e-10
-2.52002e-10
-2.5027e-10
-2.11706e-11
6.94e-12
1.0158e-09
-2.50812e-10
-2.48042e-10
-2.52608e-10
-2.49695e-10
-2.94521e-11
7.18821e-12
1.01703e-09
-2.5142e-10
-2.47451e-10
-2.53304e-10
-2.49121e-10
-3.90193e-11
7.61803e-12
1.01877e-09
-2.52e-10
-2.46784e-10
-2.54e-10
-2.48486e-10
-5.05302e-11
8.20595e-12
1.02168e-09
-2.52755e-10
-2.46117e-10
-2.54905e-10
-2.47849e-10
-6.51959e-11
9.05409e-12
1.02568e-09
-2.53427e-10
-2.45285e-10
-2.55754e-10
-2.47049e-10
-8.42906e-11
1.04316e-11
1.03253e-09
-2.54556e-10
-2.44516e-10
-2.57119e-10
-2.46268e-10
-1.11435e-10
1.20235e-11
1.04216e-09
-2.55418e-10
-2.43407e-10
-2.58183e-10
-2.45095e-10
-1.47443e-10
1.507e-11
1.05778e-09
-2.57571e-10
-2.42744e-10
-2.60723e-10
-2.44126e-10
-2.08683e-10
1.6247e-11
1.08449e-09
-2.5815e-10
-2.42297e-10
-2.61193e-10
-2.42869e-10
-3.1523e-10
1.71559e-11
1.16331e-09
-2.69789e-10
-2.45711e-10
-2.72271e-10
-2.42852e-10
-5.23791e-10
2.83061e-12
1.30129e-09
-2.99201e-10
-2.46109e-10
-2.95393e-10
-2.35456e-10
3.139e-11
-8.50965e-12
1.0205e-09
-3.38693e-10
-2.47513e-10
-3.24321e-10
-2.1755e-10
3.70524e-11
-2.31816e-10
-2.29214e-10
-2.2048e-10
3.94019e-11
-1.83301e-11
-2.65092e-11
2.57307e-10
-6.67374e-12
1.01446e-09
-2.50272e-10
-2.49729e-10
-2.50827e-10
-2.5027e-10
-1.35835e-11
1.01479e-09
-2.50834e-10
-2.49174e-10
-2.514e-10
-2.49713e-10
-2.09521e-11
1.01543e-09
-2.51391e-10
-2.48599e-10
-2.5198e-10
-2.49141e-10
-2.91311e-11
1.01661e-09
-2.5202e-10
-2.48018e-10
-2.52638e-10
-2.48565e-10
-3.8589e-11
1.01827e-09
-2.52633e-10
-2.47366e-10
-2.53286e-10
-2.47918e-10
-4.99265e-11
1.02107e-09
-2.5343e-10
-2.46707e-10
-2.54128e-10
-2.47265e-10
-6.4375e-11
1.02485e-09
-2.54151e-10
-2.45876e-10
-2.54898e-10
-2.46431e-10
-8.30871e-11
1.03137e-09
-2.55368e-10
-2.4508e-10
-2.56174e-10
-2.45607e-10
-1.09791e-10
1.04031e-09
-2.56274e-10
-2.43881e-10
-2.57102e-10
-2.44342e-10
-1.45616e-10
1.05532e-09
-2.58659e-10
-2.42991e-10
-2.59528e-10
-2.4328e-10
-2.06839e-10
1.08031e-09
-2.59413e-10
-2.41749e-10
-2.60084e-10
-2.4165e-10
-3.15407e-10
1.15369e-09
-2.72746e-10
-2.41821e-10
-2.72722e-10
-2.40791e-10
-5.25182e-10
1.27916e-09
-2.99811e-10
-2.35633e-10
-2.98267e-10
-2.33032e-10
2.35022e-11
1.01541e-09
-3.37085e-10
-2.25356e-10
-3.35287e-10
-2.24515e-10
2.34076e-11
-2.37551e-10
-2.36542e-10
-2.17669e-10
8.60319e-12
-2.09757e-11
-4.45541e-12
2.58001e-10
-6.08223e-11
6.27813e-13
-1.64012e-11
7.64807e-11
-4.83514e-11
-8.76993e-13
3.46273e-13
-1.75622e-11
6.64443e-11
-8.34098e-12
1.03306e-12
-1.21435e-11
1.94514e-11
-1.0185e-11
1.39362e-10
9.50607e-10
6.12413e-11
6.13916e-11
-9.3419e-11
-9.37567e-11
-1.79522e-11
1.32853e-10
9.49597e-10
6.46762e-11
6.49682e-11
-9.19286e-11
-9.19111e-11
-4.44724e-11
1.5607e-10
1.09609e-09
5.73079e-11
3.90585e-11
-7.99082e-11
-5.21145e-11
6.7296e-11
1.15571e-10
8.33237e-10
4.55336e-11
5.43411e-11
-5.32272e-11
-5.85114e-11
4.53629e-11
-7.54541e-11
-5.86907e-11
-9.1934e-11
9.81106e-12
1.87509e-11
-1.35555e-11
1.44225e-10
-3.7283e-11
-4.00693e-12
-2.93032e-12
-1.07687e-11
5.4989e-11
-9.63521e-12
1.35232e-10
1.29282e-09
-1.28676e-11
1.34568e-10
1.3028e-09
-1.10361e-11
1.6362e-10
1.3793e-09
-8.89879e-12
1.46849e-10
1.34367e-09
-5.56613e-11
1.55018e-10
1.04242e-09
4.01307e-11
6.11908e-11
-6.57009e-11
-7.35355e-11
7.65231e-11
1.52684e-10
8.01165e-10
5.38628e-11
6.69497e-11
-9.07098e-11
-8.88346e-11
4.27989e-11
-9.13955e-11
-6.46808e-11
-8.39089e-11
1.54312e-11
1.63269e-11
-4.06785e-12
1.3274e-10
-4.93117e-11
-7.29712e-12
-4.29595e-12
-9.79494e-12
7.06997e-11
-2.25268e-11
1.42728e-10
1.16866e-09
-4.54104e-11
1.43745e-10
1.177e-09
-6.02003e-11
1.60176e-10
1.21662e-09
-6.92034e-11
1.46816e-10
1.263e-09
-7.41625e-11
1.56056e-10
1.32282e-09
-4.93242e-11
1.43948e-10
1.32181e-09
-6.87483e-11
1.45321e-10
1.02452e-09
3.91319e-11
6.38936e-11
-7.1091e-11
-8.43449e-11
7.01715e-11
1.47901e-10
8.38148e-10
5.52912e-11
6.65723e-11
-9.41772e-11
-9.10806e-11
4.10419e-11
-8.10881e-11
-6.03224e-11
-1.15512e-10
1.47751e-11
1.4762e-11
-1.1099e-11
1.67248e-10
-1.48928e-11
2.88751e-12
-1.85006e-11
3.05059e-11
-1.66474e-11
1.23621e-10
1.11605e-09
-3.35569e-11
1.25095e-10
1.12005e-09
-4.84164e-11
1.37223e-10
1.13255e-09
-6.77373e-11
1.3521e-10
1.14812e-09
-8.23321e-11
1.44886e-10
1.19986e-09
-8.66155e-11
1.35164e-10
1.25545e-09
-8.41433e-11
1.39813e-10
1.31564e-09
-4.99381e-11
1.30998e-10
1.32255e-09
-6.48902e-11
1.22758e-10
1.00325e-09
4.1491e-11
5.71072e-11
-6.5321e-11
-7.47327e-11
5.02405e-11
7.80997e-11
8.00785e-10
6.28676e-11
6.07937e-11
-7.38757e-11
-5.645e-11
3.38087e-11
-4.8173e-11
-4.34887e-11
-8.16262e-12
9.00048e-12
4.94038e-11
-1.56232e-11
1.06699e-10
1.08786e-09
-3.15388e-11
1.07536e-10
1.09126e-09
-4.5776e-11
1.14697e-10
1.09897e-09
-6.11914e-11
1.14911e-10
1.10391e-09
-7.5658e-11
1.24416e-10
1.1209e-09
-9.08773e-11
1.22639e-10
1.13817e-09
-1.01032e-10
1.29158e-10
1.19105e-09
-9.97427e-11
1.20171e-10
1.24324e-09
-8.97718e-11
1.17076e-10
1.28677e-09
-7.83858e-11
8.96994e-11
1.3081e-09
6.06864e-11
6.50328e-11
8.00377e-10
3.39325e-11
5.03269e-11
-4.36146e-11
-4.81532e-11