/*--------------------------------*- C++ -*----------------------------------*\
| =========                 |                                                 |
| \\      /  F ield         | OpenFOAM: The Open Source CFD Toolbox           |
|  \\    /   O peration     | Version:  2.1.1                                 |
|   \\  /    A nd           | Web:      www.OpenFOAM.org                      |
|    \\/     M anipulation  |                                                 |
\*---------------------------------------------------------------------------*/
FoamFile
{
    version     2.0;
    format      ascii;
    class       volScalarField;
    location    "0.08";
    object      p;
}
// * * * * * * * * * * * * * * * * * * * * * * * * * * * * * * * * * * * * * //

dimensions      [0 2 -2 0 0 0 0];

internalField   nonuniform List<scalar> 
163952
(
0.0416999
0.0411237
0.0363875
0.0311928
0.0299961
0.0273847
0.0267947
0.026471
0.0367075
0.0323655
0.027324
0.0248343
0.0235908
0.0228119
0.0224976
0.0223564
0.0337387
0.0280018
0.0244982
0.0228586
0.021946
0.0214082
0.0210696
0.0208894
0.0208039
0.0336084
0.0261096
0.0232753
0.0219288
0.0211736
0.0206949
0.0203753
0.0201638
0.0200376
0.0199742
0.0336096
0.0255676
0.0227511
0.0214729
0.0207581
0.0202944
0.0199705
0.0197398
0.0195803
0.0194799
0.0194275
0.0337389
0.0261097
0.022751
0.0213294
0.0205669
0.0200782
0.0197328
0.019479
0.0192924
0.0191605
0.0190749
0.0190295
0.0367072
0.0280017
0.0232753
0.0214729
0.0205669
0.0200086
0.0196204
0.0193338
0.0191182
0.0189577
0.0188429
0.0187674
0.018727
0.0323655
0.0244981
0.0219288
0.0207581
0.0200782
0.0196204
0.0192869
0.0190353
0.0188441
0.0187008
0.0185978
0.0185296
0.0184928
0.0363875
0.027324
0.0228585
0.0211735
0.0202944
0.0197328
0.0193338
0.0190353
0.0188073
0.0186331
0.0185021
0.0184075
0.0183446
0.0183106
0.0311928
0.0248343
0.021946
0.0206948
0.0199705
0.0194789
0.0191182
0.018844
0.0186331
0.0184712
0.018349
0.0182605
0.0182016
0.0181697
0.029996
0.0235907
0.0214082
0.0203753
0.0197397
0.0192924
0.0189577
0.0187008
0.0185021
0.018349
0.0182332
0.0181492
0.0180931
0.0180626
0.0273847
0.0228118
0.0210696
0.0201637
0.0195803
0.0191604
0.0188428
0.0185977
0.0184075
0.0182605
0.0181491
0.0180681
0.018014
0.0179846
0.0416999
0.0267946
0.0224975
0.0208893
0.0200376
0.0194798
0.0190749
0.0187674
0.0185295
0.0183446
0.0182016
0.018093
0.018014
0.0179612
0.0179324
0.0411236
0.0264709
0.0223563
0.0208038
0.0199741
0.0194274
0.0190295
0.0187269
0.0184928
0.0183106
0.0181696
0.0180626
0.0179846
0.0179324
0.0179041
0.023526
0.0235828
0.0225206
0.0237299
0.0224609
0.0221469
0.0221021
0.0220813
0.0226253
0.0244392
0.0221265
0.0218143
0.0215538
0.0213631
0.0212883
0.0212366
0.0234034
0.0221782
0.0217604
0.0213485
0.0210079
0.0207293
0.0205446
0.0204485
0.0203991
0.0221478
0.0218575
0.0214203
0.0209791
0.0205865
0.0202754
0.0200392
0.0198796
0.0197875
0.0197432
0.0221484
0.0217283
0.0212362
0.0207324
0.0203055
0.0199631
0.0197037
0.0195125
0.0193807
0.0193005
0.019262
0.0234035
0.0218577
0.0212362
0.0206524
0.0201636
0.0197857
0.0194966
0.0192788
0.0191181
0.0190059
0.0189356
0.0189016
0.0226253
0.0221783
0.0214204
0.0207324
0.0201636
0.0197271
0.0193978
0.0191475
0.0189582
0.0188179
0.018719
0.0186562
0.0186256
0.0244392
0.0217604
0.0209791
0.0203055
0.0197857
0.0193978
0.019105
0.0188819
0.0187124
0.0185862
0.0184967
0.0184394
0.0184114
0.0225205
0.0221264
0.0213485
0.0205865
0.0199631
0.0194966
0.0191474
0.0188819
0.0186783
0.0185229
0.0184066
0.0183238
0.0182706
0.0182445
0.0237298
0.0218143
0.0210078
0.0202753
0.0197036
0.0192788
0.0189582
0.0187124
0.0185229
0.0183775
0.0182684
0.0181904
0.0181401
0.0181155
0.0224609
0.0215537
0.0207292
0.0200392
0.0195124
0.0191181
0.0188179
0.0185862
0.0184066
0.0182684
0.0181643
0.0180898
0.0180417
0.0180181
0.0221468
0.021363
0.0205445
0.0198795
0.0193807
0.0190058
0.0187189
0.0184967
0.0183238
0.0181904
0.0180898
0.0180177
0.0179711
0.0179482
0.0235259
0.022102
0.0212883
0.0204485
0.0197874
0.0193005
0.0189355
0.0186561
0.0184393
0.0182705
0.0181401
0.0180417
0.0179711
0.0179254
0.017903
0.0235827
0.0220812
0.0212365
0.020399
0.0197431
0.0192619
0.0189016
0.0186256
0.0184114
0.0182445
0.0181155
0.0180181
0.0179482
0.0179029
0.0178807
0.0198823
0.0198966
0.0199613
0.0203433
0.0205668
0.0204511
0.0203437
0.0203031
0.019968
0.020812
0.0203618
0.0202839
0.0201891
0.0201504
0.020121
0.0200957
0.0201784
0.0203756
0.0202753
0.0201548
0.0200182
0.0198738
0.0197825
0.0197275
0.0196971
0.0205255
0.0203086
0.0201836
0.0200038
0.0198119
0.0196462
0.0195064
0.0194064
0.0193442
0.019313
0.0205262
0.0202634
0.0201105
0.019889
0.0196642
0.0194617
0.0192957
0.0191645
0.0190699
0.01901
0.0189804
0.0201784
0.0203088
0.0201105
0.0198511
0.0195854
0.0193519
0.0191556
0.0189974
0.0188748
0.0187864
0.0187299
0.0187021
0.0199681
0.0203756
0.0201836
0.019889
0.0195854
0.0193145
0.0190863
0.0188991
0.0187501
0.0186358
0.0185533
0.0185002
0.0184741
0.0208119
0.0202752
0.0200038
0.0196642
0.0193519
0.0190863
0.0188667
0.0186891
0.0185488
0.0184416
0.0183643
0.0183142
0.0182896
0.0199613
0.0203618
0.0201548
0.0198119
0.0194617
0.0191556
0.0188991
0.018689
0.0185203
0.0183874
0.018286
0.0182128
0.0181653
0.018142
0.0203432
0.0202838
0.0200181
0.0196461
0.0192956
0.0189974
0.0187501
0.0185488
0.0183874
0.0182605
0.0181636
0.0180936
0.0180482
0.0180258
0.0205667
0.020189
0.0198737
0.0195064
0.0191644
0.0188748
0.0186358
0.0184416
0.018286
0.0181636
0.0180702
0.0180026
0.0179587
0.0179371
0.0204511
0.0201503
0.0197824
0.0194064
0.0190699
0.0187864
0.0185533
0.0183642
0.0182128
0.0180936
0.0180026
0.0179367
0.017894
0.0178729
0.0198822
0.0203436
0.020121
0.0197274
0.0193441
0.0190099
0.0187298
0.0185001
0.0183142
0.0181653
0.0180482
0.0179587
0.0178939
0.0178519
0.0178311
0.0198965
0.020303
0.0200956
0.0196971
0.0193129
0.0189804
0.018702
0.0184741
0.0182896
0.018142
0.0180258
0.0179371
0.0178729
0.0178311
0.0178106
0.018535
0.0185454
0.0186521
0.0188792
0.0192101
0.0192097
0.0191573
0.0191353
0.018667
0.0190929
0.0191329
0.0191205
0.0190913
0.0190928
0.0190916
0.0190881
0.0188078
0.0191367
0.0191243
0.0191173
0.0190887
0.0190371
0.0190014
0.0189761
0.0189618
0.01924
0.0191401
0.0191341
0.019084
0.0190179
0.0189538
0.0188911
0.0188413
0.0188067
0.0187885
0.0192406
0.0191204
0.0191154
0.0190525
0.0189632
0.01887
0.0187843
0.0187099
0.0186529
0.0186148
0.0185954
0.0188078
0.0191402
0.0191154
0.0190412
0.0189326
0.0188166
0.0187064
0.0186095
0.0185293
0.0184689
0.0184289
0.0184089
0.018667
0.0191368
0.0191341
0.0190525
0.0189326
0.018798
0.0186661
0.0185467
0.0184451
0.0183632
0.0183021
0.0182619
0.0182418
0.0190928
0.0191243
0.019084
0.0189632
0.0188166
0.0186661
0.0185256
0.0184024
0.0182996
0.018218
0.0181576
0.0181179
0.0180982
0.0186521
0.0191329
0.0191173
0.0190179
0.01887
0.0187064
0.0185467
0.0184024
0.0182784
0.0181763
0.0180959
0.0180366
0.0179976
0.0179783
0.0188791
0.0191204
0.0190887
0.0189537
0.0187843
0.0186095
0.0184451
0.0182996
0.0181763
0.0180755
0.0179965
0.0179383
0.0179001
0.0178812
0.01921
0.0190912
0.019037
0.018891
0.0187098
0.0185292
0.0183631
0.018218
0.0180959
0.0179965
0.0179188
0.0178617
0.0178242
0.0178057
0.0192097
0.0190927
0.0190013
0.0188413
0.0186528
0.0184688
0.0183021
0.0181576
0.0180365
0.0179383
0.0178617
0.0178054
0.0177685
0.0177502
0.0185349
0.0191572
0.0190915
0.018976
0.0188067
0.0186147
0.0184288
0.0182618
0.0181178
0.0179976
0.0179001
0.0178242
0.0177685
0.0177319
0.0177138
0.0185453
0.0191352
0.019088
0.0189617
0.0187884
0.0185953
0.0184089
0.0182418
0.0180981
0.0179782
0.0178812
0.0178056
0.0177502
0.0177138
0.0176958
0.017817
0.0178252
0.0178779
0.0180266
0.018243
0.0182865
0.018277
0.0182754
0.0179028
0.0181352
0.0182431
0.0182622
0.0182678
0.0182802
0.0182885
0.018293
0.0179927
0.0182444
0.0182707
0.0183039
0.0183224
0.018322
0.0183191
0.0183131
0.0183088
0.0182769
0.0182664
0.0183104
0.0183239
0.0183242
0.0183168
0.0183015
0.0182855
0.0182719
0.0182639
0.0182773
0.0182612
0.0183173
0.0183328
0.0183205
0.0182955
0.0182642
0.0182315
0.0182038
0.0181838
0.0181733
0.0179926
0.0182665
0.0183172
0.0183355
0.0183176
0.0182787
0.0182311
0.0181825
0.018138
0.0181025
0.0180779
0.0180653
0.0179028
0.0182444
0.0183104
0.0183328
0.0183176
0.0182726
0.0182125
0.0181488
0.018089
0.0180374
0.0179972
0.01797
0.0179562
0.0181352
0.0182707
0.0183238
0.0183205
0.0182787
0.0182125
0.0181371
0.0180629
0.0179962
0.0179405
0.0178978
0.0178691
0.0178546
0.0178779
0.0182431
0.0183039
0.0183242
0.0182955
0.0182311
0.0181488
0.0180628
0.0179821
0.0179114
0.0178534
0.0178094
0.01778
0.0177652
0.0180265
0.0182622
0.0183224
0.0183167
0.0182641
0.0181825
0.0180889
0.0179961
0.0179114
0.0178385
0.0177793
0.0177347
0.017705
0.0176901
0.0182429
0.0182677
0.0183219
0.0183014
0.0182314
0.018138
0.0180374
0.0179404
0.0178534
0.0177793
0.0177196
0.0176748
0.0176449
0.01763
0.0182864
0.0182801
0.018319
0.0182855
0.0182037
0.0181024
0.0179972
0.0178977
0.0178094
0.0177347
0.0176747
0.0176298
0.0176
0.0175851
0.0178169
0.0182768
0.0182884
0.018313
0.0182718
0.0181837
0.0180778
0.0179699
0.017869
0.0177799
0.0177049
0.0176449
0.0176
0.0175702
0.0175553
0.0178251
0.0182753
0.0182929
0.0183087
0.0182638
0.0181732
0.0180652
0.0179561
0.0178546
0.0177652
0.0176901
0.01763
0.0175851
0.0175553
0.0175405
0.0173068
0.0173136
0.017326
0.0174188
0.017544
0.0175944
0.0175995
0.0176056
0.017348
0.017492
0.0175739
0.017605
0.0176264
0.0176458
0.0176565
0.0176625
0.0174029
0.0175743
0.0176158
0.01766
0.017694
0.0177148
0.0177288
0.0177345
0.0177364
0.0175748
0.0176016
0.0176598
0.0176985
0.0177278
0.0177477
0.017758
0.0177625
0.0177628
0.0177621
0.017575
0.0176058
0.0176766
0.0177227
0.0177484
0.0177614
0.0177639
0.0177594
0.0177527
0.0177465
0.0177429
0.0174029
0.0176016
0.0176765
0.0177311
0.017759
0.0177664
0.0177608
0.0177473
0.0177305
0.0177149
0.0177032
0.0176969
0.017348
0.0175743
0.0176598
0.0177226
0.017759
0.0177679
0.0177574
0.0177357
0.0177094
0.0176834
0.0176614
0.0176458
0.0176376
0.0174919
0.0176158
0.0176985
0.0177483
0.0177664
0.0177574
0.0177312
0.0176969
0.0176613
0.0176288
0.0176024
0.0175841
0.0175747
0.0173259
0.0175739
0.0176599
0.0177277
0.0177613
0.0177608
0.0177356
0.0176969
0.0176534
0.0176112
0.0175743
0.0175451
0.017525
0.0175148
0.0174187
0.0176049
0.017694
0.0177476
0.0177638
0.0177472
0.0177093
0.0176612
0.0176112
0.0175646
0.0175247
0.0174936
0.0174724
0.0174616
0.0175439
0.0176263
0.0177147
0.0177579
0.0177593
0.0177304
0.0176833
0.0176287
0.0175742
0.0175247
0.0174829
0.0174506
0.0174287
0.0174176
0.0175942
0.0176457
0.0177287
0.0177624
0.0177526
0.0177149
0.0176614
0.0176024
0.017545
0.0174936
0.0174506
0.0174175
0.0173951
0.0173839
0.0173067
0.0175994
0.0176564
0.0177344
0.0177627
0.0177464
0.0177031
0.0176457
0.0175841
0.0175249
0.0174723
0.0174286
0.0173951
0.0173725
0.0173611
0.0173135
0.0176055
0.0176624
0.0177363
0.017762
0.0177428
0.0176969
0.0176376
0.0175747
0.0175147
0.0174616
0.0174176
0.0173839
0.0173611
0.0173497
0.0168734
0.016881
0.0168735
0.0169333
0.0170002
0.0170463
0.0170554
0.0170633
0.0168914
0.0169926
0.0170398
0.0170712
0.0170965
0.0171194
0.0171316
0.0171384
0.0169258
0.0170398
0.0170834
0.0171275
0.0171641
0.017191
0.0172118
0.0172236
0.017229
0.0170268
0.0170654
0.017124
0.0171698
0.0172092
0.0172408
0.0172634
0.0172789
0.0172875
0.0172913
0.017027
0.0170729
0.0171424
0.0171977
0.0172399
0.0172722
0.0172941
0.0173073
0.0173146
0.017318
0.0173192
0.0169257
0.0170654
0.0171423
0.0172077
0.0172562
0.0172894
0.0173099
0.01732
0.0173231
0.0173225
0.0173208
0.0173195
0.0168914
0.0170397
0.017124
0.0171976
0.0172562
0.0172952
0.0173164
0.0173241
0.0173229
0.0173169
0.0173098
0.0173038
0.0173004
0.0169925
0.0170833
0.0171698
0.0172399
0.0172894
0.0173164
0.0173249
0.017321
0.0173102
0.0172971
0.0172848
0.0172756
0.0172707
0.0168734
0.0170397
0.0171274
0.0172092
0.0172722
0.0173099
0.0173241
0.017321
0.0173075
0.0172893
0.0172707
0.0172547
0.0172431
0.0172371
0.0169332
0.0170711
0.017164
0.0172407
0.017294
0.01732
0.0173228
0.0173102
0.0172893
0.0172656
0.0172431
0.0172244
0.0172112
0.0172044
0.0170001
0.0170963
0.0171909
0.0172633
0.0173072
0.017323
0.0173169
0.017297
0.0172707
0.0172431
0.0172179
0.0171973
0.017183
0.0171756
0.0170461
0.0171193
0.0172117
0.0172788
0.0173145
0.0173224
0.0173097
0.0172848
0.0172547
0.0172244
0.0171973
0.0171756
0.0171605
0.0171528
0.0168732
0.0170553
0.0171315
0.0172235
0.0172874
0.0173179
0.0173207
0.0173037
0.0172755
0.0172431
0.0172112
0.017183
0.0171605
0.0171449
0.017137
0.0168808
0.0170631
0.0171382
0.0172289
0.0172912
0.0173191
0.0173194
0.0173003
0.0172706
0.017237
0.0172043
0.0171756
0.0171527
0.017137
0.0171289
0.0164833
0.0164913
0.01648
0.0165193
0.0165512
0.0165897
0.0165995
0.0166072
0.0164933
0.0165705
0.0165918
0.0166195
0.0166431
0.0166659
0.0166785
0.0166855
0.0165162
0.0165917
0.0166318
0.0166721
0.0167064
0.0167333
0.0167555
0.0167695
0.0167763
0.0165736
0.0166132
0.0166671
0.0167125
0.0167534
0.0167884
0.0168158
0.0168363
0.0168491
0.0168553
0.0165736
0.0166209
0.0166841
0.0167394
0.0167869
0.0168273
0.016859
0.016882
0.0168978
0.0169072
0.0169116
0.0165162
0.0166132
0.0166841
0.0167491
0.0168048
0.0168504
0.0168854
0.0169101
0.0169261
0.0169359
0.0169413
0.0169436
0.0164932
0.0165916
0.0166671
0.0167393
0.0168048
0.0168582
0.0168978
0.0169244
0.0169405
0.0169491
0.0169531
0.0169546
0.016955
0.0165704
0.0166317
0.0167125
0.0167868
0.0168504
0.0168978
0.0169287
0.0169462
0.0169541
0.016956
0.016955
0.0169533
0.0169521
0.0164799
0.0165917
0.016672
0.0167533
0.0168272
0.0168853
0.0169244
0.0169462
0.0169552
0.016956
0.0169525
0.0169476
0.0169433
0.0169408
0.0165192
0.0166193
0.0167063
0.0167883
0.0168589
0.01691
0.0169405
0.016954
0.016956
0.0169512
0.0169434
0.0169355
0.0169293
0.016926
0.0165511
0.016643
0.0167332
0.0168157
0.0168819
0.016926
0.0169491
0.016956
0.0169525
0.0169434
0.0169326
0.0169225
0.0169149
0.0169109
0.0165895
0.0166657
0.0167554
0.0168362
0.0168977
0.0169358
0.0169531
0.016955
0.0169475
0.0169355
0.0169225
0.0169109
0.0169024
0.016898
0.0164831
0.0165993
0.0166783
0.0167693
0.016849
0.0169071
0.0169412
0.0169545
0.0169532
0.0169432
0.0169293
0.0169149
0.0169024
0.0168933
0.0168886
0.0164911
0.016607
0.0166854
0.0167762
0.0168551
0.0169115
0.0169435
0.0169549
0.016952
0.0169408
0.0169259
0.0169109
0.0168979
0.0168886
0.0168837
0.0161278
0.0161354
0.0161265
0.0161529
0.0161643
0.0161951
0.0162042
0.0162109
0.0161363
0.0161978
0.0162021
0.0162253
0.0162458
0.0162664
0.0162781
0.0162849
0.0161529
0.016202
0.0162371
0.0162724
0.016303
0.0163276
0.0163486
0.0163624
0.0163695
0.0161832
0.0162197
0.0162673
0.016309
0.0163476
0.0163817
0.0164097
0.0164316
0.016446
0.0164531
0.0161833
0.0162267
0.0162822
0.0163333
0.0163801
0.0164222
0.0164575
0.016485
0.0165051
0.0165179
0.0165241
0.0161528
0.0162197
0.0162821
0.0163421
0.0163977
0.0164472
0.0164889
0.0165214
0.0165452
0.0165615
0.0165715
0.0165762
0.0161362
0.0162019
0.0162672
0.0163333
0.0163977
0.0164558
0.0165043
0.0165418
0.0165688
0.0165873
0.0165991
0.016606
0.0166091
0.0161977
0.016237
0.016309
0.01638
0.0164472
0.0165043
0.0165483
0.0165796
0.0166004
0.0166133
0.0166208
0.0166248
0.0166265
0.0161264
0.0162019
0.0162723
0.0163475
0.0164221
0.0164888
0.0165417
0.0165796
0.0166043
0.0166192
0.0166272
0.0166311
0.0166326
0.0166331
0.0161528
0.0162251
0.0163029
0.0163816
0.0164574
0.0165213
0.0165688
0.0166003
0.0166191
0.0166289
0.0166329
0.0166339
0.0166335
0.0166331
0.0161641
0.0162456
0.0163274
0.0164096
0.0164849
0.0165451
0.0165872
0.0166132
0.0166272
0.0166329
0.0166339
0.0166326
0.0166308
0.0166297
0.016195
0.0162662
0.0163485
0.0164315
0.016505
0.0165614
0.016599
0.0166208
0.016631
0.0166338
0.0166326
0.0166297
0.0166269
0.0166253
0.0161276
0.016204
0.0162779
0.0163623
0.0164458
0.0165178
0.0165714
0.0166058
0.0166247
0.0166326
0.0166335
0.0166308
0.0166269
0.0166235
0.0166216
0.0161351
0.0162107
0.0162847
0.0163693
0.0164529
0.016524
0.0165761
0.016609
0.0166264
0.016633
0.016633
0.0166296
0.0166253
0.0166216
0.0166195
0.0158017
0.0158083
0.0158027
0.0158209
0.0158197
0.0158443
0.015852
0.0158576
0.0158102
0.0158605
0.0158533
0.0158726
0.0158899
0.0159076
0.0159179
0.0159239
0.0158232
0.0158535
0.0158836
0.015914
0.0159404
0.015962
0.0159808
0.0159934
0.0160001
0.0158362
0.0158683
0.0159093
0.0159462
0.0159808
0.0160122
0.0160385
0.0160597
0.016074
0.0160812
0.0158362
0.0158744
0.0159222
0.0159676
0.0160108
0.0160511
0.0160862
0.0161148
0.0161364
0.0161506
0.0161576
0.0158231
0.0158683
0.0159221
0.0159754
0.0160271
0.0160757
0.0161189
0.0161546
0.0161821
0.0162019
0.0162146
0.0162208
0.0158101
0.0158534
0.0159092
0.0159676
0.016027
0.0160843
0.0161354
0.0161779
0.016211
0.0162354
0.0162522
0.0162626
0.0162676
0.0158604
0.0158835
0.0159461
0.0160107
0.0160757
0.0161354
0.0161855
0.0162248
0.0162538
0.0162741
0.0162876
0.0162957
0.0162995
0.0158025
0.0158532
0.0159139
0.0159807
0.016051
0.0161188
0.0161778
0.0162248
0.0162596
0.016284
0.0163004
0.0163108
0.0163168
0.0163196
0.0158208
0.0158724
0.0159403
0.016012
0.0160861
0.0161545
0.0162109
0.0162537
0.016284
0.0163043
0.0163173
0.016325
0.0163293
0.0163312
0.0158195
0.0158898
0.0159618
0.0160384
0.0161146
0.016182
0.0162353
0.016274
0.0163004
0.0163172
0.0163274
0.0163331
0.016336
0.0163372
0.0158441
0.0159074
0.0159806
0.0160596
0.0161362
0.0162018
0.0162521
0.0162875
0.0163107
0.016325
0.0163331
0.0163373
0.0163392
0.01634
0.0158013
0.0158518
0.0159177
0.0159932
0.0160738
0.0161504
0.0162145
0.0162625
0.0162956
0.0163168
0.0163293
0.016336
0.0163392
0.0163405
0.016341
0.0158079
0.0158573
0.0159237
0.0159999
0.016081
0.0161574
0.0162206
0.0162675
0.0162994
0.0163195
0.0163311
0.0163372
0.0163399
0.0163409
0.0163412
0.0154991
0.0155046
0.0155018
0.0155152
0.0155051
0.0155248
0.0155311
0.0155357
0.0155079
0.0155497
0.0155346
0.0155505
0.0155651
0.0155799
0.0155885
0.0155937
0.0155186
0.0155352
0.0155607
0.0155865
0.0156091
0.0156275
0.0156437
0.0156547
0.0156606
0.01552
0.0155478
0.0155827
0.0156146
0.0156448
0.0156725
0.0156961
0.0157154
0.0157287
0.0157355
0.01552
0.0155531
0.0155939
0.0156333
0.0156716
0.0157082
0.015741
0.0157684
0.0157897
0.0158039
0.0158111
0.0155185
0.0155478
0.0155938
0.01564
0.0156862
0.0157312
0.0157727
0.0158084
0.0158369
0.015858
0.0158719
0.0158787
0.0155078
0.0155351
0.0155827
0.0156332
0.0156861
0.0157393
0.0157891
0.0158325
0.015868
0.0158953
0.0159149
0.0159274
0.0159335
0.0155496
0.0155606
0.0156145
0.0156715
0.0157312
0.015789
0.0158406
0.0158833
0.0159167
0.0159415
0.0159588
0.0159696
0.0159748
0.0155017
0.0155344
0.0155864
0.0156447
0.015708
0.0157727
0.0158325
0.0158833
0.0159236
0.0159541
0.015976
0.0159909
0.016
0.0160044
0.015515
0.0155504
0.0156089
0.0156723
0.0157409
0.0158083
0.015868
0.0159167
0.0159541
0.0159814
0.0160006
0.0160133
0.016021
0.0160247
0.0155048
0.0155648
0.0156273
0.0156959
0.0157683
0.0158367
0.0158952
0.0159414
0.0159759
0.0160006
0.0160174
0.0160284
0.0160349
0.016038
0.0155246
0.0155797
0.0156434
0.0157152
0.0157895
0.0158579
0.0159148
0.0159587
0.0159908
0.0160133
0.0160284
0.0160381
0.0160437
0.0160463
0.0154987
0.0155309
0.0155883
0.0156545
0.0157285
0.0158038
0.0158717
0.0159273
0.0159695
0.016
0.016021
0.0160349
0.0160437
0.0160488
0.0160511
0.0155042
0.0155354
0.0155934
0.0156603
0.0157353
0.0158109
0.0158786
0.0159334
0.0159747
0.0160043
0.0160246
0.0160379
0.0160463
0.0160511
0.0160532
0.0152149
0.0152195
0.0152188
0.0152294
0.0152127
0.0152287
0.0152337
0.0152374
0.015224
0.0152594
0.0152385
0.0152518
0.0152638
0.0152761
0.015283
0.0152874
0.0152333
0.0152398
0.0152613
0.015283
0.0153019
0.0153173
0.0153308
0.0153401
0.0153451
0.0152268
0.0152507
0.0152803
0.0153074
0.015333
0.0153568
0.0153772
0.0153941
0.0154058
0.0154119
0.0152268
0.0152554
0.0152899
0.0153235
0.0153565
0.0153885
0.0154179
0.0154429
0.0154626
0.015476
0.0154829
0.0152332
0.0152507
0.0152899
0.0153293
0.0153693
0.0154094
0.0154473
0.0154809
0.0155084
0.0155294
0.0155433
0.0155502
0.0152239
0.0152396
0.0152802
0.0153234
0.0153693
0.0154167
0.0154627
0.0155044
0.0155397
0.0155676
0.0155882
0.0156017
0.0156083
0.0152592
0.0152612
0.0153073
0.0153564
0.0154093
0.0154627
0.0155123
0.0155553
0.0155903
0.0156172
0.0156365
0.0156489
0.015655
0.0152186
0.0152384
0.0152829
0.0153329
0.0153884
0.0154472
0.0155043
0.0155552
0.0155977
0.0156312
0.0156563
0.015674
0.0156852
0.0156907
0.0152291
0.0152516
0.0153017
0.0153566
0.0154177
0.0154807
0.0155396
0.0155902
0.0156312
0.0156627
0.0156859
0.0157019
0.015712
0.0157169
0.0152124
0.0152636
0.0153171
0.015377
0.0154427
0.0155083
0.0155675
0.0156171
0.0156562
0.0156858
0.0157073
0.0157219
0.0157311
0.0157354
0.0152284
0.0152758
0.0153306
0.0153938
0.0154624
0.0155292
0.0155881
0.0156364
0.0156739
0.0157019
0.0157219
0.0157355
0.0157439
0.0157479
0.0152145
0.0152334
0.0152828
0.0153398
0.0154055
0.0154758
0.0155431
0.0156015
0.0156488
0.0156851
0.015712
0.015731
0.0157439
0.0157518
0.0157556
0.015219
0.0152371
0.0152871
0.0153448
0.0154116
0.0154826
0.01555
0.0156081
0.0156548
0.0156905
0.0157168
0.0157354
0.0157479
0.0157556
0.0157592
0.0149449
0.0149488
0.0149499
0.0149591
0.0149374
0.0149504
0.0149541
0.0149572
0.0149547
0.0149852
0.0149603
0.0149713
0.014981
0.014991
0.0149963
0.0149999
0.0149632
0.0149622
0.0149803
0.0149984
0.0150139
0.0150264
0.0150373
0.0150447
0.0150488
0.0149514
0.014972
0.0149969
0.0150194
0.0150407
0.0150604
0.0150774
0.0150915
0.0151014
0.0151066
0.0149514
0.0149761
0.0150053
0.0150333
0.0150609
0.015088
0.0151132
0.015135
0.0151525
0.0151645
0.0151707
0.0149631
0.0149719
0.0150052
0.0150383
0.015072
0.0151063
0.0151396
0.0151697
0.0151951
0.0152147
0.0152279
0.0152345
0.0149546
0.014962
0.0149968
0.0150332
0.015072
0.0151127
0.0151536
0.0151917
0.0152249
0.0152519
0.0152722
0.0152857
0.0152924
0.014985
0.0149801
0.0150193
0.0150608
0.0151062
0.0151535
0.0151991
0.01524
0.0152745
0.0153017
0.0153217
0.0153348
0.0153412
0.0149496
0.01496
0.0149982
0.0150405
0.0150879
0.0151395
0.0151916
0.01524
0.015282
0.0153162
0.0153427
0.0153619
0.0153742
0.0153803
0.0149588
0.014971
0.0150137
0.0150602
0.015113
0.0151696
0.0152248
0.0152744
0.0153162
0.0153496
0.0153749
0.015393
0.0154046
0.0154102
0.0149371
0.0149808
0.0150261
0.0150772
0.0151348
0.0151949
0.0152518
0.0153016
0.0153427
0.0153749
0.0153991
0.0154162
0.015427
0.0154323
0.0149501
0.0149907
0.015037
0.0150913
0.0151522
0.0152144
0.0152721
0.0153216
0.0153618
0.015393
0.0154161
0.0154324
0.0154427
0.0154477
0.0149445
0.0149537
0.014996
0.0150444
0.0151011
0.0151642
0.0152277
0.0152855
0.0153346
0.0153741
0.0154045
0.015427
0.0154427
0.0154526
0.0154574
0.0149484
0.0149569
0.0149996
0.0150485
0.0151063
0.0151704
0.0152343
0.0152922
0.015341
0.0153801
0.0154101
0.0154322
0.0154477
0.0154574
0.0154621
0.0146859
0.0146895
0.014692
0.0147003
0.0146756
0.0146863
0.0146884
0.0146912
0.014697
0.0147238
0.0146963
0.0147053
0.0147129
0.0147206
0.0147244
0.0147273
0.0147052
0.0146991
0.014714
0.0147288
0.0147412
0.0147507
0.014759
0.0147645
0.0147678
0.0146906
0.0147081
0.0147287
0.0147469
0.0147638
0.0147795
0.0147929
0.0148041
0.014812
0.0148163
0.0146905
0.0147119
0.0147362
0.0147588
0.014781
0.0148029
0.0148236
0.0148417
0.0148564
0.0148667
0.014872
0.0147051
0.014708
0.0147361
0.0147631
0.0147904
0.0148185
0.0148465
0.0148724
0.0148947
0.0149122
0.0149242
0.0149303
0.0146968
0.0146989
0.0147286
0.0147587
0.0147903
0.0148241
0.0148588
0.0148922
0.0149221
0.0149471
0.0149662
0.0149791
0.0149855
0.0147236
0.0147138
0.0147467
0.0147808
0.0148185
0.0148587
0.0148989
0.0149363
0.0149686
0.0149949
0.0150146
0.0150276
0.0150341
0.0146917
0.0146961
0.0147286
0.0147636
0.0148027
0.0148464
0.0148921
0.0149362
0.0149758
0.0150093
0.0150357
0.0150553
0.0150681
0.0150744
0.0147
0.014705
0.0147409
0.0147792
0.0148234
0.0148723
0.014922
0.0149685
0.0150092
0.0150427
0.0150689
0.0150879
0.0151003
0.0151063
0.0146753
0.0147126
0.0147504
0.0147926
0.0148415
0.0148945
0.0149469
0.0149948
0.0150357
0.0150688
0.0150944
0.0151128
0.0151247
0.0151305
0.0146859
0.0147203
0.0147587
0.0148038
0.0148562
0.014912
0.014966
0.0150144
0.0150552
0.0150878
0.0151128
0.0151307
0.0151422
0.0151478
0.0146855
0.014688
0.014724
0.0147642
0.0148117
0.0148664
0.0149239
0.0149788
0.0150274
0.0150679
0.0151002
0.0151246
0.0151421
0.0151534
0.0151589
0.0146891
0.0146908
0.0147269
0.0147674
0.0148159
0.0148717
0.01493
0.0149853
0.0150339
0.0150742
0.0151062
0.0151305
0.0151478
0.0151589
0.0151643
0.0144354
0.0144389
0.0144432
0.014451
0.0144255
0.0144338
0.0144341
0.0144368
0.0144485
0.014473
0.0144443
0.0144514
0.0144566
0.014462
0.0144641
0.0144665
0.014457
0.0144481
0.01446
0.0144715
0.0144807
0.0144872
0.0144926
0.0144962
0.0144986
0.0144427
0.0144567
0.0144731
0.0144868
0.0144993
0.0145107
0.0145204
0.0145285
0.0145343
0.0145375
0.0144427
0.0144602
0.0144796
0.0144968
0.0145133
0.0145298
0.0145457
0.0145599
0.0145716
0.0145799
0.0145843
0.0144568
0.0144566
0.0144796
0.0145004
0.014521
0.0145427
0.0145649
0.0145862
0.0146049
0.0146199
0.0146303
0.0146357
0.0144483
0.0144479
0.0144729
0.0144967
0.014521
0.0145473
0.0145753
0.0146034
0.0146293
0.0146515
0.0146689
0.0146807
0.0146867
0.0144728
0.0144597
0.0144866
0.0145132
0.0145426
0.0145753
0.0146093
0.0146421
0.0146715
0.0146959
0.0147146
0.0147271
0.0147334
0.0144429
0.014444
0.0144712
0.0144991
0.0145296
0.0145648
0.0146033
0.0146421
0.0146783
0.0147097
0.0147352
0.0147544
0.0147672
0.0147735
0.0144506
0.014451
0.0144804
0.0145104
0.0145455
0.014586
0.0146292
0.0146714
0.0147097
0.0147421
0.014768
0.0147872
0.0147999
0.0148061
0.0144251
0.0144563
0.0144868
0.0145201
0.0145596
0.0146046
0.0146514
0.0146958
0.0147352
0.014768
0.0147939
0.0148129
0.0148253
0.0148314
0.0144333
0.0144616
0.0144922
0.0145282
0.0145713
0.0146196
0.0146687
0.0147144
0.0147543
0.0147872
0.0148128
0.0148316
0.0148438
0.0148498
0.0144349
0.0144337
0.0144637
0.0144958
0.0145339
0.0145796
0.01463
0.0146805
0.0147269
0.014767
0.0147998
0.0148252
0.0148437
0.0148558
0.0148617
0.0144384
0.0144363
0.0144661
0.0144982
0.0145371
0.0145839
0.0146353
0.0146864
0.0147332
0.0147733
0.014806
0.0148313
0.0148497
0.0148617
0.0148676
0.0141908
0.0141945
0.0142014
0.0142096
0.0141862
0.0141911
0.0141892
0.014192
0.0142072
0.0142309
0.0142028
0.0142077
0.0142101
0.0142124
0.0142128
0.0142149
0.0142167
0.0142076
0.0142162
0.0142242
0.0142299
0.0142328
0.014235
0.0142365
0.014238
0.0142085
0.0142159
0.0142277
0.0142364
0.014244
0.0142509
0.0142565
0.0142613
0.0142648
0.014267
0.0142084
0.014219
0.0142331
0.0142443
0.0142546
0.0142653
0.0142762
0.0142863
0.0142949
0.0143011
0.0143045
0.0142164
0.0142157
0.014233
0.0142471
0.0142605
0.0142754
0.0142916
0.014308
0.0143229
0.0143353
0.014344
0.0143486
0.014207
0.0142073
0.0142275
0.0142442
0.0142605
0.014279
0.0143001
0.0143225
0.0143442
0.0143634
0.0143787
0.0143893
0.0143947
0.0142306
0.0142159
0.0142361
0.0142544
0.0142752
0.0143
0.0143276
0.0143555
0.0143815
0.0144037
0.014421
0.0144327
0.0144387
0.0142011
0.0142024
0.0142238
0.0142437
0.0142651
0.0142914
0.0143224
0.0143555
0.0143877
0.0144166
0.0144407
0.0144591
0.0144714
0.0144776
0.0142092
0.0142073
0.0142295
0.0142505
0.0142759
0.0143077
0.014344
0.0143814
0.0144165
0.0144473
0.0144724
0.0144913
0.0145039
0.0145101
0.0141857
0.0142096
0.0142324
0.0142561
0.0142859
0.0143226
0.0143631
0.0144035
0.0144405
0.0144723
0.0144979
0.0145169
0.0145295
0.0145358
0.0141906
0.0142119
0.0142345
0.0142608
0.0142945
0.0143349
0.0143784
0.0144208
0.0144589
0.0144912
0.0145169
0.0145359
0.0145485
0.0145547
0.0141903
0.0141887
0.0142123
0.014236
0.0142644
0.0143007
0.0143437
0.014389
0.0144325
0.0144712
0.0145037
0.0145294
0.0145484
0.0145609
0.0145671
0.0141939
0.0141915
0.0142143
0.0142375
0.0142665
0.0143041
0.0143482
0.0143944
0.0144384
0.0144774
0.01451
0.0145357
0.0145546
0.0145671
0.0145732
0.0139482
0.0139526
0.0139638
0.0139746
0.013959
0.0139572
0.0139523
0.0139559
0.0139703
0.013996
0.0139712
0.0139733
0.0139713
0.0139691
0.0139675
0.0139694
0.0139823
0.0139771
0.0139812
0.0139842
0.0139856
0.013984
0.0139822
0.0139814
0.0139821
0.0139986
0.0139838
0.0139897
0.0139922
0.0139939
0.0139957
0.013997
0.0139982
0.0139996
0.0140009
0.0139985
0.0139861
0.013993
0.0139973
0.0140006
0.0140052
0.014011
0.014017
0.0140226
0.014027
0.0140295
0.013982
0.0139836
0.0139929
0.0139991
0.0140045
0.0140122
0.0140226
0.0140343
0.0140457
0.0140556
0.0140628
0.0140666
0.01397
0.0139768
0.0139895
0.0139971
0.0140044
0.0140148
0.0140292
0.0140463
0.014064
0.0140803
0.0140937
0.0141031
0.014108
0.0139957
0.0139808
0.0139919
0.0140003
0.0140121
0.0140291
0.0140505
0.0140739
0.0140966
0.0141166
0.0141325
0.0141435
0.0141491
0.0139634
0.0139708
0.0139838
0.0139936
0.0140049
0.0140224
0.0140461
0.0140738
0.0141022
0.0141286
0.0141511
0.0141686
0.0141805
0.0141865
0.0139741
0.0139729
0.0139852
0.0139953
0.0140107
0.014034
0.0140638
0.0140964
0.0141285
0.0141574
0.0141815
0.0141999
0.0142123
0.0142185
0.0139584
0.0139707
0.0139835
0.0139965
0.0140166
0.0140454
0.01408
0.0141164
0.014151
0.0141815
0.0142064
0.0142253
0.0142379
0.0142442
0.0139566
0.0139685
0.0139816
0.0139977
0.0140221
0.0140552
0.0140934
0.0141323
0.0141685
0.0141998
0.0142252
0.0142443
0.014257
0.0142633
0.0139476
0.0139517
0.0139669
0.0139808
0.0139991
0.0140265
0.0140624
0.0141028
0.0141432
0.0141803
0.0142122
0.0142378
0.0142569
0.0142696
0.0142759
0.013952
0.0139552
0.0139687
0.0139815
0.0140003
0.014029
0.0140662
0.0141076
0.0141488
0.0141863
0.0142183
0.014244
0.0142632
0.0142759
0.0142822
0.0137007
0.0137073
0.0137233
0.0137438
0.0137505
0.0137302
0.0137209
0.0137268
0.0137314
0.0137686
0.0137498
0.013747
0.0137374
0.0137279
0.0137237
0.0137259
0.0137522
0.0137564
0.0137521
0.0137473
0.0137425
0.013735
0.0137287
0.0137255
0.0137258
0.0138397
0.0137631
0.0137541
0.0137483
0.0137433
0.0137395
0.0137362
0.0137343
0.0137339
0.0137345
0.0138397
0.0137681
0.0137554
0.0137496
0.0137453
0.013744
0.0137451
0.0137476
0.0137508
0.0137537
0.0137556
0.0137518
0.0137628
0.0137553
0.0137503
0.0137471
0.0137481
0.0137534
0.0137613
0.01377
0.013778
0.0137841