/*--------------------------------*- C++ -*----------------------------------*\
| =========                 |                                                 |
| \\      /  F ield         | OpenFOAM: The Open Source CFD Toolbox           |
|  \\    /   O peration     | Version:  2.1.1                                 |
|   \\  /    A nd           | Web:      www.OpenFOAM.org                      |
|    \\/     M anipulation  |                                                 |
\*---------------------------------------------------------------------------*/
FoamFile
{
    version     2.0;
    format      ascii;
    class       surfaceScalarField;
    location    "0.002";
    object      phi;
}
// * * * * * * * * * * * * * * * * * * * * * * * * * * * * * * * * * * * * * //

dimensions      [0 3 -1 0 0 0 0];

internalField   nonuniform List<scalar> 
29724
(
7.06004e-12
-8.72106e-12
7.46511e-11
1.11483e-10
2.55547e-12
-9.0538e-13
5.90011e-11
1.64877e-10
1.94534e-11
5.55515e-11
6.86921e-11
-2.01455e-11
4.35041e-11
4.11351e-11
2.01145e-10
-8.56205e-11
-1.96663e-11
2.01985e-11
3.52601e-11
2.85605e-10
-6.2716e-11
-1.49494e-11
7.66648e-12
2.55666e-11
2.91675e-10
-4.4513e-11
3.46929e-12
-4.88415e-12
3.62902e-11
2.62876e-10
-3.58124e-11
3.27487e-12
-2.10464e-12
3.45809e-11
2.54938e-10
1.23013e-11
4.96684e-11
6.93461e-11
-6.58101e-11
-4.19708e-11
3.01228e-11
3.12066e-11
3.16945e-10
-3.0168e-11
-3.211e-11
2.13977e-11
2.55491e-11
2.66841e-10
-1.52987e-11
-1.39734e-11
1.15154e-11
2.32252e-11
2.48162e-10
-1.97943e-11
-8.19491e-12
8.79108e-12
2.09789e-11
2.51285e-10
-1.38928e-11
-3.9479e-12
2.84051e-12
1.89192e-11
2.48093e-10
-1.61381e-11
-1.58435e-12
7.89288e-13
2.06236e-11
2.48319e-10
-1.61759e-11
-7.18941e-13
3.00218e-14
2.10698e-11
2.4874e-10
-2.00734e-11
6.40651e-11
4.47178e-11
1.59801e-10
-5.09054e-11
-3.58424e-11
1.76906e-11
3.63783e-11
2.81359e-10
-2.64783e-11
-9.78962e-12
1.20045e-11
2.83714e-11
2.49765e-10
-1.75816e-11
-1.28599e-11
1.28723e-11
2.23422e-11
2.47927e-10
-1.31413e-11
-8.38702e-12
1.03538e-11
1.79678e-11
2.44487e-10
-1.06444e-11
-6.48225e-12
7.14115e-12
1.37687e-11
2.46688e-10
-8.32896e-12
-2.92507e-12
2.90948e-12
1.09954e-11
2.47508e-10
-8.13083e-12
-1.58746e-12
1.01981e-12
1.05859e-11
2.48337e-10
-8.19045e-12
-5.28213e-13
2.07837e-13
1.07616e-11
2.48255e-10
-3.66242e-11
-2.36485e-11
2.66144e-11
4.26306e-11
2.71535e-10
-2.3938e-11
-1.31401e-11
1.21851e-11
2.46748e-11
2.54706e-10
-2.18838e-11
-1.09191e-11
1.20541e-11
2.36319e-11
2.51116e-10
-1.52878e-11
-8.75644e-12
1.11159e-11
1.94537e-11
2.45025e-10
-1.01767e-11
-7.74342e-12
8.79764e-12
1.42531e-11
2.45375e-10
-7.68356e-12
-4.35738e-12
6.11082e-12
1.03792e-11
2.45684e-10
-5.5917e-12
-3.00969e-12
3.92543e-12
7.96329e-12
2.46723e-10
-4.0701e-12
-1.46224e-12
1.91208e-12
6.53719e-12
2.4707e-10
-3.439e-12
-8.11789e-13
7.99788e-13
6.05072e-12
2.47404e-10
-3.28055e-12
-2.42687e-13
1.82446e-13
5.99912e-12
2.47382e-10
-2.34902e-11
-3.67261e-11
4.27215e-11
2.65292e-11
2.71377e-10
-1.93259e-11
-1.94007e-11
1.51182e-11
1.50471e-11
2.63299e-10
-1.33878e-11
-9.13463e-12
1.17073e-11
1.58775e-11
2.49105e-10
-1.09618e-11
-7.35286e-12
8.6482e-12
1.31741e-11
2.48064e-10
-8.31776e-12
-4.52851e-12
6.48761e-12
1.01861e-11
2.46489e-10
-5.83817e-12
-3.49241e-12
4.91585e-12
7.81689e-12
2.46636e-10
-4.41286e-12
-2.25479e-12
3.57791e-12
6.28331e-12
2.46808e-10
-3.40433e-12
-1.70182e-12
2.46842e-12
5.29716e-12
2.47338e-10
-2.81316e-12
-9.55394e-13
1.43664e-12
4.74512e-12
2.47585e-10
-2.46042e-12
-5.98835e-13
7.20575e-13
4.47621e-12
2.47862e-10
-2.35698e-12
-2.18692e-13
1.95673e-13
4.41277e-12
2.47969e-10
-2.00686e-11
4.47335e-11
6.40497e-11
1.59773e-10
-1.31007e-11
-2.39739e-11
2.4718e-11
1.21497e-11
2.54669e-10
-9.08685e-12
-1.34075e-11
1.59023e-11
1.16792e-11
2.49074e-10
-7.29271e-12
-7.2964e-12
8.77575e-12
8.76633e-12
2.48644e-10
-5.3607e-12
-4.18078e-12
5.78252e-12
7.0387e-12
2.47085e-10
-4.0917e-12
-2.56792e-12
4.23845e-12
5.79045e-12
2.4667e-10
-3.14254e-12
-2.05176e-12
3.31764e-12
4.9163e-12
2.46961e-10
-2.61021e-12
-1.42614e-12
2.54169e-12
4.35269e-12
2.47142e-10
-2.18746e-12
-1.15757e-12
1.84493e-12
3.91808e-12
2.47582e-10
-1.89108e-12
-7.09677e-13
1.17378e-12
3.64429e-12
2.47783e-10
-1.68211e-12
-4.76135e-13
6.44954e-13
3.48124e-12
2.48032e-10
-1.59662e-12
-1.9458e-13
1.90424e-13
3.42827e-12
2.48172e-10
4.96841e-11
1.22953e-11
6.93461e-11
-3.58324e-11
-5.09172e-11
3.63897e-11
1.76825e-11
2.81356e-10
-1.08959e-11
-2.18947e-11
2.36489e-11
1.2038e-11
2.51099e-10
-7.33867e-12
-1.09624e-11
1.31841e-11
8.64005e-12
2.48047e-10
-4.17852e-12
-5.35913e-12
7.04279e-12
5.77705e-12
2.47082e-10
-2.97406e-12
-2.97401e-12
4.52086e-12
4.51751e-12
2.46957e-10
-2.44812e-12
-1.89424e-12
3.40135e-12
3.97359e-12
2.4697e-10
-2.0805e-12
-1.52702e-12
2.69358e-12
3.5838e-12
2.4733e-10
-1.86915e-12
-1.11742e-12
2.09533e-12
3.3095e-12
2.47582e-10
-1.66198e-12
-9.07385e-13
1.5538e-12
3.07109e-12
2.47944e-10
-1.52429e-12
-5.96745e-13
1.03715e-12
2.9187e-12
2.48165e-10
-1.41369e-12
-4.04406e-13
5.93808e-13
2.82046e-12
2.48404e-10
-1.3626e-12
-1.78699e-13
1.84243e-13
2.78518e-12
2.48572e-10
-4.19576e-11
-6.58102e-11
3.12079e-11
3.01167e-11
3.16937e-10
-9.78477e-12
-2.64798e-11
2.83769e-11
1.19996e-11
2.49762e-10
-8.74838e-12
-1.52908e-11
1.94599e-11
1.11107e-11
2.45019e-10
-4.5254e-12
-8.31659e-12
1.01904e-11
6.48453e-12
2.46484e-10
-2.56902e-12
-4.09145e-12
5.79355e-12
4.236e-12
2.4667e-10
-1.89472e-12
-2.44765e-12
3.97613e-12
3.39945e-12
2.46969e-10
-1.64654e-12
-1.64613e-12
3.03162e-12
3.02987e-12
2.47231e-10
-1.47502e-12
-1.31155e-12
2.39022e-12
2.77308e-12
2.47623e-10
-1.35893e-12
-9.72378e-13
1.85491e-12
2.59037e-12
2.47886e-10
-1.23907e-12
-7.75664e-13
1.38492e-12
2.43582e-12
2.48194e-10
-1.15382e-12
-5.26139e-13
9.43305e-13
2.33512e-12
2.48401e-10
-1.08239e-12
-3.56908e-13
5.50737e-13
2.26757e-12
2.48621e-10
-1.0447e-12
-1.63461e-13
1.7483e-13
2.23992e-12
2.48793e-10
5.55509e-11
1.94533e-11
6.86915e-11
-3.2106e-11
-3.01675e-11
2.55487e-11
2.13969e-11
2.66837e-10
-1.28553e-11
-1.75818e-11
2.23445e-11
1.28704e-11
2.47922e-10
-7.73835e-12
-1.01769e-11
1.42555e-11
8.7964e-12
2.45369e-10
-3.49038e-12
-5.83854e-12
7.81991e-12
4.91479e-12
2.46632e-10
-2.05092e-12
-3.14256e-12
4.9192e-12
3.31667e-12
2.46958e-10
-1.52661e-12
-2.08058e-12
3.58609e-12
2.6925e-12
2.47329e-10
-1.31132e-12
-1.47482e-12
2.77475e-12
2.38895e-12
2.47622e-10
-1.16998e-12
-1.17024e-12
2.18932e-12
2.18783e-12
2.47963e-10
-1.07963e-12
-8.79087e-13
1.70153e-12
2.05193e-12
2.48205e-10
-9.98386e-13
-6.93223e-13
1.27719e-12
1.94425e-12
2.4847e-10
-9.44759e-13
-4.82318e-13
8.80295e-13
1.87368e-12
2.48673e-10
-8.99297e-13
-3.24441e-13
5.18483e-13
1.82578e-12
2.48879e-10
-8.72765e-13
-1.52384e-13
1.66719e-13
1.80456e-12
2.49054e-10
-2.01443e-11
4.11345e-11
4.35033e-11
2.01145e-10
-1.39725e-11
-1.52989e-11
2.32253e-11
1.15151e-11
2.48162e-10
-8.38477e-12
-1.31417e-11
1.79689e-11
1.03531e-11
2.44484e-10
-4.35628e-12
-7.68395e-12
1.03809e-11
6.11075e-12
2.45681e-10
-2.25459e-12
-4.41327e-12
6.28535e-12
3.57774e-12
2.46806e-10
-1.42611e-12
-2.61021e-12
4.35496e-12
2.54139e-12
2.4714e-10
-1.11747e-12
-1.8693e-12
3.31131e-12
2.09477e-12
2.47581e-10
-9.72376e-13
-1.35869e-12
2.59163e-12
1.85406e-12
2.47885e-10
-8.78641e-13
-1.07952e-12
2.05322e-12
1.69999e-12
2.48205e-10
-8.17245e-13
-8.17969e-13
1.5982e-12
1.59716e-12
2.4844e-10
-7.65314e-13
-6.40801e-13
1.20272e-12
1.51934e-12
2.48684e-10
-7.27731e-13
-4.50776e-13
8.33103e-13
1.46608e-12
2.48879e-10
-6.94668e-13
-3.00333e-13
4.92093e-13
1.43059e-12
2.49072e-10
-6.73827e-13
-1.43554e-13
1.59855e-13
1.41347e-12
2.49244e-10
-1.96659e-11
-8.56199e-11
3.52595e-11
2.0199e-11
2.85604e-10
-8.19452e-12
-1.97936e-11
2.09807e-11
8.79094e-12
2.51282e-10
-6.47994e-12
-1.06455e-11
1.37697e-11
7.14096e-12
2.46686e-10
-3.00858e-12
-5.59209e-12
7.96454e-12
3.92537e-12
2.46721e-10
-1.70119e-12
-3.40461e-12
5.29865e-12
2.46828e-12
2.47337e-10
-1.15722e-12
-2.18746e-12
3.91973e-12
1.84472e-12
2.4758e-10
-9.07088e-13
-1.66213e-12
3.07252e-12
1.55337e-12
2.47943e-10
-7.75501e-13
-1.23882e-12
2.43675e-12
1.38447e-12
2.48193e-10
-6.93153e-13
-9.97993e-13
1.9449e-12
1.27706e-12
2.48469e-10
-6.38919e-13
-7.6578e-13
1.51957e-12
1.20198e-12
2.48683e-10
-5.95472e-13
-5.98265e-13
1.14561e-12
1.14381e-12
2.48904e-10
-5.66453e-13
-4.26466e-13
7.9736e-13
1.10588e-12
2.49089e-10
-5.44698e-13
-2.84086e-13
4.72147e-13
1.08018e-12
2.49276e-10
-5.30344e-13
-1.35762e-13
1.53855e-13
1.06817e-12
2.49444e-10
-1.49493e-11
-6.27156e-11
2.55663e-11
7.66557e-12
2.91675e-10
-3.94751e-12
-1.38922e-11
1.89209e-11
2.84036e-12
2.4809e-10
-2.92432e-12
-8.32982e-12
1.09964e-11
2.90946e-12
2.47507e-10
-1.4619e-12
-4.07027e-12
6.53821e-12
1.91196e-12
2.47069e-10
-9.55241e-13
-2.81332e-12
4.74628e-12
1.43637e-12
2.47584e-10
-7.09688e-13
-1.89105e-12
3.64555e-12
1.17352e-12
2.47782e-10
-5.9681e-13
-1.52426e-12
2.91988e-12
1.03685e-12
2.48164e-10
-5.2631e-13
-1.15364e-12
2.33607e-12
9.43008e-13
2.48401e-10
-4.82571e-13
-9.44623e-13
1.87435e-12
8.79968e-13
2.48673e-10
-4.5132e-13
-7.27131e-13
1.46665e-12
8.33029e-13
2.48878e-10
-4.26083e-13
-5.66485e-13
1.1066e-12
7.9739e-13
2.49088e-10
-4.04499e-13
-4.06608e-13
7.71658e-13
7.71093e-13
2.49268e-10
-3.88994e-13
-2.71387e-13
4.58404e-13
7.53454e-13
2.49448e-10
-3.79542e-13
-1.31297e-13
1.49881e-13
7.44446e-13
2.49616e-10
7.0601e-12
7.46507e-11
-8.72102e-12
1.11482e-10
3.46949e-12
-4.45125e-11
3.62896e-11
-4.88445e-12
2.62876e-10
-1.58372e-12
-1.61374e-11
2.06249e-11
7.8913e-13
2.48317e-10
-1.58694e-12
-8.13124e-12
1.0587e-11
1.01955e-12
2.48336e-10
-8.11369e-13
-3.43908e-12
6.05163e-12
7.99466e-13
2.47403e-10
-5.98664e-13
-2.46049e-12
4.47706e-12
7.20159e-13
2.47862e-10
-4.75922e-13
-1.68197e-12
3.48229e-12
6.44607e-13
2.48031e-10
-4.04235e-13
-1.41357e-12
2.82146e-12
5.93481e-13
2.48403e-10
-3.56772e-13
-1.0822e-12
2.26846e-12
5.5044e-13
2.4862e-10
-3.24413e-13
-8.99128e-13
1.82652e-12
5.18229e-13
2.48878e-10
-3.00528e-13
-6.94473e-13
1.43123e-12
4.91948e-13
2.49071e-10
-2.84459e-13
-5.44763e-13
1.08103e-12
4.72104e-13
2.49276e-10
-2.71858e-13
-3.89543e-13
7.5465e-13
4.58062e-13
2.49448e-10
-2.60636e-13
-2.59342e-13
4.47589e-13
4.47534e-13
2.49625e-10
-2.52055e-13
-1.26634e-13
1.46915e-13
4.41618e-13
2.4979e-10
2.55538e-12
5.90011e-11
-9.05392e-13
1.64877e-10
3.27493e-12
-3.58122e-11
3.45804e-11
-2.10503e-12
2.54939e-10
-7.18976e-13
-1.61741e-11
2.10714e-11
2.95173e-14
2.48737e-10
-5.2823e-13
-8.19095e-12
1.07628e-11
2.0729e-13
2.48255e-10
-2.42726e-13
-3.2807e-12
6.00015e-12
1.81909e-13
2.47381e-10
-2.1874e-13
-2.35691e-12
4.41368e-12
1.95143e-13
2.47968e-10
-1.94592e-13
-1.59637e-12
3.42922e-12
1.89944e-13
2.48172e-10
-1.78685e-13
-1.3624e-12
2.78615e-12
1.838e-13
2.48571e-10
-1.63533e-13
-1.04444e-12
2.2408e-12
1.74486e-13
2.48792e-10
-1.52518e-13
-8.7256e-13
1.80533e-12
1.66466e-13
2.49053e-10
-1.43753e-13
-6.73672e-13
1.4142e-12
1.59672e-13
2.49243e-10
-1.35959e-13
-5.30367e-13
1.06892e-12
1.53676e-13
2.49443e-10
-1.31356e-13
-3.796e-13
7.45058e-13
1.49676e-13
2.49616e-10
-1.26537e-13
-2.52086e-13
4.41594e-13
1.46627e-13
2.4979e-10
-1.2143e-13
-1.21518e-13
1.44036e-13
1.43868e-13
2.49955e-10
-7.61322e-11
1.46163e-12
-5.77415e-12
1.83639e-11
6.20808e-11
-1.32045e-10
3.7058e-12
-2.01628e-12
2.09795e-11
1.09376e-10
-4.20689e-11
9.51235e-12
-4.7956e-12
3.73522e-11
-1.67785e-10
-6.82974e-13
3.99826e-12
3.89743e-11
1.25496e-10
1.92393e-10
4.94326e-10
9.62177e-10
-2.32328e-10
-3.01864e-10
-2.96547e-10
-3.46112e-10
5.19781e-11
1.03693e-11
-1.20457e-10
-1.24699e-10
7.65726e-11
-1.5625e-11
-1.61031e-10
-1.89151e-10
1.5155e-11
5.31556e-10
1.19328e-09
-2.96465e-10
-2.64333e-10
-3.44268e-10
-3.35891e-10
-1.80014e-11
4.3811e-11
-1.5197e-10
-1.80492e-10
-9.0156e-12
5.21887e-10
1.02405e-09
-2.47713e-10
-2.17718e-10
-3.38845e-10
-3.24457e-10
3.13487e-11
3.70095e-11
-2.32007e-10
-2.29382e-10
5.2237e-10
1.01901e-09
-2.25612e-10
-2.24616e-10
-3.37315e-10
-3.35411e-10
2.35064e-11
2.34567e-11
-2.37683e-10
-2.36366e-10
-4.26868e-11
7.62354e-12
-4.43877e-12
3.9502e-11
-2.7159e-10
-3.89845e-12
8.98641e-12
1.47248e-11
4.41938e-11
2.07583e-10
2.91208e-10
5.48634e-10
9.16989e-10
-2.1162e-10
-2.69996e-10
-2.95374e-10
-3.46547e-10
7.7682e-11
6.59983e-12
-1.83996e-10
-2.16634e-10
8.88244e-11
-1.71524e-11
-1.92604e-10
-1.96013e-10
2.12776e-10
5.00645e-10
1.11548e-09
-2.18464e-10
-2.62828e-10
-2.99765e-10
-3.30544e-10
1.83158e-11
-5.1889e-11
-1.85848e-10
-2.06677e-10
1.10918e-10
3.67241e-10
1.37678e-09
-2.57539e-10
-2.78988e-10
-2.95792e-10
-3.15525e-10
1.88318e-11
3.35375e-10
1.38622e-09
-2.59013e-10
-2.50926e-10
-2.93854e-10
-2.94164e-10
2.73901e-12
3.14058e-10
1.29981e-09
-2.46096e-10
-2.35419e-10
-2.99104e-10
-2.95268e-10
3.13597e-10
1.27822e-09
-2.35631e-10
-2.32979e-10
-2.99764e-10
-2.98115e-10
-1.27368e-10
-6.25639e-12
-3.55952e-12
3.92174e-11
9.79667e-11
2.67407e-10
5.3921e-10
9.63873e-10
-2.33931e-10
-2.50361e-10
-3.24437e-10
-3.51686e-10
7.58916e-11
7.73247e-12
-1.95356e-10
-2.30499e-10
9.01933e-11
-1.49542e-11
-1.6258e-10
-1.80502e-10
2.36658e-10
4.93316e-10
1.10037e-09
-2.16342e-10
-2.41026e-10
-3.12807e-10
-3.35954e-10
2.17905e-11
-4.56322e-11
-2.09484e-10
-2.2349e-10
2.05536e-10
3.76874e-10
1.33862e-09
-2.40858e-10
-2.64977e-10
-3.04138e-10
-3.25767e-10
1.4888e-10
3.19662e-10
1.31749e-09
-2.39171e-10
-2.60859e-10
-2.793e-10
-3.00517e-10
9.29843e-11
2.30673e-10
1.25093e-09
-2.47496e-10
-2.59881e-10
-2.68089e-10
-2.82997e-10
4.41427e-11
2.23773e-10
1.19536e-09
-2.49159e-10
-2.48519e-10
-2.65149e-10
-2.72087e-10
1.76321e-11
2.09665e-10
1.16157e-09
-2.45686e-10
-2.42818e-10
-2.69875e-10
-2.72291e-10
2.07383e-10
1.15218e-09
-2.41836e-10
-2.40762e-10
-2.72879e-10
-2.72729e-10
2.08311e-10
3.05542e-10
9.31692e-10
-2.29778e-10
-2.48858e-10
-3.2291e-10
-3.40384e-10
5.88105e-11
6.74651e-11
-1.29362e-10
-1.73482e-10
7.62512e-11
1.22271e-11
-1.02997e-10
-1.12528e-10
2.13686e-10
4.15626e-10
1.07135e-09
-2.23628e-10
-2.40885e-10
-3.07235e-10
-3.27985e-10
3.20432e-11
-3.39172e-11
-1.84258e-10
-2.06488e-10
2.04571e-10
3.48442e-10
1.34034e-09
-2.46382e-10
-2.60074e-10
-3.07929e-10
-3.26067e-10
1.60027e-10
3.05916e-10
1.31095e-09
-2.37186e-10
-2.53101e-10
-2.85851e-10
-3.02868e-10
1.29359e-10
2.21194e-10
1.23933e-09
-2.39668e-10
-2.54517e-10
-2.70241e-10
-2.8855e-10
9.63981e-11
2.03669e-10
1.17171e-09
-2.40187e-10
-2.49947e-10
-2.58907e-10
-2.73717e-10
6.13495e-11
1.64432e-10
1.11633e-09
-2.42559e-10
-2.4811e-10
-2.57409e-10
-2.66965e-10
3.53062e-11
1.60092e-10
1.09485e-09
-2.4228e-10
-2.44121e-10
-2.56756e-10
-2.61973e-10
1.62861e-11
1.48312e-10
1.08485e-09
-2.4229e-10
-2.42844e-10
-2.58168e-10
-2.61167e-10
1.46234e-10
1.08036e-09
-2.41746e-10
-2.41605e-10
-2.5946e-10
-2.60057e-10
3.05916e-10
2.07036e-10
9.31123e-10
-2.29456e-10
-3.228e-10
-2.48625e-10
-3.4025e-10
7.65782e-11
1.25931e-11
-1.02885e-10
-1.12719e-10
5.87088e-11
6.74381e-11
-1.29291e-10
-1.73366e-10
2.09327e-10
2.08259e-10
1.3312e-09
-2.64011e-10
-2.72555e-10
-2.72505e-10
-3.28257e-10
1.64616e-10
2.47006e-10
1.28927e-09
-2.39101e-10
-2.57256e-10
-2.75676e-10
-3.03907e-10
1.40032e-10
1.93826e-10
1.231e-09
-2.41375e-10
-2.54975e-10
-2.66975e-10
-2.88477e-10
1.15722e-10
1.85927e-10
1.16806e-09
-2.39886e-10
-2.49573e-10
-2.58252e-10
-2.76048e-10
9.20639e-11
1.50411e-10
1.1094e-09
-2.39959e-10
-2.48487e-10
-2.55859e-10
-2.70654e-10
7.18949e-11
1.44414e-10
1.08608e-09
-2.39811e-10
-2.46675e-10
-2.54116e-10
-2.66049e-10
5.04159e-11
1.23621e-10
1.06902e-09
-2.41348e-10
-2.46294e-10
-2.55088e-10
-2.63997e-10
3.17878e-11
1.20233e-10
1.063e-09
-2.41971e-10
-2.44685e-10
-2.56161e-10
-2.61698e-10
1.50733e-11
1.11943e-10
1.05831e-09
-2.42767e-10
-2.44134e-10
-2.57595e-10
-2.60732e-10
1.10218e-10
1.05567e-09
-2.43014e-10
-2.43275e-10
-2.58706e-10
-2.5954e-10
-1.27311e-10
-6.24709e-12
3.92235e-11
-3.59851e-12
9.79331e-11
4.15407e-10
2.13026e-10
1.07067e-09
-2.23511e-10
-3.07155e-10
-2.40807e-10
-3.2795e-10
3.19967e-11
-3.39406e-11
-1.84207e-10
-2.06502e-10
2.46862e-10
1.64018e-10
1.28862e-09
-2.39035e-10
-2.75707e-10
-2.57213e-10
-3.03884e-10
1.62343e-10
1.62174e-10
1.19892e-09
-2.40678e-10
-2.54559e-10
-2.54538e-10
-2.79795e-10
1.20316e-10
1.33661e-10
1.11719e-09
-2.39859e-10
-2.50352e-10
-2.52967e-10
-2.71809e-10
9.43662e-11
1.30155e-10
1.08757e-09
-2.39e-10
-2.47826e-10
-2.51558e-10
-2.67467e-10
7.30154e-11
1.11009e-10
1.06606e-09
-2.39723e-10
-2.47646e-10
-2.5226e-10
-2.65669e-10
5.58507e-11
1.06194e-10
1.0579e-09
-2.40297e-10
-2.46798e-10
-2.52621e-10
-2.62808e-10
3.89907e-11
9.35588e-11
1.05018e-09
-2.41801e-10
-2.46694e-10
-2.53718e-10
-2.61049e-10
2.49568e-11
9.02634e-11
1.04574e-09
-2.42573e-10
-2.45603e-10
-2.54418e-10
-2.59148e-10
1.20154e-11
8.4687e-11
1.04226e-09
-2.43403e-10
-2.45081e-10
-2.5541e-10
-2.58171e-10
8.34403e-11
1.04039e-09
-2.43882e-10
-2.44322e-10
-2.56281e-10
-2.57088e-10
-4.26855e-11
-4.44157e-12
7.62457e-12
3.95025e-11
5.39277e-10
2.67076e-10
9.63694e-10
-2.33902e-10
-3.24385e-10
-2.50357e-10
-3.51666e-10
9.02499e-11
-1.48712e-11
-1.6251e-10
-1.80398e-10
7.59066e-11
7.74084e-12
-1.9535e-10
-2.30504e-10
3.4851e-10
2.04154e-10
1.33994e-09
-2.46323e-10
-3.07882e-10
-2.60038e-10
-3.26051e-10
1.9383e-10
1.39736e-10
1.23072e-09
-2.41336e-10
-2.66998e-10
-2.54942e-10
-2.88486e-10
1.33741e-10
1.20176e-10
1.11705e-09
-2.39837e-10
-2.52982e-10
-2.50325e-10
-2.7181e-10
1.00368e-10
1.00281e-10
1.07388e-09
-2.39477e-10
-2.49974e-10
-2.49957e-10
-2.67725e-10
7.86083e-11
9.49622e-11
1.0609e-09
-2.3966e-10
-2.48733e-10
-2.5044e-10
-2.65108e-10
6.05091e-11
8.30534e-11
1.04997e-09
-2.4088e-10
-2.48588e-10
-2.51481e-10
-2.62974e-10
4.62758e-11
7.90177e-11
1.04385e-09
-2.41774e-10
-2.4787e-10
-2.52065e-10
-2.60728e-10
3.30246e-11
7.13928e-11
1.03831e-09
-2.42975e-10
-2.47567e-10
-2.52951e-10
-2.59404e-10
2.15056e-11
6.90653e-11
1.03493e-09
-2.43739e-10
-2.46756e-10
-2.53683e-10
-2.58039e-10
1.04796e-11
6.55705e-11
1.03262e-09
-2.44514e-10
-2.4626e-10
-2.54569e-10
-2.57134e-10
6.47174e-11
1.03148e-09
-2.45084e-10
-2.45598e-10
-2.55394e-10
-2.56186e-10
-2.71582e-10
8.98465e-12
-3.89772e-12
4.4193e-11
1.47231e-11
2.07579e-10
4.93345e-10
2.36463e-10
1.1002e-09
-2.16326e-10
-3.12785e-10
-2.41025e-10
-3.35956e-10
2.17949e-11
-4.56401e-11
-2.0949e-10
-2.23507e-10
3.05919e-10
1.59813e-10
1.31073e-09
-2.37161e-10
-2.85831e-10
-2.53098e-10
-3.0288e-10
1.85924e-10
1.15556e-10
1.16793e-09
-2.39861e-10
-2.58259e-10
-2.49562e-10
-2.76068e-10
1.30173e-10
9.42686e-11
1.0875e-09
-2.38984e-10
-2.51571e-10
-2.47812e-10
-2.67479e-10
9.4985e-11
7.85372e-11
1.06089e-09
-2.39657e-10
-2.50454e-10
-2.48722e-10
-2.65114e-10
7.15653e-11
7.15367e-11
1.049e-09
-2.40627e-10
-2.49614e-10
-2.49604e-10
-2.6232e-10
5.38937e-11
6.3256e-11
1.03986e-09
-2.41944e-10
-2.49311e-10
-2.50579e-10
-2.60555e-10
4.04992e-11
5.98089e-11
1.03417e-09
-2.42829e-10
-2.48629e-10
-2.51208e-10
-2.589e-10
2.8734e-11
5.49551e-11
1.03006e-09
-2.43831e-10
-2.48232e-10
-2.52014e-10
-2.57775e-10
1.86374e-11
5.31297e-11
1.02741e-09
-2.44553e-10
-2.47543e-10
-2.52674e-10
-2.56611e-10
9.09195e-12
5.08392e-11
1.02578e-09
-2.45279e-10
-2.4704e-10
-2.5343e-10
-2.55758e-10
5.02126e-11
1.02495e-09
-2.45874e-10
-2.4642e-10
-2.54163e-10
-2.54899e-10
-4.20688e-11
-4.79688e-12
9.51311e-12
3.73526e-11
5.48658e-10
2.91148e-10
9.16962e-10
-2.11613e-10
-2.95362e-10
-2.70009e-10
-3.46543e-10
8.88313e-11
-1.71402e-11
-1.92596e-10
-1.95998e-10
7.76881e-11
6.6015e-12
-1.83993e-10
-2.16635e-10
3.76896e-10
2.05407e-10
1.33852e-09
-2.40843e-10
-3.04121e-10
-2.64975e-10
-3.2577e-10
2.21206e-10
1.29231e-10
1.23924e-09
-2.39651e-10
-2.70234e-10
-2.54514e-10
-2.88562e-10
1.50421e-10
9.19602e-11
1.10933e-09
-2.39941e-10
-2.55862e-10
-2.4848e-10
-2.70669e-10
1.11028e-10
7.29465e-11
1.06601e-09
-2.39709e-10
-2.52266e-10
-2.47634e-10
-2.65677e-10
8.30723e-11
6.04559e-11
1.04995e-09
-2.40874e-10
-2.51489e-10
-2.48578e-10
-2.62979e-10
6.32773e-11
5.38676e-11
1.03985e-09
-2.41941e-10
-2.50586e-10
-2.49302e-10
-2.60556e-10
4.81112e-11
4.80901e-11
1.03269e-09
-2.43055e-10
-2.5011e-10
-2.50103e-10
-2.59089e-10
3.62682e-11
4.52832e-11
1.0281e-09
-2.43866e-10
-2.49442e-10
-2.50716e-10
-2.57702e-10
2.59184e-11
4.21169e-11
1.02504e-09
-2.44742e-10
-2.48978e-10
-2.51438e-10
-2.56697e-10
1.68492e-11
4.07546e-11
1.023e-09
-2.45432e-10
-2.48354e-10
-2.52072e-10
-2.55703e-10
8.25693e-12
3.92723e-11
1.0218e-09
-2.46113e-10
-2.47845e-10
-2.52762e-10
-2.54915e-10
3.88268e-11
1.02119e-09
-2.46707e-10
-2.47259e-10
-2.53445e-10
-2.54138e-10
-1.67786e-10
-6.8346e-13
3.89741e-11
3.99867e-12
1.25497e-10
5.00663e-10
2.12724e-10
1.11545e-09
-2.18457e-10
-2.99757e-10
-2.62826e-10
-3.30548e-10
1.83174e-11
-5.18924e-11
-1.85849e-10
-2.06681e-10
3.19675e-10
1.48802e-10
1.31743e-09
-2.39162e-10
-2.79288e-10
-2.60862e-10
-3.00526e-10
2.03672e-10
9.63233e-11
1.17166e-09
-2.40176e-10
-2.58904e-10
-2.49948e-10
-2.73733e-10
1.44415e-10
7.18299e-11
1.08605e-09
-2.39799e-10
-2.54118e-10
-2.46673e-10
-2.66063e-10
1.062e-10
5.58047e-11
1.05788e-09
-2.40288e-10
-2.52626e-10
-2.46793e-10
-2.62818e-10
7.90218e-11
4.62372e-11
1.04384e-09
-2.4177e-10
-2.52072e-10
-2.47864e-10
-2.60733e-10
5.98148e-11
4.04773e-11
1.03417e-09
-2.42827e-10
-2.51215e-10
-2.48623e-10
-2.58903e-10
4.52929e-11
3.62514e-11
1.0281e-09
-2.43866e-10
-2.50723e-10
-2.49438e-10
-2.57709e-10
3.39077e-11
3.3896e-11
1.0241e-09
-2.44658e-10
-2.50081e-10
-2.50072e-10
-2.56524e-10
2.4161e-11
3.17039e-11
1.02159e-09
-2.45465e-10
-2.49588e-10
-2.50752e-10
-2.5562e-10
1.56394e-11
3.06401e-11
1.01986e-09
-2.46129e-10
-2.48994e-10
-2.51362e-10
-2.54737e-10
7.66033e-12
2.9645e-11
1.01887e-09
-2.46778e-10
-2.48482e-10
-2.52e-10
-2.54005e-10
2.9314e-11
1.01837e-09
-2.47362e-10
-2.47913e-10
-2.52639e-10
-2.53288e-10
4.94332e-10
1.92381e-10
9.62173e-10
-2.32326e-10
-2.96542e-10
-3.01866e-10
-3.46116e-10
7.65737e-11
-1.56226e-11
-1.61031e-10
-1.89149e-10
5.19797e-11
1.03697e-11
-1.20456e-10
-1.24699e-10
3.67246e-10
1.10883e-10
1.37675e-09
-2.57528e-10
-2.95787e-10
-2.78981e-10
-3.1553e-10
2.3068e-10
9.29362e-11
1.25089e-09
-2.47488e-10
-2.68084e-10
-2.59881e-10
-2.83004e-10
1.64436e-10
6.13021e-11
1.1163e-09
-2.4255e-10
-2.57407e-10
-2.48108e-10
-2.66974e-10
1.23624e-10
5.03731e-11
1.06899e-09
-2.4134e-10
-2.55089e-10
-2.46289e-10
-2.64005e-10
9.35645e-11
3.89582e-11
1.05016e-09
-2.41794e-10
-2.53721e-10
-2.46688e-10
-2.61053e-10
7.13974e-11
3.2997e-11
1.0383e-09
-2.42971e-10
-2.52956e-10
-2.47562e-10
-2.59407e-10
5.49605e-11
2.8717e-11
1.03005e-09
-2.43828e-10
-2.52019e-10
-2.48226e-10
-2.57777e-10
4.21212e-11
2.59053e-11
1.02504e-09
-2.4474e-10
-2.51443e-10
-2.48972e-10
-2.56698e-10
3.17132e-11
2.41552e-11
1.02158e-09
-2.45466e-10
-2.50762e-10
-2.49585e-10
-2.55623e-10
2.27274e-11
2.27196e-11
1.01946e-09
-2.46205e-10
-2.5024e-10
-2.50237e-10
-2.54806e-10
1.4735e-11
2.1951e-11
1.01797e-09
-2.46833e-10
-2.49645e-10
-2.50815e-10
-2.53993e-10
7.23379e-12
2.13115e-11
1.01714e-09
-2.47447e-10
-2.49121e-10
-2.51421e-10
-2.53311e-10
2.10838e-11
1.01671e-09
-2.48018e-10
-2.48564e-10
-2.52027e-10
-2.52644e-10
5.31569e-10
1.51491e-11
1.19327e-09
-2.96466e-10
-3.44271e-10
-2.64336e-10
-3.35891e-10
-1.80014e-11
4.381e-11
-1.51971e-10
-1.80494e-10
3.35377e-10
1.88138e-11
1.38621e-09
-2.59004e-10
-2.93854e-10
-2.50919e-10
-2.94169e-10
2.23776e-10
4.41146e-11
1.19534e-09
-2.49156e-10
-2.65149e-10
-2.48518e-10
-2.72095e-10
1.60092e-10
3.52775e-11
1.09484e-09
-2.42275e-10
-2.56757e-10
-2.44119e-10
-2.61978e-10
1.20232e-10
3.17599e-11
1.06299e-09
-2.41966e-10
-2.56165e-10
-2.44683e-10
-2.61703e-10
9.02632e-11
2.49344e-11
1.04573e-09
-2.42569e-10
-2.54422e-10
-2.45599e-10
-2.59151e-10
6.90642e-11
2.14854e-11
1.03493e-09
-2.43736e-10
-2.53688e-10
-2.46752e-10
-2.58042e-10
5.3129e-11
1.86237e-11
1.0274e-09
-2.4455e-10
-2.52679e-10
-2.47538e-10
-2.56613e-10
4.07541e-11
1.6838e-11
1.023e-09
-2.45431e-10
-2.52078e-10
-2.48349e-10
-2.55706e-10
3.06408e-11
1.56336e-11
1.01986e-09
-2.46128e-10
-2.51366e-10
-2.4899e-10
-2.54738e-10
2.19545e-11
1.47309e-11
1.01797e-09
-2.46834e-10
-2.50823e-10
-2.49642e-10
-2.53995e-10
1.42167e-11
1.42157e-11
1.01662e-09
-2.47444e-10
-2.50229e-10
-2.50225e-10
-2.53253e-10
6.98081e-12
1.3818e-11
1.01589e-09
-2.48038e-10
-2.49695e-10
-2.50812e-10
-2.52613e-10
1.36618e-11
1.01551e-09
-2.48597e-10
-2.4914e-10
-2.51393e-10
-2.51981e-10
-7.61323e-11
1.46177e-12
1.83638e-11
-5.77418e-12
6.2081e-11
5.21892e-10
-9.01778e-12
1.02404e-09
-2.47714e-10
-3.38845e-10
-2.17717e-10
-3.24457e-10
3.13491e-11
3.70104e-11
-2.32008e-10
-2.29381e-10
3.14056e-10
2.7338e-12
1.29979e-09
-2.46089e-10
-2.99105e-10
-2.35413e-10
-2.95268e-10
2.09664e-10
1.76186e-11
1.16155e-09
-2.45683e-10
-2.69878e-10
-2.42815e-10
-2.72292e-10
1.48312e-10
1.62701e-11
1.08483e-09
-2.42286e-10
-2.5817e-10
-2.4284e-10
-2.61169e-10
1.11942e-10
1.50564e-11
1.05829e-09
-2.42763e-10
-2.57598e-10
-2.4413e-10
-2.60734e-10
8.46866e-11
1.20009e-11
1.04225e-09
-2.43399e-10
-2.55413e-10
-2.45076e-10
-2.58172e-10
6.55698e-11
1.04659e-11
1.03261e-09
-2.44511e-10
-2.54573e-10
-2.46255e-10
-2.57136e-10
5.08388e-11
9.08206e-12
1.02577e-09
-2.45276e-10
-2.53434e-10
-2.47035e-10
-2.5576e-10
3.92722e-11
8.24814e-12
1.02179e-09
-2.46111e-10
-2.52766e-10
-2.47841e-10
-2.54917e-10
2.96458e-11
7.65512e-12
1.01887e-09
-2.46776e-10
-2.52004e-10
-2.48479e-10
-2.54006e-10
2.13139e-11
7.22882e-12
1.01713e-09
-2.47446e-10
-2.51424e-10
-2.49117e-10
-2.53311e-10
1.38189e-11
6.97842e-12
1.01589e-09
-2.48037e-10
-2.50812e-10
-2.49692e-10
-2.52613e-10
6.7968e-12
6.79445e-12
1.01521e-09
-2.48617e-10
-2.50271e-10
-2.50268e-10
-2.52005e-10
6.71469e-12
1.01487e-09
-2.49172e-10
-2.49713e-10
-2.50836e-10
-2.51404e-10
-1.32046e-10
3.706e-12
2.09799e-11
-2.01662e-12
1.09376e-10
5.22376e-10
1.01901e-09
-2.25614e-10
-3.37318e-10
-2.24616e-10
-3.35412e-10
2.35056e-11
2.34567e-11
-2.37684e-10
-2.36366e-10
3.13597e-10
1.27821e-09
-2.35627e-10
-2.99767e-10
-2.32973e-10
-2.98116e-10
2.07383e-10
1.15218e-09
-2.41835e-10
-2.72885e-10
-2.40759e-10
-2.7273e-10
1.46232e-10
1.08036e-09
-2.41744e-10
-2.59465e-10
-2.41601e-10
-2.60059e-10
1.10215e-10
1.05566e-09
-2.43012e-10
-2.58712e-10
-2.43271e-10
-2.59542e-10
8.34364e-11
1.04039e-09
-2.43879e-10
-2.56287e-10
-2.44318e-10
-2.5709e-10
6.47128e-11
1.03147e-09
-2.45082e-10
-2.55399e-10
-2.45594e-10
-2.56189e-10
5.02079e-11
1.02495e-09
-2.45872e-10
-2.54168e-10
-2.46416e-10
-2.54902e-10
3.88223e-11
1.02119e-09
-2.46706e-10
-2.53449e-10
-2.47256e-10
-2.5414e-10
2.93104e-11
1.01838e-09
-2.47361e-10
-2.52643e-10
-2.4791e-10
-2.5329e-10
2.10811e-11
1.01672e-09
-2.48017e-10
-2.5203e-10
-2.48562e-10
-2.52645e-10
1.36592e-11
1.01552e-09
-2.48596e-10
-2.51395e-10
-2.49138e-10
-2.51982e-10
6.71266e-12
1.01487e-09
-2.49172e-10
-2.50838e-10
-2.49711e-10
-2.51404e-10
1.01454e-09
-2.49726e-10
-2.50272e-10
-2.50271e-10
-2.50826e-10
-2.50085e-11
-1.00577e-12
-4.04285e-13
-1.68968e-11
4.33154e-11
-5.66565e-11
9.34564e-13
-7.22585e-13
-1.6962e-11
7.34065e-11
-1.744e-11
2.93101e-12
-1.27109e-11
2.722e-11
-5.95958e-11
4.00766e-12
-1.87149e-11
-1.2388e-11
8.6691e-11
4.48809e-11
1.14662e-10
8.36556e-10
5.43218e-11
4.54953e-11
-5.85283e-11
-5.32595e-11
6.72222e-11
4.52488e-11
-7.55632e-11
-5.88572e-11
1.80381e-11
1.55146e-10
1.10087e-09
3.90128e-11
5.72721e-11
-5.21532e-11
-8.00246e-11
9.90696e-12
1.32492e-10
9.54387e-10
6.4907e-11
6.46336e-11
-9.21045e-11
-9.21333e-11
1.38626e-10
9.55388e-10
6.1317e-11
6.11807e-11
-9.39272e-11
-9.34782e-11
-1.73533e-11
4.29487e-12
-1.52143e-11
2.82727e-11
-1.1013e-10
3.7921e-12
7.30385e-12
-1.63271e-11
-1.39055e-11
1.29267e-10
5.54033e-11
1.51606e-10
8.05816e-10
6.6929e-11
5.38279e-11
-8.88819e-11
-9.07586e-11
7.65042e-11
4.27357e-11
-9.14331e-11
-6.47527e-11
7.51735e-12
1.54365e-10
1.04673e-09
6.12205e-11
4.01492e-11
-7.34707e-11
-6.56284e-11
9.68773e-12
1.46442e-10
1.34283e-09
1.26584e-11
1.63681e-10
1.37472e-09
9.52121e-12
1.35143e-10
1.3003e-09
1.35465e-10
1.291e-09
-3.9685e-11
-2.89005e-12
-1.47349e-11
-1.0716e-11
6.80259e-11
6.87881e-11
1.46621e-10
8.42435e-10
6.65553e-11
5.52564e-11
-9.11105e-11
-9.42268e-11
7.0132e-11
4.09594e-11
-8.11517e-11
-6.03764e-11
4.87789e-11
1.44808e-10
1.02804e-09
6.38852e-11
3.90983e-11
-8.43464e-11
-7.11045e-11
7.41844e-11
1.42814e-10
1.32201e-09
7.00974e-11
1.56232e-10
1.31971e-09
6.12449e-11
1.48041e-10
1.25819e-09
4.61603e-11
1.61489e-10
1.21263e-09
2.26969e-11
1.45041e-10
1.17514e-09
1.43782e-10
1.16663e-09
6.4819e-11
7.72931e-11
8.03981e-10
6.07836e-11
6.2846e-11
-5.64552e-11
-7.38892e-11
5.02227e-11
3.37756e-11
-4.81744e-11
-4.35029e-11
4.91465e-11
1.22056e-10
1.00635e-09
5.71183e-11
4.14842e-11
-7.47022e-11
-6.52881e-11
8.3729e-11
1.29527e-10
1.32284e-09
8.70403e-11
1.40136e-10
1.31231e-09
8.26738e-11
1.36149e-10
1.25036e-09
6.78368e-11
1.45931e-10
1.19685e-09
4.82261e-11
1.35817e-10
1.14817e-09
3.32095e-11
1.3725e-10
1.13411e-09
1.63335e-11
1.25029e-10
1.12173e-09
1.2343e-10
1.11707e-09
7.75636e-11
6.46387e-11
8.03249e-10
5.03219e-11
3.39052e-11
-4.81501e-11
-4.36325e-11
6.07162e-11
6.28286e-11
-5.64451e-11
-7.3865e-11
8.89156e-11
8.89327e-11
1.30821e-09
9.98738e-11
1.16658e-10
1.28371e-09
1.01134e-10
1.20428e-10
1.23884e-09
9.09391e-11
1.30151e-10
1.18825e-09
7.55228e-11
1.23329e-10
1.13764e-09
6.10288e-11
1.245e-10
1.12201e-09
4.56089e-11
1.14674e-10
1.10558e-09
3.13954e-11
1.14279e-10
1.10019e-09
1.55436e-11
1.07232e-10
1.09196e-09
1.06348e-10
1.0883e-09
-3.96662e-11
-2.89297e-12
-1.07047e-11
-1.47439e-11
6.80077e-11
1.22149e-10
4.89397e-11
1.00564e-09
5.70926e-11
4.14847e-11
-7.46914e-11
-6.52968e-11
1.1645e-10
9.95897e-11
1.28366e-09
1.12139e-10
1.11979e-10
1.20791e-09
9.72832e-11
1.09154e-10
1.14332e-09
8.23675e-11
1.10356e-10
1.12228e-09
6.66881e-11
1.02791e-10
1.10228e-09
5.2698e-11
1.01373e-10
1.09503e-09
3.84243e-11
9.43191e-11
1.08481e-09
2.57915e-11
9.3061e-11
1.07959e-09
1.27462e-11
8.85614e-11
1.07397e-09
8.7842e-11
1.07164e-09
-1.73531e-11
-1.52171e-11
4.29632e-12
2.82739e-11
1.46625e-10
6.86395e-11
8.42272e-10
7.01514e-11
4.0983e-11
-8.11139e-11
-6.03503e-11
6.65696e-11
5.5269e-11
-9.11127e-11
-9.42314e-11
1.29547e-10
8.35211e-11
1.32243e-09
1.20322e-10
1.00955e-10
1.23858e-09
1.09139e-10
9.71579e-11
1.14306e-09
9.16137e-11
9.15603e-11