/*--------------------------------*- C++ -*----------------------------------*\
| =========                 |                                                 |
| \\      /  F ield         | OpenFOAM: The Open Source CFD Toolbox           |
|  \\    /   O peration     | Version:  2.1.1                                 |
|   \\  /    A nd           | Web:      www.OpenFOAM.org                      |
|    \\/     M anipulation  |                                                 |
\*---------------------------------------------------------------------------*/
FoamFile
{
    version     2.0;
    format      ascii;
    class       surfaceScalarField;
    location    "0.002";
    object      phi;
}
// * * * * * * * * * * * * * * * * * * * * * * * * * * * * * * * * * * * * * //

dimensions      [0 3 -1 0 0 0 0];

internalField   nonuniform List<scalar> 
29776
(
-3.05846e-12
-9.20975e-14
-2.93342e-12
6.08417e-12
-2.61447e-12
2.24242e-13
-3.06802e-13
-2.94636e-12
5.64339e-12
2.40285e-12
5.14284e-12
9.85347e-10
6.92396e-11
6.94047e-11
-6.67715e-11
-6.69123e-11
7.48066e-11
4.70998e-12
8.01418e-10
6.99975e-11
7.31079e-11
-6.57992e-11
-7.03968e-11
4.96633e-11
-7.04135e-11
-4.6971e-11
1.95297e-11
-5.81786e-11
1.81681e-11
-1.63259e-11
1.11614e-10
1.38686e-11
-5.83314e-11
-7.74391e-12
2.37326e-12
-1.86105e-11
7.59118e-11
1.37232e-11
-1.06904e-11
-1.05006e-11
-4.86216e-11
1.35032e-11
-1.83735e-11
6.19757e-11
-2.876e-13
1.18726e-11
-1.02892e-11
-9.69729e-12
-1.01198e-11
1.38417e-11
8.7181e-12
-1.25222e-11
-3.72565e-12
-5.9532e-13
-3.23426e-13
-2.55092e-12
7.19532e-12
-3.00861e-13
6.68245e-12
1.22024e-09
-1.55705e-12
6.1078e-12
1.2038e-09
2.2871e-12
2.29598e-12
9.66059e-10
4.78907e-11
6.17273e-11
-4.67035e-11
-6.06117e-11
2.5419e-12
1.83518e-12
9.72099e-10
6.48271e-11
6.70583e-11
-6.28106e-11
-6.51931e-11
4.37999e-12
2.83061e-12
9.82773e-10
6.71387e-11
6.76032e-11
-6.55654e-11
-6.51134e-11
6.68337e-11
3.44146e-12
8.10785e-10
6.77429e-11
6.84873e-11
-6.37299e-11
-6.56563e-11
4.69312e-11
-6.26931e-11
-4.46822e-11
-4.0212e-11
1.31604e-11
1.63124e-11
-1.40021e-11
8.99889e-11
1.71706e-11
-7.76725e-12
-7.81719e-12
3.66811e-13
1.51406e-12
-1.46269e-11
2.31279e-12
-2.99395e-12
1.34272e-11
7.6567e-13
5.90284e-12
1.19668e-09
2.20601e-12
5.74023e-12
1.21296e-09
1.8388e-12
5.79063e-12
1.20383e-09
2.8332e-13
5.02769e-12
1.21161e-09
-4.6515e-13
5.21445e-12
1.22131e-09
-6.76133e-13
4.87081e-12
1.19741e-09
2.84887e-12
1.2946e-12
9.47718e-10
4.78054e-11
6.22467e-11
-4.69229e-11
-6.12104e-11
6.8273e-11
2.09366e-12
8.25787e-10
6.4224e-11
6.43379e-11
-6.13915e-11
-6.19031e-11
4.64625e-11
-6.38671e-11
-4.5265e-11
-2.8719e-11
1.05261e-11
-5.40818e-12
7.87148e-11
1.69069e-11
-6.4735e-12
-7.20563e-12
-7.99857e-12
1.58415e-11
1.11513e-11
-9.06204e-12
-9.63177e-13
5.96979e-13
-2.03435e-12
2.40055e-12
-7.63152e-13
4.79469e-12
1.18327e-09
-1.45159e-12
4.8012e-12
1.18706e-09
-2.46553e-13
5.00768e-12
1.19489e-09
1.89144e-13
4.17183e-12
1.1934e-09
1.86972e-13
4.34022e-12
1.19576e-09
9.98125e-14
3.85196e-12
1.20602e-09
-2.305e-12
4.57481e-12
1.20505e-09
-8.76492e-13
3.62157e-12
1.19248e-09
6.73684e-11
1.59759e-12
7.65703e-10
4.45928e-11
6.79616e-11
-4.40521e-11
-6.52565e-11
4.92879e-11
-6.45133e-11
-4.63763e-11
1.83687e-11
-6.02367e-11
1.36987e-11
-1.52402e-11
1.10779e-10
2.8971e-12
-1.01272e-11
1.43327e-12
5.79684e-12
1.87459e-13
3.71365e-12
1.18275e-09
3.67212e-13
3.58503e-12
1.1828e-09
5.19524e-13
4.11246e-12
1.18465e-09
-1.41207e-14
3.49231e-12
1.18315e-09
-4.45685e-13
3.45398e-12
1.18285e-09
-1.40298e-12
3.30578e-12
1.18403e-09
-1.458e-12
2.9027e-12
1.19435e-09
-1.85664e-12
3.92577e-12
1.22306e-09
-1.83601e-12
2.72043e-12
1.18262e-09
6.83764e-11
1.81011e-12
7.7222e-10
5.05152e-11
6.83879e-11
-4.82929e-11
-6.67787e-11
5.04975e-11
-6.67584e-11
-4.8263e-11
1.8961e-11
-6.34872e-11
1.33323e-11
-1.55183e-11
1.15089e-10
3.22208e-12
-1.10105e-11
1.57608e-12
6.21232e-12
-3.03633e-13
3.12235e-12
1.17969e-09
-6.36254e-13
2.98774e-12
1.17979e-09
-4.7459e-13
3.1913e-12
1.18131e-09
-5.56883e-13
2.79106e-12
1.18092e-09
-8.21254e-13
2.88428e-12
1.18182e-09
-1.05981e-12
2.62723e-12
1.18163e-09
-2.12207e-12
2.69165e-12
1.18375e-09
-2.66029e-12
2.65499e-12
1.19417e-09
-2.71851e-12
2.66784e-12
1.22656e-09
-1.59866e-12
1.83276e-12
1.18229e-09
6.79548e-11
9.06279e-13
7.65272e-10
4.45973e-11
-6.52665e-11
-4.40794e-11
4.93009e-11
6.72773e-11
-4.63919e-11
-6.44345e-11
-3.97035e-11
1.91769e-11
-8.91652e-12
9.03821e-11
-7.95226e-12
1.29207e-11
1.11575e-11
-9.10941e-12
-8.70261e-14
2.45487e-12
1.17801e-09
-2.36897e-13
2.36018e-12
1.17808e-09
-3.67732e-13
2.58206e-12
1.17873e-09
-7.05662e-13
2.34151e-12
1.17874e-09
-1.07071e-12
2.39863e-12
1.17959e-09
-1.57165e-12
2.27514e-12
1.18032e-09
-2.05775e-12
2.15653e-12
1.18178e-09
-2.65914e-12
2.06385e-12
1.18333e-09
-3.93229e-12
2.12622e-12
1.19409e-09
-3.64247e-12
1.44437e-12
1.22291e-09
-2.10637e-12
2.32708e-12
1.19229e-09
6.43448e-11
-2.93065e-12
8.25805e-10
4.64522e-11
6.82801e-11
-4.52426e-11
-6.38381e-11
6.42424e-11
-6.19021e-11
-6.13592e-11
-3.85241e-11
1.10529e-11
-7.19013e-12
8.94895e-11
1.96935e-11
-9.05653e-12
-9.76421e-12
-1.00797e-11
1.35814e-11
1.47798e-11
-9.63699e-12
-2.39749e-13
1.95111e-12
1.17631e-09
-5.12046e-13
1.89521e-12
1.17643e-09
-6.7031e-13
1.98193e-12
1.17706e-09
-9.23624e-13
1.83715e-12
1.17729e-09
-1.27463e-12
1.86873e-12
1.17822e-09
-1.66111e-12
1.77045e-12
1.17906e-09
-2.14406e-12
1.66866e-12
1.18085e-09
-2.68689e-12
1.57782e-12
1.1818e-09
-2.89456e-12
1.05791e-12
1.18365e-09
-4.61274e-12
1.40443e-12
1.19416e-09
-1.25747e-12
-1.30408e-13
1.20477e-09
6.20925e-11
7.34205e-13
9.47821e-10
4.76677e-11
-6.11902e-11
-4.69321e-11
-5.01171e-11
2.99485e-12
1.41035e-11
-6.08896e-12
1.01201e-10
1.30317e-12
6.56516e-13
-1.12453e-11
-1.89607e-13
9.4752e-12
-1.86737e-13
1.4753e-12
1.17542e-09
-4.10862e-13
1.44523e-12
1.1755e-09
-6.40344e-13
1.51911e-12
1.17585e-09
-9.55852e-13
1.43116e-12
1.17606e-09
-1.33717e-12
1.45062e-12
1.1768e-09
-1.76001e-12
1.34926e-12
1.17758e-09
-2.26631e-12
1.28061e-12
1.17908e-09
-2.63643e-12
1.08626e-12
1.18028e-09
-3.32046e-12
8.16414e-13
1.1815e-09
-3.9286e-12
4.79981e-13
1.1839e-09
-4.99753e-12
-2.38065e-13
1.20584e-09
-3.6189e-12
5.8629e-13
1.19745e-09
6.79903e-11
-4.40596e-12
8.11092e-10
4.68968e-11
6.70119e-11
-4.46809e-11
-6.25739e-11
6.71187e-11
-6.59884e-11
-6.40731e-11
-4.0752e-11
1.16114e-11
-6.13048e-12
9.26568e-11
1.65516e-11
-7.90003e-12
-7.619e-12
-9.38472e-12
1.28877e-11
1.44189e-11
-8.34982e-12
-2.36652e-13
1.10454e-12
1.17479e-09
-4.93335e-13
1.08406e-12
1.17487e-09
-7.50505e-13
1.1163e-12
1.17516e-09
-1.05806e-12
1.05495e-12
1.17542e-09
-1.44038e-12
1.06714e-12
1.17612e-09
-1.8567e-12
9.67275e-13
1.17682e-09
-2.38608e-12
9.27306e-13
1.17818e-09
-2.88466e-12
7.2865e-13
1.17952e-09
-3.4689e-12
5.5113e-13
1.18173e-09
-4.38793e-12
5.55564e-14
1.18274e-09
-5.35587e-12
-2.39649e-13
1.19562e-09
-3.06393e-12
-8.99375e-14
1.22123e-09
6.75375e-11
-2.58746e-12
9.82886e-10
6.66061e-11
-6.52399e-11
-6.56239e-11
-4.01173e-11
1.94889e-13
5.55071e-12
9.13248e-11
-7.20552e-12
1.44988e-11
1.28425e-11
-9.55114e-12
-1.25024e-12
-3.14631e-13
-5.06999e-13
2.07188e-12
-2.21662e-13
7.75024e-13
1.17457e-09
-4.62392e-13
7.60477e-13
1.1746e-09
-7.30744e-13
7.84893e-13
1.17473e-09
-1.04527e-12
7.40112e-13
1.17493e-09
-1.42035e-12
7.58766e-13
1.17541e-09
-1.82647e-12
6.50186e-13
1.17604e-09
-2.3296e-12
6.68256e-13
1.17725e-09
-2.79704e-12
4.08104e-13
1.17868e-09
-3.51293e-12
4.63468e-13
1.18083e-09
-4.22301e-12
-4.70847e-13
1.18302e-09
-5.19286e-12
2.09882e-13
1.19327e-09
-2.032e-12
-1.65339e-12
1.21137e-09
6.6722e-11
-2.1347e-12
9.72161e-10
6.44133e-11
-6.51152e-11
-6.28475e-11
-2.04975e-12
-5.03775e-11
1.94152e-11
-1.14439e-12
1.00878e-10
1.63309e-12
9.12552e-13
-1.41727e-11
2.06493e-12
1.80743e-13
9.38141e-12
-2.39245e-13
4.99258e-13
1.17463e-09
-4.93809e-13
4.88459e-13
1.17459e-09
-7.75448e-13
5.04252e-13
1.17469e-09
-1.10539e-12
4.73915e-13
1.17478e-09
-1.50956e-12
4.9985e-13
1.17515e-09
-1.97415e-12
4.16999e-13
1.17582e-09
-2.57524e-12
5.07779e-13
1.17701e-09
-3.19384e-12
2.83581e-13
1.17865e-09
-4.13054e-12
6.17613e-13
1.18123e-09
-5.04492e-12
-3.38089e-13
1.18454e-09
-5.92091e-12
1.39927e-12
1.19478e-09
-2.45235e-12
-2.07091e-12
1.20359e-09
6.15154e-11
1.62091e-12
9.6608e-10
4.78391e-11
-6.06411e-11
-4.67286e-11
-4.23063e-11
5.34753e-12
1.56454e-11
-8.26176e-12
9.10906e-11
4.23539e-12
3.38038e-13
-1.37452e-11
2.32574e-12
-1.4848e-12
8.33087e-12
-2.31918e-13
2.42148e-13
1.17494e-09
-4.80942e-13
2.39606e-13
1.17479e-09
-7.51772e-13
2.46667e-13
1.17466e-09
-1.07514e-12
2.30247e-13
1.1746e-09
-1.43757e-12
2.43377e-13
1.17485e-09
-1.88798e-12
1.94462e-13
1.17546e-09
-2.36201e-12
2.42218e-13
1.17639e-09
-2.98099e-12
1.16728e-13
1.17801e-09
-3.60492e-12
2.93045e-13
1.17972e-09
-4.82642e-12
-1.70145e-13
1.18268e-09
-5.83736e-12
7.32433e-13
1.18698e-09
-6.245e-12
-6.95289e-13
1.21269e-09
-4.66258e-12
2.91434e-13
1.20374e-09
7.22596e-11
-2.39904e-12
8.01491e-10
6.9631e-11
-7.06745e-11
-6.58348e-11
4.96379e-11
7.47017e-11
-4.69836e-11
-7.03045e-11
-6.06582e-11
2.19528e-11
-1.53285e-11
1.17712e-10
-9.59115e-12
1.12286e-11
1.42329e-11
-7.28922e-12
-2.33811e-13
1.17536e-09
-4.84265e-13
1.17497e-09
-7.63465e-13
1.17464e-09
-1.0988e-12
1.17457e-09
-1.47151e-12
1.17478e-09
-1.94735e-12
1.17539e-09
-2.4599e-12
1.17629e-09
-3.11716e-12
1.17796e-09
-3.72842e-12
1.17965e-09
-4.80131e-12
1.18264e-09
-5.95936e-12
1.18324e-09
-6.76992e-12
1.19643e-09
-5.11348e-12
1.22029e-09
6.89027e-11
9.85165e-10
6.85799e-11
-6.70318e-11
-6.69976e-11
-4.28147e-11
6.5972e-12
-1.86105e-12
9.61793e-11
-9.87321e-12
1.53774e-11
1.53949e-11
-1.00973e-11
-3.21976e-12
-9.10288e-14
-2.77468e-12
6.08562e-12
-2.77136e-12
2.23107e-13
-3.02977e-13
-2.7672e-12
5.61843e-12
1.53256e-12
9.2821e-13
9.81604e-10
6.67911e-11
6.71215e-11
-6.62679e-11
-6.63681e-11
7.24491e-11
1.70033e-12
7.9785e-10
6.72989e-11
7.05212e-11
-6.54576e-11
-7.00761e-11
4.84011e-11
-7.13135e-11
-4.84257e-11
1.77227e-11
-5.9325e-11
1.61739e-11
-1.49209e-11
1.12799e-10
1.32763e-11
-5.87174e-11
-6.88631e-12
1.92553e-12
-1.6722e-11
7.55881e-11
1.31329e-11
-1.09215e-11
-1.06756e-11
-4.86805e-11
1.29626e-11
-1.58683e-11
6.1772e-11
8.15088e-14
1.13005e-11
-1.0522e-11
-9.86803e-12
-1.03018e-11
1.33381e-11
8.45236e-12
-1.26665e-11
-3.87787e-12
-5.36177e-13
-3.33489e-13
-2.43455e-12
7.18209e-12
-1.11618e-12
1.91521e-12
1.22036e-09
-2.36351e-12
2.69983e-12
1.20405e-09
9.53811e-13
-6.90904e-13
9.63619e-10
4.71678e-11
6.09233e-11
-4.76333e-11
-6.06449e-11
1.68411e-12
-1.31354e-12
9.709e-10
6.36726e-11
6.54821e-11
-6.26543e-11
-6.47178e-11
2.78683e-12
-1.00863e-13
9.80537e-10
6.48907e-11
6.62705e-11
-6.54794e-11
-6.44484e-11
6.5925e-11
1.57741e-12
8.08405e-10
6.49165e-11
6.71123e-11
-6.40743e-11
-6.59964e-11
4.61254e-11
-6.40451e-11
-4.6373e-11
-4.12857e-11
1.22289e-11
1.49553e-11
-1.19432e-11
9.18114e-11
1.66554e-11
-8.35176e-12
-8.145e-12
2.51733e-15
1.52302e-12
-1.4325e-11
2.16941e-12
-2.81953e-12
1.34496e-11
5.91387e-13
9.63867e-13
1.19704e-09
2.10814e-12
1.27882e-12
1.21286e-09
1.20637e-12
1.89792e-12
1.20215e-09
-3.94702e-13
1.61859e-12
1.21028e-09
-1.39577e-12
1.61399e-12
1.2206e-09
-1.92633e-12
2.28494e-12
1.19724e-09
2.71788e-12
-1.74705e-12
9.45965e-10
4.65748e-11
6.10955e-11
-4.77658e-11
-6.10475e-11
6.75723e-11
1.35494e-12
8.23271e-10
6.26262e-11
6.36524e-11
-6.17981e-11
-6.23094e-11
4.53104e-11
-6.43567e-11
-4.68145e-11
-3.00211e-11
9.9177e-12
-3.29504e-12
8.03523e-11
1.6567e-11
-6.94365e-12
-7.52044e-12
-8.33301e-12
1.54993e-11
1.07158e-11
-9.36559e-12
-9.88345e-13
5.59745e-13
-1.98264e-12
2.41124e-12
-4.18363e-13
8.36151e-13
1.18381e-09
-8.37639e-13
8.93624e-13
1.18786e-09
-1.24712e-13
8.68401e-13
1.1952e-09
2.32826e-13
5.78315e-13
1.19409e-09
4.64782e-13
7.27736e-13
1.19642e-09
1.21179e-12
8.58065e-13
1.2067e-09
-1.9012e-12
1.78479e-12
1.20463e-09
-4.40213e-13
1.46029e-12
1.19091e-09
6.5973e-11
-7.19412e-13
7.64184e-10
4.31346e-11
6.70978e-11
-4.51374e-11
-6.47942e-11
4.83112e-11
-6.5043e-11
-4.77422e-11
1.72238e-11
-6.18347e-11
1.20788e-11
-1.39049e-11
1.1241e-10
2.70455e-12
-9.95164e-12
1.47689e-12
5.7702e-12
1.84087e-13
7.00409e-13
1.1827e-09
3.10859e-13
6.42818e-13
1.18293e-09
2.12856e-13
9.1912e-13
1.1847e-09
-1.01753e-13
7.50523e-13
1.18329e-09
-1.85901e-13
7.19288e-13
1.18294e-09
-5.06833e-13
8.52225e-13
1.18436e-09
2.33576e-13
4.10804e-13
1.19499e-09
-4.99074e-13
1.53245e-12
1.22373e-09
-1.33869e-13
7.57774e-13
1.18077e-09
6.73952e-11
1.14362e-13
7.71068e-10
4.9707e-11
6.74122e-11
-4.96006e-11
-6.7066e-11
4.96802e-11
-6.70516e-11
-4.95726e-11
1.79429e-11
-6.51799e-11
1.18733e-11
-1.39632e-11
1.16723e-10
3.02277e-12
-1.08347e-11
1.61389e-12
6.19804e-12
-1.23456e-13
6.53424e-13
1.17986e-09
-2.77918e-13
5.98163e-13
1.17999e-09
-1.84237e-13
6.70681e-13
1.18146e-09
-1.34509e-13
5.7132e-13
1.18105e-09
-1.89732e-13
6.43344e-13
1.18196e-09
-8.90254e-14
6.08753e-13
1.18177e-09
-5.42524e-13
6.55501e-13
1.18396e-09
-2.83453e-13
5.97443e-13
1.19484e-09
-6.47617e-13
2.78444e-13
1.22741e-09
7.22772e-13
5.89762e-13
1.18044e-09
6.71034e-11
4.38505e-13
7.63756e-10
4.31462e-11
-6.48007e-11
-4.51559e-11
4.83314e-11
6.58942e-11
-4.77572e-11
-6.49595e-11
-4.10105e-11
1.78395e-11
-7.09876e-12
9.17667e-11
-8.32867e-12
1.26296e-11
1.06296e-11
-9.32383e-12
-4.80424e-16
5.25628e-13
1.17814e-09
-3.30958e-14
4.97559e-13
1.17821e-09
-6.68937e-14
5.92206e-13
1.17884e-09
-1.76117e-13
5.46985e-13
1.17888e-09
-2.72285e-13
5.65929e-13
1.17976e-09
-4.3725e-13
5.80535e-13
1.18051e-09
-4.91424e-13
5.10445e-13
1.18198e-09
-6.02874e-13
4.998e-13
1.18354e-09
-1.54817e-12
5.49053e-13
1.19477e-09
-1.44966e-12
-2.05631e-13
1.2236e-09
-1.3717e-12
1.9011e-12
1.19075e-09
6.3646e-11
-2.71521e-12
8.23264e-10
4.52971e-11
6.7576e-11
-4.67985e-11
-6.43395e-11
6.26353e-11
-6.23213e-11
-6.18088e-11
-3.94483e-11
1.05751e-11
-5.82875e-12
9.12096e-11
1.93888e-11
-9.48811e-12
-1.01409e-11
-1.04845e-11
1.34848e-11
1.44224e-11
-1.0044e-11
-6.87192e-14
4.27019e-13
1.17648e-09
-1.47191e-13
4.1337e-13
1.1766e-09
-1.72124e-13
4.43951e-13
1.17724e-09
-2.08004e-13
4.15525e-13
1.17746e-09
-2.94559e-13
4.27081e-13
1.17845e-09
-3.76345e-13
4.28752e-13
1.17929e-09
-5.05194e-13
3.83543e-13
1.1811e-09
-6.57257e-13
4.47209e-13
1.18201e-09
-4.37054e-13
1.1002e-13
1.18387e-09
-1.82158e-12
5.2119e-13
1.19482e-09
1.69684e-12
-1.25071e-12
1.20441e-09
6.10898e-11
2.05123e-12
9.45926e-10
4.65773e-11
-6.10671e-11
-4.77742e-11
-5.16764e-11
2.30153e-12
1.22678e-11
-4.77135e-12
1.02968e-10
1.02588e-12
5.9189e-13
-1.0967e-11
-2.3306e-13
9.58227e-12
-3.62001e-14
3.25592e-13
1.17556e-09
-8.54289e-14
3.20615e-13
1.17564e-09
-1.39442e-13
3.51441e-13
1.176e-09
-2.16629e-13
3.36137e-13
1.17622e-09
-3.15983e-13
3.41199e-13
1.17699e-09
-4.20385e-13
3.29032e-13
1.17779e-09
-5.75916e-13
3.03445e-13
1.17931e-09
-6.16894e-13
2.90908e-13
1.18048e-09
-8.7e-13
2.05536e-13
1.18166e-09
-8.9358e-13
2.14521e-13
1.18423e-09
-2.37492e-12
-5.02027e-13
1.20658e-09
-1.57398e-12
1.45085e-12
1.19725e-09
6.71457e-11
-2.73364e-12
8.08527e-10
4.61166e-11
6.59574e-11
-4.638e-11
-6.40306e-11
6.49422e-11
-6.59774e-11
-6.40497e-11
-4.13912e-11
1.10922e-11
-4.88658e-12
9.42683e-11
1.61638e-11
-8.34688e-12
-7.93951e-12
-9.74545e-12
1.2535e-11
1.40272e-11
-8.63138e-12
-5.51096e-14
2.46902e-13
1.17493e-09
-1.16457e-13
2.4471e-13
1.17501e-09
-1.7439e-13
2.5612e-13
1.17531e-09
-2.37562e-13
2.43653e-13
1.17557e-09
-3.31153e-13
2.47853e-13
1.17631e-09
-4.1831e-13
2.2902e-13
1.17701e-09
-5.60259e-13
2.15097e-13
1.17841e-09
-6.4669e-13
1.94601e-13
1.1797e-09
-7.27266e-13
1.37211e-13
1.18188e-09
-7.59617e-13
1.36647e-13
1.18285e-09
-1.70278e-12
-2.59369e-13
1.19632e-09
-1.65969e-15
4.15432e-13
1.22057e-09
6.62465e-11
-1.59729e-12
9.80558e-10
6.49314e-11
-6.44813e-11
-6.55071e-11
-4.06996e-11
-2.59749e-13
5.62747e-12
9.24273e-11
-7.4988e-12
1.41234e-11
1.23191e-11
-9.79278e-12
-1.22704e-12
-3.54547e-13
-5.16511e-13
2.0981e-12
-4.53739e-14
1.76178e-13
1.1747e-09
-9.95663e-14
1.73557e-13
1.17473e-09
-1.63105e-13
1.84332e-13
1.17487e-09
-2.33055e-13
1.73922e-13
1.17507e-09
-3.25792e-13
1.84519e-13
1.17557e-09
-4.0762e-13
1.5146e-13
1.1762e-09
-5.43298e-13
1.76388e-13
1.17742e-09
-5.76342e-13
8.33468e-14
1.17882e-09
-7.68887e-13
1.83278e-13
1.18098e-09
-6.08568e-13
-1.82268e-13
1.18318e-09
-1.73181e-12
1.36873e-13
1.194e-09
1.06241e-12
-1.17795e-12
1.21017e-09
6.54826e-11
-8.35771e-13
9.70835e-10
6.36294e-11
-6.47804e-11
-6.2706e-11
-1.99836e-12
-5.12129e-11
1.75977e-11
-9.03089e-13
1.01999e-10
1.27012e-12
9.08869e-13
-1.38052e-11
2.0626e-12
1.64143e-13
9.39952e-12
-5.04195e-14
1.16564e-13
1.17475e-09
-1.0849e-13
1.12609e-13
1.17471e-09
-1.73914e-13
1.19938e-13
1.17482e-09
-2.45749e-13
1.11078e-13
1.17492e-09
-3.42896e-13
1.25612e-13
1.17531e-09
-4.37864e-13
9.48506e-14
1.17597e-09
-5.9166e-13
1.51424e-13
1.17719e-09
-6.73492e-13
4.44865e-14
1.17877e-09
-9.36363e-13
2.76542e-13
1.1814e-09
-9.11209e-13
-2.85882e-13
1.18462e-09
-1.98352e-12
8.3145e-13
1.19515e-09
4.62322e-13
-2.07823e-12
1.20204e-09
6.08613e-11
2.51266e-12
9.63581e-10
4.71099e-11
-6.06925e-11
-4.76677e-11
-4.37809e-11
4.79986e-12
1.40264e-11
-6.57246e-12
9.23886e-11
3.81453e-12
3.24746e-13
-1.33831e-11
2.37607e-12
-1.29051e-12
8.15827e-12
-4.8994e-14
5.79852e-14
1.17505e-09
-1.04643e-13
5.92408e-14
1.1749e-09
-1.64385e-13
6.2384e-14
1.17478e-09
-2.35493e-13
5.75725e-14
1.17473e-09
-3.13582e-13
6.49364e-14
1.17499e-09
-4.08348e-13
4.54812e-14
1.17561e-09
-4.97009e-13
7.40636e-14
1.17655e-09
-6.01062e-13
1.1777e-14
1.17815e-09
-6.58317e-13
1.23776e-13
1.17993e-09
-9.29606e-13
-1.68206e-13
1.18283e-09
-1.32523e-12
4.11507e-13
1.1878e-09
-2.84359e-12
-5.75578e-13
1.2127e-09
-1.69686e-12
1.17864e-12
1.20392e-09
7.05427e-11
-1.49856e-12
7.9771e-10
6.73242e-11
-7.0034e-11
-6.54069e-11
4.83988e-11
7.25165e-11
-4.8454e-11
-7.13046e-11
-6.12412e-11
2.05227e-11
-1.45905e-11
1.18629e-10
-9.91151e-12
1.09294e-11
1.37565e-11
-7.55198e-12
-4.74032e-14
1.17547e-09
-1.0326e-13
1.17508e-09
-1.65991e-13
1.17477e-09
-2.41524e-13
1.1747e-09
-3.21856e-13
1.17492e-09
-4.24109e-13
1.17554e-09
-5.26727e-13
1.17646e-09
-6.57064e-13
1.1781e-09
-7.15578e-13
1.17983e-09
-8.6885e-13
1.18262e-09
-9.92699e-13
1.18377e-09
-2.01647e-12
1.19688e-09
-8.47625e-13
1.2203e-09
6.71241e-11
9.81422e-10
6.68197e-11
-6.63078e-11
-6.62354e-11
-4.3545e-11
6.27075e-12
-1.71035e-12
9.69627e-11
-1.02256e-11
1.49058e-11
1.48882e-11
-1.04228e-11
-3.25841e-12
-8.85963e-14
-2.76101e-12
6.10658e-12
-2.80475e-12
2.22578e-13
-2.9934e-13
-2.75143e-12
5.63294e-12
3.46426e-13
-2.20768e-12
9.83273e-10
6.64192e-11
6.68265e-11
-6.64785e-11
-6.65788e-11
7.1773e-11
-1.53848e-12
7.9962e-10
6.70621e-11
7.03561e-11
-6.56638e-11
-7.01935e-11
4.80697e-11
-7.22496e-11
-4.9041e-11
1.73482e-11
-5.95127e-11
1.57214e-11
-1.50033e-11
1.13218e-10
1.32408e-11
-5.90627e-11
-6.54091e-12
1.66663e-12
-1.65003e-11
7.58074e-11
1.31526e-11
-1.10346e-11
-1.07291e-11
-4.8921e-11
1.29514e-11
-1.55665e-11
6.18879e-11
1.906e-13
1.1305e-11
-1.06023e-11
-9.92127e-12
-1.03997e-11
1.33469e-11
8.46583e-12
-1.27369e-11
-3.91554e-12
-5.24534e-13
-3.3501e-13
-2.43337e-12
7.20846e-12
-1.84141e-14
-2.74757e-12
1.22091e-09
-2.52175e-13
-2.07625e-12
1.20482e-09
5.90046e-13
-3.59968e-12
9.65676e-10
4.72909e-11
6.14834e-11
-4.76777e-11
-6.03974e-11
6.99084e-13
-2.71581e-12
9.72016e-10
6.35456e-11
6.5524e-11
-6.28682e-11
-6.47112e-11
8.83304e-13
-1.67699e-12
9.81883e-10
6.45063e-11
6.60893e-11
-6.5845e-11
-6.4605e-11
6.53873e-11
3.37137e-13
8.08744e-10
6.45618e-11
6.70016e-11
-6.44279e-11
-6.62261e-11
4.58212e-11
-6.49543e-11
-4.69548e-11
-4.16077e-11
1.21458e-11
1.46154e-11
-1.1974e-11
9.22616e-11
1.66494e-11
-8.48062e-12
-8.22115e-12
-9.19494e-14
1.51957e-12
-1.43207e-11
2.1496e-12
-2.77454e-12
1.3518e-11
2.51978e-13
-3.19454e-12
1.19724e-09
9.43162e-13
-3.12945e-12
1.21323e-09
-3.45802e-13
-2.44354e-12
1.20228e-09
-1.51639e-12
-1.70183e-12
1.21044e-09
-1.80138e-12
-1.59315e-12
1.2208e-09
-1.22921e-12
-4.92555e-13
1.1975e-09
2.08661e-12
-2.75791e-12
9.45832e-10
4.66966e-11
6.15102e-11
-4.77595e-11
-6.08681e-11
6.73968e-11
5.45166e-13
8.23228e-10
6.24646e-11
6.35052e-11
-6.21426e-11
-6.26559e-11
4.50821e-11
-6.48456e-11
-4.7218e-11
-3.02344e-11
9.85304e-12
-3.25114e-12
8.07725e-11
1.65966e-11
-7.04762e-12
-7.57793e-12
-8.43814e-12
1.55029e-11
1.06702e-11
-9.44841e-12
-9.86805e-13
5.51757e-13
-1.98273e-12
2.41777e-12
-1.65206e-13
-2.66899e-12
1.18345e-09
-6.11798e-13
-2.60815e-12
1.18779e-09
-6.47789e-13
-2.7635e-12
1.19556e-09
-2.11365e-13
-2.33406e-12
1.19428e-09
4.10848e-14
-2.11369e-12
1.19669e-09
8.96932e-13
-1.76855e-12
1.20712e-09
-1.47996e-12
-6.99218e-13
1.20495e-09
-6.56211e-13
-8.92477e-13
1.19153e-09
6.58026e-11
-1.42423e-12
7.64282e-10
4.31436e-11
6.72415e-11
-4.52481e-11
-6.48701e-11
4.81579e-11
-6.5451e-11
-4.81068e-11
1.69962e-11
-6.21707e-11
1.18433e-11
-1.3749e-11
1.12884e-10
2.6714e-12
-9.97827e-12
1.50356e-12
5.80331e-12
6.91212e-14
-2.1785e-12
1.18215e-09
1.05783e-13
-2.14976e-12
1.18243e-09
-1.08794e-13
-2.07148e-12
1.18422e-09
-1.59688e-13
-1.76585e-12
1.18278e-09
5.00254e-14
-1.78408e-12
1.18241e-09
7.0931e-14
-1.35832e-12
1.18393e-09
1.14803e-12
-1.61899e-12
1.19483e-09
6.40407e-13
-8.06041e-13
1.22415e-09
6.28248e-14
-1.2469e-12
1.18118e-09
6.74677e-11
-7.80783e-14
7.71314e-10
4.96418e-11
6.74856e-11
-4.98937e-11
-6.72862e-11
4.96139e-11
-6.72703e-11
-4.98649e-11
1.77706e-11
-6.55537e-11
1.1721e-11
-1.3683e-11
1.17214e-10
2.98919e-12
-1.08709e-11
1.64597e-12
6.23571e-12
4.6557e-14
-1.76123e-12
1.1794e-09
7.42535e-14
-1.71875e-12
1.17953e-09
1.10829e-13
-1.75931e-12
1.18111e-09
3.06745e-13
-1.55585e-12
1.18065e-09
4.04854e-13
-1.50895e-12
1.18158e-09
7.51633e-13
-1.33825e-12
1.18141e-09
7.03828e-13
-1.2131e-12
1.1836e-09
1.32021e-12
-1.12897e-12
1.19455e-09
1.232e-12
-1.32425e-12
1.22757e-09
1.42557e-12
-6.48331e-13
1.18082e-09
6.72499e-11
6.55458e-13
7.63842e-10
4.31594e-11
-6.48763e-11
-4.52643e-11
4.81801e-11
6.57269e-11
-4.81236e-11
-6.5368e-11
-4.12291e-11
1.77158e-11
-6.83812e-12
9.22235e-11
-8.44799e-12
1.26477e-11
1.05605e-11
-9.38175e-12
8.52599e-14
-1.38236e-12
1.17768e-09
1.7625e-13
-1.34535e-12
1.17774e-09
2.34226e-13
-1.35685e-12
1.17838e-09
3.55059e-13
-1.21151e-12
1.17841e-09
5.33833e-13
-1.23448e-12
1.17931e-09
6.93353e-13
-1.08093e-12
1.1801e-09
9.74569e-13
-1.086e-12
1.18157e-09
1.13497e-12
-9.65013e-13
1.18322e-09
7.92507e-13
-6.90391e-13
1.19448e-09
8.9312e-13
-1.13476e-12
1.22399e-09
-5.52785e-13
1.48806e-12
1.19136e-09
6.35055e-11
-2.09426e-12
8.23208e-10
4.50708e-11
6.73997e-11
-4.72063e-11
-6.48376e-11
6.24766e-11
-6.26632e-11
-6.21474e-11
-4.00462e-11
1.05363e-11
-5.58912e-12
9.17104e-11
1.94063e-11
-9.5749e-12
-1.02261e-11
-1.0585e-11
1.35572e-11
1.44122e-11
-1.00952e-11
9.93508e-14
-1.07792e-12
1.17608e-09
2.084e-13
-1.04954e-12
1.17619e-09
3.1617e-13
-1.06948e-12
1.17684e-09
4.98802e-13
-9.81577e-13
1.17704e-09
6.68484e-13
-9.90292e-13
1.17803e-09
8.94658e-13
-8.8857e-13
1.17887e-09
1.09403e-12
-8.83926e-13
1.1807e-09
1.21251e-12
-6.7577e-13
1.1816e-09
1.61603e-12
-7.40127e-13
1.18352e-09
6.83104e-13
-4.09559e-14
1.19467e-09
2.73468e-12
-9.06258e-13
1.20475e-09
6.15051e-11
1.24058e-12
9.45768e-10
4.67026e-11
-6.08845e-11
-4.77657e-11
-5.18265e-11
2.17116e-12
1.21701e-11
-4.41822e-12
1.03408e-10
9.81506e-13
5.8626e-13
-1.10045e-11
-2.17825e-13
9.65461e-12
1.12686e-13
-8.15971e-13
1.17518e-09
2.34013e-13
-7.95521e-13
1.17527e-09
3.54188e-13
-8.04978e-13
1.17562e-09
5.12449e-13
-7.45208e-13
1.17582e-09
6.89149e-13
-7.53427e-13
1.17657e-09
8.99389e-13
-6.75338e-13
1.17736e-09
1.08659e-12
-6.54764e-13
1.1789e-09
1.33943e-12
-5.138e-13
1.18006e-09
1.34989e-12
-3.91899e-13
1.1813e-09
1.75012e-12
-1.38892e-14
1.18381e-09
4.51875e-13
-4.37124e-14
1.20702e-09
-3.60448e-13
1.82365e-12
1.19748e-09
6.70147e-11
-8.84409e-13
8.08791e-10
4.58226e-11
6.54047e-11
-4.69558e-11
-6.49484e-11
6.45918e-11
-6.6242e-11
-6.44296e-11
-4.20615e-11
1.10818e-11
-4.60598e-12
9.4825e-11
1.61523e-11
-8.43018e-12
-8.01446e-12
-9.83682e-12
1.25811e-11
1.39988e-11
-8.67508e-12
1.25125e-13
-6.05082e-13
1.17459e-09
2.58244e-13
-5.90585e-13
1.17467e-09
3.96951e-13
-5.99e-13
1.17497e-09
5.74897e-13
-5.59455e-13
1.17521e-09
7.64699e-13
-5.63126e-13
1.17593e-09
9.9936e-13
-4.9759e-13
1.1766e-09
1.24088e-12
-4.86255e-13
1.178e-09
1.51125e-12
-3.35804e-13
1.17925e-09
1.77878e-12
-2.97226e-13
1.18152e-09
2.09587e-12
2.01529e-13
1.18232e-09
1.55782e-12
2.16078e-13
1.19659e-09
1.65297e-12
1.53622e-12
1.22076e-09
6.60853e-11
-6.8192e-13
9.81888e-10
6.45101e-11
-6.46191e-11
-6.58569e-11
-4.12193e-11
-4.09794e-13
5.81781e-12
9.29555e-11
-7.57742e-12
1.4112e-11
1.22553e-11
-9.84869e-12
-1.21983e-12
-3.74656e-13
-5.18502e-13
2.11299e-12
1.2789e-13
-4.22731e-13
1.17439e-09
2.60746e-13
-4.14042e-13
1.17442e-09
4.00925e-13
-4.16423e-13
1.17455e-09
5.7066e-13
-3.90042e-13
1.17473e-09
7.54928e-13
-3.85414e-13
1.17521e-09
9.89516e-13
-3.40233e-13
1.17581e-09
1.21612e-12
-3.05571e-13
1.17702e-09
1.55581e-12
-2.17987e-13
1.17837e-09
1.75785e-12
-1.01446e-13
1.18058e-09
2.31621e-12
1.35349e-13
1.18269e-09
1.67382e-12
6.55473e-13
1.1942e-09
2.67255e-12
3.58071e-13
1.21035e-09
6.55144e-11
-5.84815e-13
9.71963e-10
6.35388e-11
-6.47284e-11
-6.28786e-11
-2.06807e-12
-5.15607e-11
1.74053e-11
-6.86124e-13
1.02424e-10
1.19568e-12
9.15657e-13
-1.38008e-11
2.07153e-12
1.71063e-13
9.44692e-12
1.34992e-13
-2.68104e-13
1.17447e-09
2.75367e-13
-2.64345e-13
1.17442e-09
4.26334e-13
-2.65864e-13
1.17452e-09
6.08525e-13
-2.50361e-13
1.1746e-09
8.12955e-13
-2.47464e-13
1.17496e-09
1.07586e-12
-2.20931e-13
1.17559e-09
1.35961e-12
-1.9824e-13
1.1768e-09
1.7546e-12
-1.58418e-13
1.17832e-09
2.06459e-12
-7.2593e-14
1.18106e-09
2.7463e-12
-7.83286e-14
1.18415e-09
2.42916e-12
6.18991e-13
1.1955e-09
3.5737e-12
-9.39497e-13
1.2022e-09
6.14786e-11
2.52735e-13
9.65645e-10
4.72742e-11
-6.04052e-11
-4.76762e-11
-4.37189e-11
4.63307e-12
1.39939e-11
-6.16796e-12
9.2739e-11
3.69323e-12
3.30902e-13
-1.33971e-11
2.39339e-12
-1.20081e-12
8.18038e-12
1.32107e-13
-1.28507e-13
1.17479e-09
2.71146e-13
-1.2511e-13
1.17463e-09
4.21731e-13
-1.25766e-13
1.17449e-09
5.98732e-13
-1.17522e-13
1.17442e-09
8.01703e-13
-1.14901e-13
1.17466e-09
1.05391e-12
-1.01357e-13
1.17524e-09
1.34722e-12
-9.03269e-14
1.17616e-09
1.7155e-12
-6.86974e-14
1.17769e-09
2.139e-12
-4.44184e-14
1.17948e-09
2.58318e-12
-4.90342e-14
1.18236e-09
3.10321e-12
1.7119e-13
1.18773e-09
2.00023e-12
-2.53148e-13
1.21312e-09
1.48703e-12
1.19713e-14
1.20468e-09
7.03381e-11
-3.3464e-13
7.99459e-10
6.70294e-11
-7.02021e-11
-6.56519e-11
4.80858e-11
7.18049e-11
-4.90673e-11
-7.22659e-11
-6.18326e-11
2.04143e-11
-1.44518e-11
1.19179e-10
-1.00037e-11
1.09294e-11
1.37144e-11
-7.61009e-12
1.35704e-13
1.17521e-09
2.76819e-13
1.17482e-09
4.31353e-13
1.17448e-09
6.11851e-13
1.17439e-09
8.2068e-13
1.17459e-09
1.0818e-12
1.17517e-09
1.38237e-12
1.17606e-09
1.7553e-12
1.17765e-09
2.16001e-12
1.17937e-09
2.63684e-12
1.18208e-09
3.15525e-12
1.18341e-09
2.65248e-12
1.19712e-09
2.14891e-12
1.22081e-09
6.67838e-11
9.83102e-10
6.64092e-11
-6.65618e-11
-6.64971e-11
-4.40594e-11
6.17925e-12
-1.67162e-12
9.74961e-11
-1.03295e-11
1.48583e-11
1.48252e-11
-1.05146e-11
-3.26983e-12
-8.78675e-14
-2.76367e-12
6.11969e-12
-2.81707e-12
2.2181e-13
-2.99088e-13
-2.75418e-12
5.64853e-12
1.38154e-13
-5.21019e-12
9.88373e-10
6.65175e-11
6.69419e-11
-6.66859e-11
-6.68055e-11
7.12776e-11
-5.54491e-12
8.07014e-10
6.7253e-11
7.06845e-11
-6.58551e-11
-7.02645e-11
4.77586e-11
-7.30286e-11
-4.95386e-11
1.72596e-11
-5.97076e-11
1.53964e-11
-1.53898e-11
1.13719e-10
1.32538e-11
-5.93325e-11
-6.29298e-12
1.4719e-12
-1.67216e-11
7.62403e-11
1.32214e-11
-1.11014e-11
-1.07389e-11
-4.91257e-11
1.29719e-11
-1.56588e-11
6.22238e-11
2.68702e-13
1.13467e-11
-1.06485e-11
-9.93509e-12
-1.04458e-11
1.33319e-11
8.47836e-12
-1.28074e-11
-3.92889e-12
-5.1863e-13
-3.42441e-13
-2.43469e-12
7.22465e-12
1.69576e-12
-7.48322e-12
1.22149e-09
2.13964e-12
-7.24418e-12
1.20607e-09
5.56343e-13
-7.55754e-12
9.72299e-10
4.76585e-11
6.23725e-11
-4.75994e-11
-5.99138e-11
-5.19506e-13
-5.1547e-12
9.75396e-10
6.39381e-11
6.61199e-11
-6.27882e-11
-6.4418e-11
-9.28144e-13
-3.84358e-12
9.85794e-10
6.46035e-11
6.63389e-11
-6.59996e-11
-6.45994e-11
6.47896e-11
-1.58493e-12
8.11227e-10
6.45576e-11
6.71953e-11
-6.46337e-11
-6.62035e-11
4.54693e-11
-6.5624e-11
-4.73754e-11
-4.17005e-11
1.21131e-11
1.43507e-11
-1.23294e-11
9.24472e-11
1.66609e-11
-8.52498e-12
-8.22699e-12
-1.0559e-13
1.50692e-12
-1.42799e-11
2.13254e-12
-2.78024e-12
1.35263e-11
-2.97747e-13
-7.17647e-12
1.19724e-09
-4.64069e-13
-7.3481e-12
1.2135e-09
-2.60127e-12
-6.84327e-12
1.2037e-09
-2.8228e-12
-5.06652e-12
1.21057e-09
-2.08605e-12
-4.9136e-12
1.22113e-09
-3.04836e-13
-3.28629e-12
1.19742e-09
2.13713e-12
-4.31201e-12
9.46622e-10
4.69546e-11
6.20867e-11
-4.75835e-11
-6.03774e-11
6.72361e-11
-7.7388e-13
8.25041e-10
6.24952e-11
6.35594e-11
-6.21472e-11
-6.26114e-11
4.4928e-11
-6.50031e-11
-4.73581e-11
-3.02683e-11
9.84009e-12
-3.378e-12
8.08372e-11
1.66113e-11
-7.06446e-12
-7.57293e-12
-8.44644e-12
1.54862e-11
1.06603e-11
-9.46829e-12
-9.87696e-13
5.5245e-13
-1.9836e-12
2.41885e-12
2.73995e-13
-6.2772e-12
1.18228e-09
1.36034e-13
-6.11115e-12
1.18669e-09
-9.95574e-13
-6.32635e-12
1.19617e-09
-5.85523e-13
-5.15549e-12
1.19396e-09
-6.0504e-13
-4.95486e-12
1.19675e-09
5.34654e-13
-4.35682e-12
1.20706e-09
-1.44133e-12
-3.00327e-12
1.20562e-09
-9.72313e-14
-2.72414e-12
1.19213e-09
6.56865e-11
-2.44292e-12
7.66101e-10
4.32107e-11
6.73947e-11
-4.52091e-11
-6.47717e-11
4.8054e-11
-6.56041e-11
-4.82328e-11
1.69585e-11
-6.22831e-11
1.17882e-11
-1.37656e-11
1.12989e-10
2.66777e-12
-9.98498e-12
1.50639e-12
5.81083e-12
-1.31876e-14
-5.10812e-12
1.18101e-09
-1.17735e-14
-4.97274e-12
1.18129e-09
-3.3498e-13
-5.11624e-12
1.18333e-09
-6.55393e-14
-4.34815e-12
1.1817e-09
4.44211e-13
-4.39913e-12
1.18134e-09
7.44418e-13
-3.6807e-12
1.18296e-09
2.03328e-12
-3.63266e-12
1.19417e-09
1.85446e-12
-2.751e-12
1.22435e-09
6.94067e-13
-2.56946e-12
1.18246e-09
6.75642e-11
-7.12635e-13
7.72663e-10
4.96382e-11
6.7584e-11
-4.99305e-11
-6.726e-11
4.96085e-11
-6.72451e-11
-4.99015e-11