/*--------------------------------*- C++ -*----------------------------------*\
| =========                 |                                                 |
| \\      /  F ield         | OpenFOAM: The Open Source CFD Toolbox           |
|  \\    /   O peration     | Version:  2.1.1                                 |
|   \\  /    A nd           | Web:      www.OpenFOAM.org                      |
|    \\/     M anipulation  |                                                 |
\*---------------------------------------------------------------------------*/
FoamFile
{
    version     2.0;
    format      ascii;
    class       volScalarField;
    location    "0.002";
    object      Th;
}
// * * * * * * * * * * * * * * * * * * * * * * * * * * * * * * * * * * * * * //

dimensions      [0 0 0 0 0 0 0];

internalField   nonuniform List<scalar> 
10260
(
2.55662e-13
2.87631e-13
1.00578e-14
1.01944e-14
1e-14
1.04878e-14
1.40077e-14
1.76968e-13
1e-14
1.00002e-14
1e-14
1.00021e-14
1.00037e-14
1.03259e-14
1.03815e-14
1e-14
1.00001e-14
1e-14
1e-14
1e-14
1e-14
1.00003e-14
1.00035e-14
1.04455e-14
1.18919e-14
5.56037e-13
1.00001e-14
1.00001e-14
1e-14
1e-14
1e-14
1e-14
1e-14
1.00002e-14
1.00034e-14
1.0033e-14
4.33414e-13
1.00001e-14
1e-14
1e-14
1e-14
1e-14
1e-14
1e-14
1e-14
1e-14
1.00038e-14
1.00363e-14
4.17326e-13
1.00002e-14
1e-14
1e-14
1e-14
1e-14
1e-14
1e-14
1e-14
1.00001e-14
1.00001e-14
1.00035e-14
1.07709e-14
1.00002e-14
1e-14
1e-14
1e-14
1e-14
1e-14
1e-14
1e-14
1e-14
1e-14
1.00003e-14
1.04457e-14
1e-14
1.00002e-14
1e-14
1e-14
1e-14
1e-14
1e-14
1e-14
1e-14
1e-14
1e-14
1e-14
1.00036e-14
1e-14
1.52903e-13
1e-14
1e-14
1e-14
1e-14
1.00001e-14
1.00001e-14
1e-14
1e-14
1e-14
1e-14
1e-14
1.00003e-14
1.03295e-14
1.08659e-14
1e-14
1e-14
1e-14
1e-14
1e-14
1e-14
1e-14
1.00001e-14
1e-14
1e-14
1e-14
1e-14
1.00038e-14
1.00502e-14
6.93653e-13
1e-14
1e-14
1e-14
1.00001e-14
1e-14
1e-14
1e-14
1.00001e-14
1.00001e-14
1e-14
1e-14
1.00001e-14
1.00023e-14
1e-14
1e-14
1.00001e-14
1e-14
1e-14
1e-14
1.00001e-14
1.00001e-14
1e-14
1.00001e-14
1.00001e-14
1e-14
1e-14
1e-14
1.00001e-14
1e-14
1e-14
1.00002e-14
1e-14
1e-14
1e-14
1e-14
1e-14
1e-14
1e-14
1e-14
1e-14
1e-14
1e-14
1.00003e-14
1.01973e-14
1.00645e-14
1.00001e-14
1e-14
1.00002e-14
1.00001e-14
1e-14
1.00001e-14
1.00001e-14
1e-14
1e-14
1e-14
1e-14
1e-14
1.00002e-14
1.0061e-14
1.16647e-14
2.5698e-13
2.89658e-13
1.00528e-14
1.01786e-14
1e-14
1.04666e-14
1.42538e-14
1.78015e-13
1e-14
1.00001e-14
1e-14
1.00019e-14
1.00032e-14
1.03061e-14
1.03589e-14
1e-14
1.00001e-14
1e-14
1e-14
1e-14
1e-14
1.00001e-14
1.00031e-14
1.04148e-14
1.18844e-14
5.5666e-13
1.00001e-14
1e-14
1e-14
1e-14
1e-14
1e-14
1e-14
1.00001e-14
1.00029e-14
1.00222e-14
4.39482e-13
1.00001e-14
1e-14
1e-14
1e-14
1e-14
1e-14
1e-14
1e-14
1e-14
1.00032e-14
1.0026e-14
4.2327e-13
1.00001e-14
1e-14
1e-14
1e-14
1e-14
1e-14
1e-14
1e-14
1e-14
1e-14
1.00029e-14
1.07485e-14
1.00001e-14
1e-14
1e-14
1e-14
1e-14
1e-14
1e-14
1e-14
1e-14
1e-14
1.00001e-14
1.0415e-14
1e-14
1.00001e-14
1e-14
1e-14
1e-14
1e-14
1e-14
1e-14
1e-14
1e-14
1e-14
1e-14
1.00032e-14
1e-14
1.55346e-13
1e-14
1e-14
1e-14
1e-14
1e-14
1e-14
1e-14
1e-14
1e-14
1e-14
1e-14
1.00001e-14
1.03067e-14
1.10742e-14
1e-14
1e-14
1e-14
1e-14
1e-14
1e-14
1e-14
1e-14
1e-14
1e-14
1e-14
1e-14
1.00032e-14
1.00512e-14
6.91877e-13
1e-14
1e-14
1e-14
1e-14
1e-14
1e-14
1e-14
1e-14
1e-14
1e-14
1e-14
1e-14
1.0002e-14
1e-14
1e-14
1e-14
1e-14
1e-14
1e-14
1e-14
1e-14
1e-14
1e-14
1e-14
1e-14
1e-14
1e-14
1.00001e-14
1e-14
1e-14
1.00002e-14
1e-14
1e-14
1e-14
1e-14
1e-14
1e-14
1e-14
1e-14
1e-14
1e-14
1e-14
1.00001e-14
1.01789e-14
1.01121e-14
1.00002e-14
1e-14
1.00001e-14
1.00001e-14
1e-14
1e-14
1e-14
1e-14
1e-14
1e-14
1e-14
1e-14
1.00001e-14
1.00531e-14
1.16713e-14
2.57136e-13
2.89843e-13
1.00518e-14
1.01753e-14
1e-14
1.04701e-14
1.43297e-14
1.78083e-13
1e-14
1e-14
1.00001e-14
1.00019e-14
1.00032e-14
1.03026e-14
1.0362e-14
1e-14
1.00001e-14
1e-14
1e-14
1e-14
1e-14
1e-14
1.0003e-14
1.04103e-14
1.18968e-14
5.56522e-13
1.00001e-14
1e-14
1e-14
1e-14
1e-14
1e-14
1e-14
1e-14
1.00028e-14
1.00187e-14
4.39552e-13
1e-14
1e-14
1e-14
1e-14
1e-14
1e-14
1e-14
1e-14
1e-14
1.00032e-14
1.00234e-14
4.2325e-13
1e-14
1e-14
1e-14
1e-14
1e-14
1e-14
1e-14
1e-14
1e-14
1e-14
1.00028e-14
1.07492e-14
1.00001e-14
1e-14
1e-14
1e-14
1e-14
1e-14
1e-14
1e-14
1e-14
1e-14
1e-14
1.04105e-14
1e-14
1.00001e-14
1e-14
1e-14
1e-14
1e-14
1e-14
1e-14
1e-14
1e-14
1e-14
1e-14
1.00031e-14
1e-14
1.5525e-13
1.00001e-14
1e-14
1e-14
1e-14
1e-14
1e-14
1e-14
1e-14
1e-14
1e-14
1e-14
1.00001e-14
1.0303e-14
1.10961e-14
1e-14
1e-14
1e-14
1e-14
1e-14
1e-14
1e-14
1e-14
1e-14
1e-14
1e-14
1e-14
1.00032e-14
1.00521e-14
6.91136e-13
1e-14
1e-14
1e-14
1e-14
1e-14
1e-14
1e-14
1e-14
1e-14
1e-14
1e-14
1e-14
1.0002e-14
1e-14
1e-14
1e-14
1e-14
1e-14
1e-14
1e-14
1e-14
1e-14
1e-14
1e-14
1e-14
1e-14
1e-14
1.00001e-14
1e-14
1e-14
1.00001e-14
1e-14
1e-14
1e-14
1e-14
1e-14
1e-14
1e-14
1e-14
1e-14
1e-14
1e-14
1e-14
1.01754e-14
1.01179e-14
1.00001e-14
1e-14
1.00001e-14
1.00001e-14
1e-14
1e-14
1e-14
1.00001e-14
1.00001e-14
1.00001e-14
1.00001e-14
1e-14
1e-14
1.00518e-14
1.16887e-14
2.57119e-13
2.89808e-13
1.00519e-14
1.01759e-14
1e-14
1.04701e-14
1.43463e-14
1.78126e-13
1e-14
1e-14
1e-14
1.00019e-14
1.00033e-14
1.03025e-14
1.03638e-14
1e-14
1e-14
1e-14
1e-14
1e-14
1e-14
1e-14
1.00029e-14
1.04091e-14
1.18998e-14
5.56527e-13
1e-14
1e-14
1e-14
1e-14
1e-14
1e-14
1e-14
1e-14
1.00027e-14
1.00181e-14
4.39456e-13
1e-14
1e-14
1e-14
1e-14
1e-14
1e-14
1e-14
1e-14
1e-14
1.00032e-14
1.00231e-14
4.23155e-13
1e-14
1e-14
1e-14
1e-14
1e-14
1e-14
1e-14
1e-14
1e-14
1e-14
1.00027e-14
1.0748e-14
1.00001e-14
1.00001e-14
1e-14
1e-14
1e-14
1e-14
1e-14
1e-14
1e-14
1e-14
1e-14
1.04093e-14
1e-14
1.00002e-14
1e-14
1e-14
1e-14
1e-14
1e-14
1e-14
1e-14
1e-14
1e-14
1e-14
1.0003e-14
1e-14
1.55075e-13
1.00001e-14
1e-14
1e-14
1e-14
1e-14
1e-14
1e-14
1e-14
1e-14
1e-14
1e-14
1e-14
1.03027e-14
1.10686e-14
1e-14
1e-14
1e-14
1e-14
1e-14
1e-14
1e-14
1e-14
1e-14
1e-14
1e-14
1e-14
1.00033e-14
1.00519e-14
6.90916e-13
1e-14
1e-14
1e-14
1e-14
1e-14
1e-14
1e-14
1e-14
1e-14
1e-14
1.00001e-14
1e-14
1.00019e-14
1e-14
1e-14
1e-14
1e-14
1e-14
1e-14
1e-14
1e-14
1e-14
1e-14
1e-14
1e-14
1e-14
1e-14
1e-14
1e-14
1e-14
1e-14
1e-14
1e-14
1e-14
1e-14
1e-14
1e-14
1e-14
1e-14
1e-14
1e-14
1e-14
1e-14
1.01759e-14
1.01119e-14
1e-14
1e-14
1e-14
1e-14
1e-14
1e-14
1e-14
1.00001e-14
1e-14
1e-14
1e-14
1e-14
1e-14
1.00518e-14
1.16921e-14
2.56889e-13
2.89501e-13
1.00549e-14
1.01824e-14
1e-14
1.04728e-14
1.43818e-14
1.78164e-13
1e-14
1e-14
1e-14
1.00018e-14
1.00035e-14
1.03038e-14
1.03665e-14
1e-14
1e-14
1e-14
1e-14
1e-14
1e-14
1e-14
1.00029e-14
1.04013e-14
1.18967e-14
5.5649e-13
1e-14
1e-14
1e-14
1e-14
1e-14
1e-14
1e-14
1e-14
1.00027e-14
1.00176e-14
4.39381e-13
1e-14
1e-14
1e-14
1e-14
1e-14
1e-14
1e-14
1e-14
1e-14
1.00032e-14
1.00229e-14
4.23068e-13
1.00001e-14
1e-14
1e-14
1e-14
1e-14
1e-14
1e-14
1e-14
1e-14
1e-14
1.00027e-14
1.07463e-14
1.00001e-14
1e-14
1e-14
1e-14
1e-14
1e-14
1e-14
1e-14
1e-14
1e-14
1e-14
1.04013e-14
1e-14
1.00001e-14
1e-14
1e-14
1e-14
1e-14
1e-14
1e-14
1e-14
1e-14
1e-14
1e-14
1.00029e-14
1e-14
1.54681e-13
1e-14
1e-14
1e-14
1e-14
1e-14
1e-14
1e-14
1e-14
1e-14
1e-14
1e-14
1e-14
1.03039e-14
1.10156e-14
1e-14
1e-14
1e-14
1e-14
1e-14
1e-14
1e-14
1e-14
1e-14
1e-14
1.00001e-14
1e-14
1.00035e-14
1.00515e-14
6.9056e-13
1e-14
1e-14
1e-14
1e-14
1e-14
1e-14
1e-14
1e-14
1e-14
1.00001e-14
1e-14
1e-14
1.00019e-14
1e-14
1e-14
1e-14
1e-14
1e-14
1e-14
1e-14
1e-14
1e-14
1e-14
1.00001e-14
1e-14
1e-14
1e-14
1e-14
1e-14
1e-14
1e-14
1e-14
1e-14
1e-14
1e-14
1e-14
1e-14
1e-14
1e-14
1e-14
1e-14
1e-14
1e-14
1.01825e-14
1.01073e-14
1.00002e-14
1e-14
1e-14
1e-14
1e-14
1e-14
1.00001e-14
1e-14
1e-14
1e-14
1e-14
1e-14
1e-14
1.00549e-14
1.16954e-14
2.56071e-13
2.8841e-13
1.00446e-14
1.01853e-14
1e-14
1.04881e-14
1.45229e-14
1.78134e-13
1e-14
1e-14
1e-14
1.00018e-14
1.0003e-14
1.03036e-14
1.03701e-14
1e-14
1e-14
1e-14
1e-14
1e-14
1e-14
1e-14
1.00025e-14
1.0448e-14
1.18712e-14
5.56186e-13
1e-14
1e-14
1e-14
1e-14
1e-14
1e-14
1e-14
1e-14
1.00034e-14
1.00155e-14
4.39043e-13
1e-14
1e-14
1e-14
1e-14
1e-14
1e-14
1e-14
1e-14
1e-14
1.00035e-14
1.00223e-14
4.22675e-13
1.00001e-14
1e-14
1e-14
1e-14
1e-14
1e-14
1e-14
1e-14
1e-14
1e-14
1.00034e-14
1.07408e-14
1.00001e-14
1e-14
1e-14
1e-14
1e-14
1e-14
1e-14
1e-14
1e-14
1e-14
1e-14
1.04481e-14
1e-14
1e-14
1e-14
1e-14
1e-14
1e-14
1e-14
1e-14
1e-14
1e-14
1e-14
1e-14
1.00025e-14
1e-14
1.53511e-13
1e-14
1e-14
1e-14
1e-14
1e-14
1e-14
1e-14
1e-14
1e-14
1.00001e-14
1e-14
1e-14
1.03036e-14
1.09198e-14
1e-14
1e-14
1e-14
1e-14
1e-14
1e-14
1e-14
1e-14
1e-14
1.00001e-14
1e-14
1e-14
1.00029e-14
1.00506e-14
6.89407e-13
1e-14
1e-14
1e-14
1e-14
1e-14
1e-14
1e-14
1e-14
1e-14
1e-14
1e-14
1e-14
1.00018e-14
1e-14
1e-14
1e-14
1e-14
1e-14
1e-14
1e-14
1e-14
1e-14
1.00001e-14
1e-14
1e-14
1e-14
1e-14
1e-14
1e-14
1e-14
1e-14
1e-14
1e-14
1e-14
1e-14
1e-14
1.00001e-14
1e-14
1e-14
1e-14
1e-14
1e-14
1e-14
1.01853e-14
1.01053e-14
1.00001e-14
1e-14
1e-14
1e-14
1.00001e-14
1.00001e-14
1.00001e-14
1e-14
1e-14
1e-14
1e-14
1e-14
1e-14
1.00446e-14
1.16806e-14
2.50907e-13
2.8314e-13
1.0129e-14
1.03133e-14
1e-14
1.03878e-14
1.44576e-14
1.77175e-13
1e-14
1e-14
1e-14
1.00021e-14
1.00084e-14
1.03623e-14
1.04095e-14
1e-14
1e-14
1e-14
1e-14
1e-14
1e-14
1e-14
1.00028e-14
1.03395e-14
1.21878e-14
5.54674e-13
1e-14
1e-14
1e-14
1e-14
1e-14
1e-14
1e-14
1e-14
1e-14
1.00307e-14
4.38571e-13
1e-14
1e-14
1e-14
1e-14
1e-14
1e-14
1e-14
1e-14
1e-14
1.00008e-14
1.00374e-14
4.21284e-13
1e-14
1e-14
1e-14
1e-14
1e-14
1e-14
1e-14
1e-14
1e-14
1e-14
1e-14
1.07929e-14
1e-14
1e-14
1e-14
1e-14
1e-14
1e-14
1e-14
1e-14
1e-14
1e-14
1e-14
1.03396e-14
1e-14
1e-14
1e-14
1e-14
1e-14
1e-14
1e-14
1e-14
1e-14
1e-14
1e-14
1e-14
1.00028e-14
1e-14
1.46684e-13
1e-14
1e-14
1e-14
1e-14
1e-14
1e-14
1e-14
1e-14
1e-14
1e-14
1e-14
1e-14
1.03624e-14
1.07855e-14
1e-14
1e-14
1e-14
1e-14
1e-14
1e-14
1e-14
1e-14
1e-14
1e-14
1e-14
1e-14
1.00084e-14
1.0039e-14
6.89853e-13
1e-14
1e-14
1e-14
1e-14
1e-14
1e-14
1e-14
1e-14
1e-14
1e-14
1e-14
1e-14
1.00021e-14
1e-14
1e-14
1e-14
1e-14
1e-14
1e-14
1e-14
1e-14
1e-14
1e-14
1e-14
1e-14
1e-14
1e-14
1e-14
1e-14
1e-14
1e-14
1e-14
1e-14
1e-14
1e-14
1.00001e-14
1e-14
1e-14
1e-14
1e-14
1.00001e-14
1e-14
1e-14
1.03129e-14
1.00668e-14
1e-14
1e-14
1e-14
1e-14
1.00001e-14
1e-14
1e-14
1e-14
1e-14
1.00001e-14
1.00001e-14
1e-14
1e-14
1.01291e-14
1.1051e-14
2.48934e-14
2.16939e-14
1.00253e-14
1.00406e-14
1e-14
1.01694e-14
1.13285e-14
2.28609e-14
1e-14
1e-14
1e-14
1.00002e-14
1.00014e-14
1.0032e-14
1.0104e-14
1.6181e-14
1e-14
1e-14
1e-14
1e-14
1e-14
1e-14
1.00003e-14
1.00239e-14
1.05291e-14
1e-14
1e-14
1e-14
1e-14
1e-14
1e-14
1e-14
1e-14
1e-14
1.00001e-14
1e-14
1e-14
1e-14
1e-14
1e-14
1e-14
1e-14
1e-14
1e-14
1e-14
1e-14
1e-14
1e-14
1e-14
1e-14
1e-14
1e-14
1e-14
1e-14
1e-14
1e-14
1e-14
1e-14
1e-14
1.00001e-14
1e-14
1e-14
1e-14
1e-14
1e-14
1e-14
1e-14
1e-14
1e-14
1e-14
1e-14
1e-14
1.00239e-14
1.09034e-14
1e-14
1e-14
1e-14
1e-14
1e-14
1e-14
1e-14
1e-14
1e-14
1e-14
1e-14
1.00003e-14
1.00033e-14
1e-14
1e-14
1e-14
1e-14
1e-14
1e-14
1e-14
1e-14
1e-14
1e-14
1e-14
1e-14
1e-14
1.00321e-14
1.13179e-14
1e-14
1e-14
1e-14
1e-14
1e-14
1e-14
1e-14
1e-14
1e-14
1e-14
1e-14
1e-14
1.00014e-14
1e-14
1e-14
1e-14
1e-14
1e-14
1e-14
1e-14
1e-14
1e-14
1e-14
1e-14
1e-14
1e-14
1e-14
1.00003e-14
1.00041e-14
2.68819e-14
1e-14
1e-14
1e-14
1e-14
1e-14
1e-14
1e-14
1e-14
1e-14
1e-14
1e-14
1.00001e-14
1e-14
1e-14
1.0963e-14
1e-14
1e-14
1e-14
1e-14
1e-14
1e-14
1e-14
1e-14
1e-14
1e-14
1e-14
1e-14
1e-14
1.00406e-14
1.09834e-14
1e-14
1e-14
1e-14
1.00001e-14
1.00001e-14
1e-14
1e-14
1e-14
1e-14
1.00001e-14
1e-14
1e-14
1e-14
1.00254e-14
1e-14
1.00973e-14
1.00418e-14
1.00011e-14
1.00038e-14
1.00057e-14
1e-14
1e-14
1.00077e-14
1.00487e-14
1e-14
1e-14
1e-14
1e-14
1.00002e-14
1.00037e-14
1.00011e-14
1.00111e-14
1e-14
1e-14
1e-14
1e-14
1e-14
1e-14
1.00001e-14
1.00025e-14
1.00061e-14
1.00001e-14
1e-14
1e-14
1e-14
1e-14
1e-14
1e-14
1e-14
1e-14
1e-14
1e-14
1e-14
1e-14
1e-14
1e-14
1e-14
1e-14
1e-14
1e-14
1e-14
1e-14
1e-14
1e-14
1e-14
1e-14
1e-14
1e-14
1e-14
1e-14
1e-14
1e-14
1e-14
1e-14
1e-14
1e-14
1e-14
1e-14
1e-14
1e-14
1e-14
1e-14
1e-14
1e-14
1e-14
1e-14
1e-14
1e-14
1.00025e-14
1.0006e-14
1e-14
1e-14
1e-14
1e-14
1e-14
1e-14
1e-14
1e-14
1e-14
1e-14
1e-14
1e-14
1e-14
1e-14
1e-14
1e-14
1e-14
1e-14
1e-14
1e-14
1e-14
1e-14
1e-14
1e-14
1e-14
1e-14
1.00037e-14
1.00111e-14
1e-14
1e-14
1e-14
1e-14
1e-14
1e-14
1e-14
1e-14
1e-14
1e-14
1e-14
1e-14
1.00002e-14
1e-14
1e-14
1e-14
1e-14
1e-14
1e-14
1e-14
1e-14
1e-14
1e-14
1e-14
1e-14
1e-14
1e-14
1.00001e-14
1.00604e-14
1e-14
1e-14
1e-14
1e-14
1e-14
1e-14
1e-14
1e-14
1e-14
1e-14
1e-14
1e-14
1e-14
1e-14
1.00043e-14
1e-14
1e-14
1e-14
1e-14
1e-14
1e-14
1e-14
1e-14
1e-14
1e-14
1e-14
1e-14
1e-14
1.00057e-14
1.00114e-14
1.00001e-14
1e-14
1e-14
1e-14
1e-14
1e-14
1e-14
1e-14
1e-14
1.00001e-14
1e-14
1e-14
1e-14
1.00038e-14
1e-14
1.00007e-14
1.00001e-14
1e-14
1.00005e-14
1.00007e-14
1e-14
1e-14
1e-14
1.00001e-14
1e-14
1e-14
1e-14
1e-14
1e-14
1.00004e-14
1e-14
1e-14
1e-14
1e-14
1e-14
1e-14
1e-14
1e-14
1e-14
1.00003e-14
1e-14
1e-14
1e-14
1e-14
1e-14
1e-14
1e-14
1e-14
1e-14
1e-14
1e-14
1e-14
1e-14
1e-14
1e-14
1e-14
1e-14
1e-14
1e-14
1e-14
1e-14
1e-14
1e-14
1e-14
1e-14
1e-14
1e-14
1e-14
1e-14
1e-14
1e-14
1e-14
1e-14
1e-14
1e-14
1e-14
1.00001e-14
1e-14
1e-14
1e-14
1e-14
1e-14
1e-14
1e-14
1e-14
1e-14
1e-14
1e-14
1.00003e-14
1e-14
1e-14
1e-14
1e-14
1e-14
1e-14
1e-14
1e-14
1e-14
1e-14
1e-14
1e-14
1e-14
1e-14
1e-14
1e-14
1e-14
1e-14
1e-14
1e-14
1e-14
1e-14
1e-14
1e-14
1e-14
1e-14
1e-14
1.00004e-14
1e-14
1e-14
1e-14
1e-14
1e-14
1e-14
1e-14
1e-14
1e-14
1e-14
1e-14
1e-14
1e-14
1e-14
1e-14
1e-14
1e-14
1e-14
1e-14
1e-14
1e-14
1e-14
1e-14
1e-14
1e-14
1e-14
1e-14
1e-14
1e-14
1.00002e-14
1e-14
1e-14
1e-14
1e-14
1e-14
1e-14
1e-14
1e-14
1e-14
1e-14
1e-14
1e-14
1e-14
1e-14
1e-14
1e-14
1e-14
1e-14
1e-14
1e-14
1e-14
1e-14
1e-14
1e-14
1e-14
1e-14
1e-14
1e-14
1.00007e-14
1.00001e-14
1.00001e-14
1e-14
1e-14
1e-14
1e-14
1e-14
1e-14
1e-14
1e-14
1e-14
1e-14
1e-14
1e-14
1.00005e-14
1e-14
1.00003e-14
1.00001e-14
1e-14
1.00001e-14
1.00001e-14
1e-14
1e-14
1e-14
1e-14
1e-14
1e-14
1e-14
1e-14
1e-14
1e-14
1e-14
1e-14
1e-14
1e-14
1e-14
1e-14
1e-14
1e-14
1e-14
1e-14
1e-14
1e-14
1e-14
1e-14
1e-14
1e-14
1e-14
1e-14
1e-14
1e-14
1e-14
1e-14
1e-14
1e-14
1e-14
1e-14
1e-14
1e-14
1e-14
1e-14
1e-14
1e-14
1e-14
1e-14
1e-14
1e-14
1e-14
1e-14
1e-14
1e-14
1e-14
1e-14
1e-14
1e-14
1e-14
1e-14
1e-14
1e-14
1e-14
1e-14
1e-14
1e-14
1e-14
1e-14
1e-14
1e-14
1e-14
1e-14
1.00001e-14
1e-14
1e-14
1e-14
1e-14
1e-14
1e-14
1e-14
1e-14
1e-14
1e-14
1e-14
1e-14
1e-14
1e-14
1e-14
1e-14
1e-14
1e-14
1e-14
1e-14
1e-14
1e-14
1e-14
1e-14
1e-14
1e-14
1e-14
1e-14
1e-14
1e-14
1e-14
1e-14
1e-14
1e-14
1e-14
1e-14
1e-14
1e-14
1e-14
1e-14
1e-14
1e-14
1e-14
1e-14
1e-14
1e-14
1e-14
1e-14
1e-14
1e-14
1e-14
1e-14
1e-14
1e-14
1e-14
1e-14
1e-14
1e-14
1e-14
1e-14
1e-14
1e-14
1e-14
1e-14
1e-14
1e-14
1e-14
1e-14
1e-14
1e-14
1e-14
1e-14
1e-14
1.00001e-14
1e-14
1e-14
1e-14
1e-14
1e-14
1e-14
1e-14
1e-14
1e-14
1e-14
1e-14
1e-14
1.00001e-14
1e-14
1.00001e-14
1e-14
1.00001e-14
1.00001e-14
1e-14
1e-14
1e-14
1e-14
1e-14
1e-14
1e-14
1e-14
1e-14
1.00001e-14
1e-14
1e-14
1e-14
1e-14
1e-14
1e-14
1e-14
1e-14
1e-14
1e-14
1e-14
1e-14
1e-14
1e-14
1e-14
1e-14
1e-14
1.00001e-14
1e-14
1e-14
1e-14
1e-14
1e-14
1e-14
1e-14
1e-14
1e-14
1e-14
1e-14
1e-14
1e-14
1e-14
1e-14
1e-14
1.00001e-14
1e-14
1e-14
1e-14
1e-14
1e-14
1e-14
1e-14
1e-14
1e-14
1e-14
1e-14
1e-14
1e-14
1e-14
1e-14
1e-14
1e-14
1e-14
1e-14
1e-14
1e-14
1e-14
1e-14
1e-14
1e-14
1e-14
1e-14
1e-14
1e-14
1e-14
1e-14
1e-14
1e-14
1e-14
1e-14
1e-14
1e-14
1e-14
1e-14
1e-14
1e-14
1e-14
1e-14
1e-14
1e-14
1e-14
1e-14
1e-14
1e-14
1e-14
1e-14
1e-14
1e-14
1e-14
1e-14
1e-14
1e-14
1e-14
1e-14
1e-14
1e-14
1e-14
1e-14
1e-14
1e-14
1e-14
1e-14
1e-14
1e-14
1e-14
1e-14
1e-14
1e-14
1e-14
1e-14
1e-14
1e-14
1e-14
1e-14
1e-14
1e-14
1e-14
1e-14
1e-14
1.00001e-14
1e-14
1e-14
1e-14
1e-14
1e-14
1e-14
1e-14
1e-14
1e-14
1e-14
1e-14
1e-14
1e-14
1.00001e-14
1.00001e-14
1e-14
1e-14
1e-14
1e-14
1e-14
1e-14
1e-14
1e-14
1e-14
1e-14
1e-14
1e-14
1.00001e-14
1.00001e-14
1e-14
1e-14
1e-14
1e-14
1e-14
1e-14
1e-14
1e-14
1e-14
1e-14
1e-14
1e-14
1e-14
1e-14
1.00001e-14
1.00001e-14
1.00001e-14
1e-14
1e-14
1e-14
1e-14
1e-14
1e-14
1e-14
1e-14
1e-14
1e-14
1e-14
1e-14
1e-14
1e-14
1e-14
1e-14
1e-14
1e-14
1e-14
1e-14
1e-14
1e-14
1e-14
1e-14
1e-14
1e-14
1e-14
1e-14
1e-14
1e-14
1e-14
1e-14
1e-14
1e-14
1e-14
1e-14
1e-14
1e-14
1e-14
1e-14
1e-14
1e-14
1e-14
1e-14
1.00001e-14
1e-14
1e-14
1e-14
1e-14
1e-14
1.00001e-14
1e-14
1e-14
1e-14
1.00001e-14
1e-14
1e-14
1e-14
1e-14
1e-14
1e-14
1e-14
1.00001e-14
1e-14
1e-14
1e-14
1e-14
1e-14
1e-14
1e-14
1e-14
1e-14
1e-14
1e-14
1.00001e-14
1e-14
1e-14
1e-14
1e-14
1e-14
1e-14
1e-14
1e-14
1e-14
1e-14
1e-14
1e-14
1e-14
1e-14
1e-14
1e-14
1e-14
1e-14
1e-14
1e-14
1e-14
1e-14
1e-14
1e-14
1.00001e-14
1e-14
1.00001e-14
1e-14
1e-14
1e-14
1e-14
1e-14
1e-14
1e-14
1e-14
1e-14
1e-14
1e-14
1e-14
1e-14
1.00001e-14
1.00001e-14
1e-14
1e-14
1e-14
1e-14
1e-14
1e-14
1e-14
1e-14
1e-14
1e-14
1e-14
1e-14
1.00001e-14
1e-14
1e-14
1e-14
1e-14
1e-14
1e-14
1e-14
1e-14
1e-14
1e-14
1e-14
1e-14
1e-14
1e-14
1.00001e-14
1e-14
1e-14
1e-14
1e-14
1e-14
1e-14
1e-14
1e-14
1e-14
1e-14
1e-14
1e-14
1e-14
1.00001e-14
1.00001e-14
1e-14
1e-14
1e-14
1e-14
1e-14
1e-14
1e-14
1e-14
1e-14
1e-14
1e-14
1e-14
1e-14
1e-14
1.00003e-14
1.00001e-14
1e-14
1e-14
1e-14
1e-14
1e-14
1e-14
1e-14
1.00001e-14
1.00001e-14
1e-14
1e-14
1e-14
1e-14
1e-14
1e-14
1e-14
1e-14
1e-14
1e-14
1e-14
1e-14
1e-14
1.00001e-14
1e-14
1e-14
1e-14
1e-14
1e-14
1.00001e-14
1e-14
1.00001e-14
1e-14
1e-14
1e-14
1e-14
1.00001e-14
1e-14
1e-14
1e-14
1e-14
1e-14
1e-14
1e-14
1e-14
1e-14
1e-14
1e-14
1e-14
1e-14
1e-14
1e-14
1.00001e-14
1e-14
1e-14
1e-14
1.00001e-14
1e-14
1e-14
1e-14
1e-14
1e-14
1e-14
1e-14
1e-14
1e-14
1e-14
1e-14
1e-14
1e-14
1e-14
1e-14
1e-14
1e-14
1e-14
1e-14
1e-14
1e-14
1e-14
1e-14
1e-14
1e-14
1e-14
1e-14
1e-14
1e-14
1e-14
1e-14
1e-14
1e-14
1e-14
1e-14
1e-14
1e-14
1e-14
1e-14
1e-14
1e-14
1e-14
1e-14
1e-14
1e-14
1e-14
1.00001e-14
1e-14
1e-14
1e-14
1e-14
1e-14
1e-14
1e-14
1e-14
1e-14
1e-14
1e-14
1e-14
1e-14
1.00001e-14
1e-14
1e-14
1e-14
1e-14
1e-14
1e-14
1e-14
1e-14
1e-14
1e-14
1e-14
1e-14
1e-14
1e-14
1e-14
1e-14
1e-14
1e-14
1e-14
1e-14
1e-14
1e-14
1e-14
1e-14
1e-14
1e-14
1e-14
1e-14
1e-14
1e-14
1e-14
1e-14
1e-14
1e-14
1e-14
1e-14
1e-14
1e-14
1e-14
1e-14
1e-14
1e-14
1e-14
1e-14
1e-14
1e-14
1e-14
1e-14
1e-14
1e-14
1e-14
1e-14
1e-14
1e-14
1e-14
1e-14
1e-14
1e-14
1.00003e-14
1.00001e-14
1.00001e-14
1.00001e-14
1e-14
1e-14
1e-14
1e-14
1e-14
1.00001e-14
1e-14
1e-14
1e-14
1e-14
1e-14
1.00001e-14
1e-14
1e-14
1e-14
1e-14
1e-14
1e-14
1e-14
1e-14
1.00001e-14
1e-14
1e-14
1e-14
1e-14
1e-14
1e-14
1e-14
1e-14
1e-14
1e-14
1e-14
1e-14
1e-14
1e-14
1e-14
1e-14
1e-14
1e-14
1e-14
1e-14
1e-14
1.00001e-14
1e-14
1e-14
1e-14
1e-14
1e-14
1e-14
1e-14
1e-14
1e-14
1e-14
1e-14
1e-14
1e-14
1e-14
1e-14
1e-14
1e-14
1e-14
1e-14
1e-14
1e-14
1e-14
1e-14
1e-14
1e-14
1e-14
1e-14
1e-14
1e-14
1e-14
1e-14
1e-14
1e-14
1e-14
1e-14
1e-14
1e-14
1e-14
1e-14
1e-14
1e-14
1e-14
1e-14
1.00001e-14
1e-14
1e-14
1e-14
1e-14
1e-14
1e-14
1e-14
1e-14
1e-14
1e-14
1e-14
1e-14
1e-14
1.00001e-14
1e-14
1e-14
1e-14
1e-14
1e-14
1e-14
1e-14
1e-14
1e-14
1e-14
1e-14
1e-14
1e-14
1e-14
1e-14
1e-14
1e-14
1e-14
1e-14
1e-14
1e-14
1e-14
1e-14
1e-14
1e-14
1e-14
1e-14
1e-14
1e-14
1e-14
1e-14
1e-14
1e-14
1e-14
1e-14
1e-14
1e-14
1e-14
1e-14
1e-14
1e-14
1e-14
1e-14
1e-14
1e-14
1e-14
1e-14
1e-14
1e-14
1e-14
1e-14
1e-14
1e-14
1e-14
1e-14
1e-14
1e-14
1e-14
1e-14
1.00001e-14
1e-14
1e-14
1e-14
1e-14
1e-14
1e-14
1e-14
1e-14
1e-14
1e-14
1e-14
1e-14
1.00003e-14
1.00001e-14
1.00001e-14
1.00001e-14
1e-14
1e-14
1e-14
1e-14
1e-14
1e-14
1e-14
1e-14
1e-14
1e-14
1e-14
3.08453e-13
3.28773e-13
1.30256e-14
1.34506e-14
3.49181e-13
1.43297e-14
1.76619e-14
2.86684e-14
1.08433e-14
1.0197e-14
4.24207e-14
5.43402e-14
7.43339e-13
1.86601e-14
2.62563e-14
1.03343e-14
1.00494e-14
2.10788e-13
1.23785e-14
2.48974e-14
1.11882e-14
2.87354e-13
6.30724e-13
1.1373e-14
1.96505e-14
1.00245e-14
1.02757e-14
5.99675e-14
1.11178e-14
3.43769e-14
1e-14
1.58761e-14
2.71345e-13
1.00796e-14
1.1085e-14
6.46299e-13
2.49939e-14
7.03894e-13
7.01577e-13
2.22316e-14
7.04175e-13
7.05213e-13
2.50256e-14
6.46343e-13
1.10864e-14
2.71338e-13
1.00808e-14
1.58772e-14
1e-14
3.43809e-14
1.11205e-14
6.01747e-14
6.30029e-13
1.02772e-14
1.97016e-14
1.00269e-14
1.14655e-14
2.8724e-13
1.1299e-14
2.45445e-14
1.24317e-14
2.11176e-13
1.00558e-14
2.62015e-14
1.03242e-14
1.84476e-14
7.43141e-13
5.02333e-14
4.17355e-14
1.01265e-14
1.08899e-14
2.87856e-14
1.75393e-14
1.43476e-14
3.50191e-13
1.34678e-14
3.2951e-13
1.30157e-14
3.0894e-13
2.69031e-13
1.13974e-14
1.1644e-14
3.05706e-13
3.26344e-13
1.25607e-14
1.29725e-14
1.25679e-14
1.00348e-14
3.46985e-13
1.37036e-14
1.62915e-14
1.14774e-14
1e-14
2.55259e-14
1.06843e-14
1.00403e-14
1e-14
1.01366e-14
3.89699e-14
1e-14
6.91194e-13
4.74129e-14
7.40097e-13
1e-14
1e-14
1.00498e-14
1.69025e-14
2.50153e-14
1.02097e-14
1.00511e-14
1.14877e-14
1.07646e-14
2.09899e-13
1.20547e-14
2.24343e-14
1e-14
1.52267e-13
1.13142e-14
2.85295e-13
5.31338e-13
6.27466e-13
1.36759e-14
1.00044e-14
1e-14
1.12075e-14
1.82487e-14
1.00163e-14
1.02128e-14
1.08707e-14
1e-14
5.73181e-14
1.09472e-14
3.0407e-14
1.39769e-14
1e-14
2.24616e-13
1e-14
1.07699e-14
1.53387e-14
2.6854e-13
1.00582e-14
1.08773e-14
1e-14
4.16881e-13
6.42146e-13
2.19023e-14
7.02796e-13
1e-14
4.34816e-13
6.99726e-13
1.94497e-14
7.02402e-13
1e-14
5.56029e-13
7.04049e-13
2.1925e-14
6.42142e-13
2.24597e-13
1e-14
1.18921e-14
1.08782e-14
2.68542e-13
1.00583e-14
1.53384e-14
1.39736e-14
1e-14
1.08691e-14
1e-14
3.04132e-14
1.0947e-14
5.72369e-14
5.31387e-13
6.27508e-13
1.37507e-14
1.00047e-14
1.0388e-14
1.02154e-14
1.82937e-14
1.00168e-14
1.12193e-14
1e-14
2.85384e-13
1.13211e-14
1.15129e-14
1.77507e-13
2.25508e-14
1.20826e-14
2.10004e-13
1e-14
1e-14
1.42538e-14
1.00508e-14
2.50318e-14
1.02162e-14
1.7041e-14
1e-14
7.40215e-13
4.77814e-14
1.00433e-14
3.92374e-14
1.01341e-14
1.19212e-14
1.06954e-14
2.56845e-14
1.25849e-14
2.89013e-13
1.63412e-14
1.37322e-14
3.47113e-13
2.7029e-13
1.14173e-14
2.56952e-13
1.29967e-14
3.26469e-13
1.25897e-14
3.06055e-13
2.70573e-13
1.14195e-14
1.16657e-14
3.05734e-13
3.26316e-13
1.25461e-14
1.29575e-14
1.25436e-14
1.01082e-14
3.47152e-13
1.36965e-14
1.6082e-14
1.26762e-14
1e-14
2.50492e-14
1.06757e-14
1.00377e-14
1e-14
1.01232e-14
3.90939e-14
1e-14
6.91913e-13
4.77789e-14
7.40041e-13
1e-14
1e-14
1.00508e-14
1.6855e-14
2.47037e-14
1.01975e-14
1.00495e-14
1.14818e-14
1.10554e-14
2.10064e-13
1.2054e-14
2.23102e-14
1e-14
1.55383e-13
1.14197e-14
2.84874e-13
5.33183e-13
6.27895e-13
1.40245e-14
1.00045e-14
1e-14
1.12195e-14
1.81852e-14
1.00157e-14
1.01968e-14
1.08441e-14
1e-14
5.80327e-14
1.09379e-14
2.96576e-14
1.51385e-14
1e-14
2.25057e-13
1e-14
1.07479e-14
1.53764e-14
2.68806e-13
1.00575e-14
1.08523e-14
1e-14
4.22811e-13
6.42702e-13
2.1032e-14
7.01942e-13
1e-14
4.40894e-13
6.98939e-13
1.87464e-14
7.01599e-13
1e-14
5.56644e-13
7.03188e-13
2.10505e-14
6.4269e-13
2.25056e-13
1e-14
1.18845e-14
1.08535e-14
2.6881e-13
1.00576e-14
1.53755e-14
1.51377e-14
1e-14
1.08445e-14
1e-14
2.96651e-14
1.09387e-14
5.80143e-14
5.33213e-13
6.2799e-13
1.40378e-14
1.00045e-14
1.0361e-14
1.01972e-14
1.81895e-14
1.00161e-14
1.12214e-14
1e-14
2.84898e-13
1.14205e-14
1.14896e-14
1.77993e-13
2.23212e-14
1.20571e-14
2.10064e-13
1e-14
1e-14
1.42896e-14
1.00493e-14
2.46961e-14
1.01979e-14
1.68708e-14
1e-14
7.40204e-13
4.78144e-14
1.00392e-14
3.91228e-14
1.01237e-14
1.27125e-14
1.06796e-14
2.50663e-14
1.25506e-14
2.89673e-13
1.60877e-14
1.36986e-14
3.47109e-13
2.70616e-13
1.1427e-14
2.57182e-13
1.29572e-14
3.26317e-13
1.25501e-14
3.05924e-13
2.7075e-13
1.14417e-14
1.16891e-14
3.0578e-13
3.26336e-13
1.25505e-14
1.29642e-14
1.2565e-14
1.01163e-14
3.47179e-13
1.37078e-14
1.60567e-14
1.28949e-14
1e-14
2.50289e-14
1.06749e-14
1.00387e-14
1e-14
1.0123e-14
3.90807e-14
1e-14
6.91164e-13
4.78731e-14
7.40057e-13
1e-14
1e-14
1.00518e-14
1.68565e-14
2.46392e-14
1.01953e-14
1.00491e-14
1.14981e-14
1.10937e-14
2.10158e-13
1.20599e-14
2.22825e-14
1e-14
1.55266e-13
1.14466e-14
2.84674e-13
5.33476e-13
6.28101e-13
1.41086e-14
1.00043e-14
1e-14
1.12245e-14
1.81745e-14
1.00151e-14
1.01927e-14
1.08443e-14
1e-14
5.84719e-14
1.09347e-14
2.95497e-14
1.54102e-14
1e-14
2.25157e-13
1e-14
1.07483e-14
1.53868e-14
2.68893e-13
1.00557e-14
1.0849e-14
1e-14
4.22827e-13
6.42798e-13
2.08814e-14
7.01832e-13
1e-14
4.40939e-13
6.98804e-13
1.86216e-14
7.01468e-13
1e-14
5.56511e-13
7.03091e-13
2.08983e-14
6.4282e-13
2.25148e-13
1e-14
1.18963e-14
1.08502e-14
2.68893e-13
1.00559e-14
1.53874e-14
1.54095e-14
1e-14
1.08445e-14
1e-14
2.95543e-14
1.09353e-14
5.84658e-14
5.33548e-13
6.28126e-13
1.41119e-14
1.00043e-14
1.03627e-14
1.01928e-14
1.81769e-14
1.00154e-14
1.12254e-14
1e-14
2.8468e-13
1.14458e-14
1.1499e-14
1.78084e-13
2.22889e-14
1.20609e-14
2.10155e-13
1e-14
1e-14
1.43348e-14
1.0049e-14
2.46362e-14
1.01955e-14
1.68602e-14
1e-14
7.401e-13
4.78792e-14
1.00407e-14
3.90898e-14
1.0122e-14
1.29014e-14
1.06754e-14
2.50334e-14
1.25662e-14
2.89872e-13
1.60609e-14
1.37072e-14
3.47172e-13
2.70752e-13
1.1443e-14
2.57326e-13
1.29614e-14
3.26323e-13
1.25526e-14
3.0592e-13
2.70682e-13
1.14443e-14
1.16933e-14
3.05769e-13
3.26403e-13
1.25616e-14
1.29799e-14
1.25718e-14
1.01118e-14
3.47272e-13
1.37355e-14
1.61103e-14
1.29521e-14
1e-14
2.51269e-14
1.06742e-14
1.00393e-14
1e-14
1.0125e-14
3.90425e-14
1e-14
6.9091e-13
4.79179e-14
7.40005e-13
1e-14
1e-14
1.00519e-14
1.68716e-14
2.4544e-14
1.01943e-14
1.00491e-14
1.14996e-14
1.10658e-14
2.10292e-13
1.2064e-14
2.22842e-14
1e-14
1.55079e-13
1.14667e-14
2.84482e-13
5.33626e-13
6.28186e-13
1.40979e-14
1.0004e-14
1e-14
1.12264e-14
1.8156e-14
1.00143e-14
1.01891e-14
1.08397e-14
1e-14
5.88709e-14
1.09279e-14
2.94844e-14
1.5435e-14
1e-14
2.25201e-13
1e-14
1.0747e-14
1.5385e-14
2.68893e-13
1.00547e-14
1.08464e-14
1e-14
4.22713e-13
6.42788e-13
2.087e-14
7.01848e-13
1e-14
4.40857e-13
6.98773e-13
1.86147e-14
7.01438e-13
1e-14
5.56509e-13
7.03106e-13
2.08904e-14
6.42808e-13
2.25192e-13
1e-14
1.18996e-14
1.08476e-14
2.689e-13
1.00547e-14
1.53853e-14
1.54374e-14
1e-14
1.08398e-14
1e-14
2.94873e-14
1.09283e-14
5.887e-14
5.33578e-13
6.28195e-13
1.40995e-14
1.0004e-14
1.0364e-14
1.0189e-14
1.81592e-14
1.00144e-14
1.12268e-14
1e-14
2.84483e-13
1.14666e-14
1.15e-14
1.78125e-13
2.22869e-14
1.20644e-14
2.10299e-13
1e-14
1e-14
1.43472e-14
1.00491e-14
2.45455e-14
1.01942e-14
1.68714e-14
1e-14
7.39983e-13
4.79067e-14
1.00389e-14
3.90413e-14
1.01249e-14
1.29498e-14
1.06753e-14
2.51299e-14
1.25712e-14
2.89834e-13
1.61122e-14
1.3734e-14
3.47232e-13
2.70708e-13
1.14452e-14
2.57283e-13
1.29763e-14
3.2638e-13
1.25632e-14
3.05958e-13
2.705e-13
1.14436e-14
1.1697e-14
3.05818e-13
3.26568e-13
1.25854e-14
1.30183e-14
1.25837e-14
1.01072e-14
3.47308e-13
1.38198e-14
1.63217e-14
1.30286e-14
1e-14
2.53307e-14
1.06894e-14
1.00375e-14
1e-14
1.01445e-14
3.90694e-14
1e-14
6.90542e-13
4.81911e-14
7.39887e-13
1e-14
1e-14
1.00514e-14
1.69481e-14
2.43193e-14
1.01925e-14
1.00496e-14
1.1498e-14
1.1015e-14
2.10676e-13
1.20721e-14
2.23291e-14
1e-14
1.54688e-13
1.15005e-14
2.84302e-13
5.33682e-13
6.28274e-13
1.40713e-14
1.00036e-14
1e-14
1.12312e-14
1.81674e-14
1.00136e-14
1.01856e-14
1.08307e-14
1e-14
5.94433e-14
1.09222e-14
2.95051e-14
1.54545e-14
1e-14
2.25263e-13
1e-14
1.07456e-14
1.53901e-14
2.68879e-13
1.00545e-14
1.0848e-14
1e-14
4.22658e-13
6.42785e-13
2.09884e-14
7.01859e-13
1e-14
4.40784e-13
6.98756e-13
1.86794e-14
7.01414e-13
1e-14
5.56477e-13
7.03113e-13
2.10077e-14
6.42767e-13
2.25256e-13
1e-14
1.18968e-14
1.08493e-14
2.68894e-13
1.00544e-14
1.53899e-14
1.54536e-14
1e-14
1.08308e-14
1e-14
2.95066e-14
1.09226e-14
5.94399e-14
5.33662e-13
6.28298e-13
1.40733e-14
1.00035e-14
1.03664e-14
1.01855e-14
1.81704e-14
1.00136e-14
1.12315e-14
1e-14
2.84318e-13
1.15004e-14
1.14985e-14
1.78157e-13
2.23304e-14
1.20722e-14
2.10682e-13
1e-14
1e-14
1.43818e-14
1.00495e-14
2.43194e-14
1.01926e-14
1.69506e-14
1e-14
7.39908e-13
4.81996e-14
1.00383e-14
3.90754e-14
1.01441e-14
1.30274e-14
1.06899e-14
2.53315e-14
1.2583e-14
2.89525e-13
1.6323e-14
1.38175e-14
3.47287e-13
2.70499e-13
1.14443e-14
2.57071e-13
1.3014e-14
3.26536e-13
1.25874e-14
3.06018e-13
2.69761e-13
1.14217e-14
1.16824e-14
3.06233e-13
3.27342e-13
1.26921e-14
1.31854e-14
1.26108e-14
1.01053e-14
3.47861e-13
1.40765e-14
1.69952e-14
1.34103e-14
1e-14
2.55847e-14
1.08055e-14
1.00357e-14
1e-14
1.02207e-14
4.01359e-14
1e-14
6.89413e-13
4.92502e-14
7.40477e-13
1e-14
1e-14
1.00504e-14
1.73547e-14
2.47128e-14
1.0191e-14
1.0056e-14
1.14818e-14
1.09193e-14
2.11899e-13
1.21202e-14
2.2539e-14
1e-14
1.53526e-13
1.15425e-14
2.83991e-13
5.33617e-13
6.29333e-13
1.40573e-14
1.0003e-14
1e-14
1.12499e-14
1.83752e-14
1.00125e-14
1.01858e-14
1.08057e-14
1e-14
6.18485e-14
1.09596e-14
3.07354e-14
1.54663e-14
1e-14
2.25312e-13
1e-14
1.07402e-14
1.55317e-14
2.70002e-13
1.00505e-14
1.08792e-14
1e-14
4.22258e-13
6.43165e-13
2.16005e-14
7.01856e-13
1e-14
4.40466e-13
6.98901e-13
1.89182e-14
7.01476e-13
1e-14
5.56172e-13
7.03075e-13
2.16119e-14
6.43176e-13
2.25291e-13
1e-14
1.18714e-14
1.08804e-14
2.70021e-13
1.00504e-14
1.5532e-14
1.54669e-14
1e-14
1.08057e-14
1e-14
3.07373e-14
1.096e-14
6.18412e-14
5.3363e-13
6.29383e-13
1.40592e-14
1.00029e-14
1.03704e-14
1.0186e-14
1.8376e-14
1.00126e-14
1.12503e-14
1e-14
2.83998e-13
1.1542e-14
1.14821e-14
1.78138e-13
2.25401e-14
1.21205e-14
2.11887e-13
1e-14
1e-14
1.4524e-14
1.0056e-14
2.47097e-14
1.01911e-14
1.73562e-14
1e-14
7.40487e-13
4.92508e-14
1.00351e-14
4.01376e-14
1.02201e-14
1.34071e-14
1.08052e-14
2.55866e-14
1.26102e-14
2.88434e-13
1.69955e-14
1.40727e-14
3.47833e-13
2.6977e-13
1.14225e-14
2.56269e-13
1.31795e-14
3.27304e-13
1.2694e-14
3.06401e-13
2.64723e-13
1.08296e-14
1.10553e-14
3.76905e-13
3.93939e-13
1.38013e-14
1.45471e-14
1.24787e-14
1.00667e-14
4.16701e-13
1.47917e-14
1.83499e-14
1.36853e-14
1e-14
3.1539e-14
1.41473e-14
1e-14
1e-14
1.12181e-14
3.47862e-14
1e-14
6.89862e-13
8.9929e-14
7.16322e-13
1e-14
1e-14
1.0039e-14
2.27845e-14
6.52443e-14
1.03835e-14