/*--------------------------------*- C++ -*----------------------------------*\
| =========                 |                                                 |
| \\      /  F ield         | OpenFOAM: The Open Source CFD Toolbox           |
|  \\    /   O peration     | Version:  2.1.1                                 |
|   \\  /    A nd           | Web:      www.OpenFOAM.org                      |
|    \\/     M anipulation  |                                                 |
\*---------------------------------------------------------------------------*/
FoamFile
{
    version     2.0;
    format      ascii;
    class       volScalarField;
    location    "0.001";
    object      p;
}
// * * * * * * * * * * * * * * * * * * * * * * * * * * * * * * * * * * * * * //

dimensions      [0 2 -2 0 0 0 0];

internalField   nonuniform List<scalar> 
10260
(
0.0879422
0.0841933
0.0839562
0.0840407
0.0839706
0.0840004
0.0839752
0.0839904
0.0839873
0.0840014
0.0840046
0.0840144
0.0840182
0.0840221
0.084025
0.0886324
0.0843561
0.0839092
0.0840441
0.0839556
0.0840003
0.0839708
0.0839916
0.0839866
0.0840016
0.0840037
0.084013
0.0840166
0.0840205
0.0840226
0.0966672
0.0842809
0.0839899
0.0840611
0.0839978
0.084007
0.0839967
0.083999
0.0840014
0.0840055
0.0840103
0.084014
0.0840168
0.0840182
0.086781
0.0841897
0.0839716
0.0840264
0.0839976
0.0839974
0.0840026
0.0839969
0.084003
0.0840028
0.0840083
0.0840103
0.0840131
0.084014
0.0862013
0.0842365
0.0840452
0.0840761
0.0840064
0.0840309
0.0840046
0.0840116
0.084002
0.0840057
0.084003
0.0840057
0.0840043
0.0840053
0.0879422
0.0843892
0.0840534
0.0840984
0.0840585
0.0840275
0.084028
0.0840081
0.0840106
0.0840019
0.0840029
0.0840014
0.0840019
0.0840019
0.0980169
0.0842828
0.0840933
0.0840527
0.0840777
0.0840205
0.0840347
0.0840082
0.0840113
0.0839969
0.0839996
0.0839885
0.0839889
0.0982561
0.0844231
0.0840571
0.0841803
0.0840284
0.0840868
0.0840215
0.0840284
0.0840039
0.0840007
0.0839964
0.0839943
0.0839921
0.100693
0.0845253
0.0839425
0.0842203
0.0840312
0.0840797
0.0840281
0.084031
0.0839982
0.0840081
0.0839735
0.0839782
0.0904236
0.0954395
0.0845078
0.083947
0.0841887
0.0840577
0.08406
0.0840076
0.0839977
0.0839986
0.0839993
0.0840016
0.105781
0.0950248
0.084531
0.084064
0.0840963
0.0841003
0.0840773
0.0840286
0.084063
0.0839585
0.0839747
0.10729
0.0987127
0.0844285
0.0842947
0.0840547
0.0840448
0.08397
0.0839894
0.0840416
0.0840428
0.0979702
0.0968132
0.0844112
0.0842456
0.0841994
0.0842869
0.0839078
0.0839572
0.0998513
0.0990741
0.0987456
0.0964943
0.0969161
0.0843782
0.0842158
0.0875843
0.0975894
0.0997016
0.0972589
0.0993722
0.086906
0.0825343
0.0824842
0.0825501
0.0825671
0.0826144
0.0826395
0.0826754
0.0826974
0.0827238
0.0827406
0.0827579
0.0827684
0.0827764
0.0827805
0.0876175
0.0827061
0.0824261
0.0825684
0.0825571
0.0826163
0.0826362
0.0826752
0.0826949
0.0827222
0.0827377
0.0827548
0.0827647
0.0827726
0.0827764
0.0941349
0.0826531
0.0824887
0.0826044
0.0826014
0.0826464
0.0826668
0.0826941
0.0827152
0.0827324
0.0827472
0.0827574
0.0827649
0.0827685
0.0848827
0.0826548
0.0825035
0.0825987
0.0826074
0.0826399
0.0826702
0.0826869
0.0827107
0.0827232
0.0827389
0.0827471
0.0827549
0.0827578
0.084417
0.08262
0.0825495
0.082603
0.0826024
0.0826431
0.0826554
0.0826826
0.0826959
0.0827126
0.0827234
0.0827326
0.0827382
0.0827412
0.0867595
0.0827795
0.0825405
0.0826189
0.0826264
0.082627
0.0826639
0.0826658
0.082691
0.0826958
0.0827106
0.0827153
0.0827226
0.0827244
0.0956234
0.0826932
0.0825908
0.082589
0.0826459
0.0826295
0.0826653
0.082666
0.0826823
0.0826867
0.0826948
0.0826963
0.0826989
0.0968129
0.0828001
0.0825018
0.0826939
0.0825727
0.082671
0.0826312
0.0826646
0.0826545
0.0826685
0.0826681
0.0826763
0.0826769
0.0982199
0.0829436
0.0823904
0.0827371
0.0825808
0.082652
0.0826289
0.0826431
0.08264
0.0826471
0.0826384
0.0826419
0.089305
0.0930882
0.0829732
0.0823986
0.0827285
0.0826003
0.0826279
0.0825999
0.0826088
0.0826023
0.0826159
0.0826154
0.104564
0.092731
0.0829566
0.0825175
0.0825964
0.0826213
0.0826022
0.0825996
0.082606
0.0825585
0.0825689
0.10607
0.0962196
0.0828057
0.0826983
0.0825397
0.0825492
0.0825022
0.0824879
0.0825661
0.0825517
0.0958426
0.0944551
0.0827804
0.0826169
0.0826533
0.0826524
0.0824225
0.0824826
0.0984551
0.0969031
0.0964415
0.0942653
0.0945334
0.0827004
0.0825311
0.0863283
0.0962144
0.0982299
0.0947708
0.0968294
0.0855066
0.0808821
0.0810121
0.0810625
0.0811712
0.0812398
0.0813126
0.0813687
0.0814162
0.0814549
0.0814847
0.0815092
0.0815259
0.0815377
0.0815433
0.0862056
0.081018
0.0809483
0.0810871
0.0811636
0.0812438
0.0813111
0.081368
0.0814122
0.0814516
0.0814798
0.0815044
0.0815205
0.0815323
0.0815378
0.0923299
0.0810175
0.0810187
0.0811496
0.0812184
0.081294
0.0813508
0.0813985
0.0814375
0.0814673
0.0814919
0.0815085
0.0815206
0.0815262
0.0832431
0.0810884
0.0810531
0.0811653
0.0812264
0.0812883
0.081347
0.0813852
0.0814266
0.0814516
0.0814775
0.0814919
0.0815045
0.0815093
0.0828077
0.0809884
0.0810699
0.081123
0.0811962
0.081261
0.0813136
0.0813606
0.0813977
0.0814271
0.0814518
0.0814675
0.0814802
0.0814852
0.0852892
0.0811659
0.0810432
0.0811406
0.081206
0.0812339
0.0813066
0.0813303
0.0813788
0.0813975
0.0814265
0.0814375
0.0814518
0.0814553
0.093914
0.0811212
0.0811038
0.0811353
0.0812215
0.0812434
0.0813011
0.0813304
0.0813604
0.0813852
0.0813987
0.0814131
0.0814172
0.0953407
0.0812036
0.0810027
0.0812237
0.0811235
0.0812571
0.0812441
0.0813067
0.0813128
0.081346
0.0813503
0.0813687
0.0813696
0.0965658
0.081356
0.0809025
0.0812366
0.0811268
0.0812236
0.0812345
0.0812593
0.0812848
0.0812931
0.0813143
0.0813165
0.0878982
0.0914541
0.0814077
0.0809042
0.08123
0.0811392
0.0812067
0.0811949
0.0812247
0.0812185
0.0812429
0.0812403
0.10321
0.0911133
0.0813583
0.0810075
0.0811053
0.0811412
0.081122
0.0811637
0.0811488
0.0811636
0.0811717
0.104736
0.0946074
0.0812053
0.0811223
0.0810425
0.0810681
0.0810503
0.0810158
0.0810842
0.0810614
0.0943128
0.092816
0.0811626
0.080984
0.0810851
0.0810137
0.0809456
0.0810113
0.0970737
0.0954075
0.0948607
0.0926794
0.0928912
0.081009
0.0808757
0.0848828
0.094783
0.0967725
0.0931426
0.0951971
0.0840167
0.0792009
0.0795315
0.0795732
0.0797826
0.0798758
0.0799984
0.0800726
0.0801447
0.0801949
0.0802371
0.0802684
0.080291
0.0803063
0.0803132
0.084695
0.079284
0.0794691
0.0795931
0.0797795
0.0798809
0.0799961
0.0800714
0.0801392
0.08019
0.0802303
0.0802619
0.0802838
0.0802993
0.0803064
0.0906214
0.0793447
0.0795475
0.0796898
0.0798483
0.0799472
0.0800448
0.0801124
0.0801691
0.0802108
0.0802448
0.0802674
0.080284
0.0802913
0.0816148
0.0795066
0.0795917
0.0797342
0.0798562
0.0799499
0.0800364
0.0800939
0.0801521
0.0801888
0.0802244
0.0802446
0.080262
0.0802685
0.0811949
0.0793263
0.0795843
0.0796372
0.0797967
0.0798876
0.0799839
0.0800488
0.0801092
0.0801507
0.0801889
0.0802108
0.0802306
0.0802375
0.0837311
0.0795534
0.0795448
0.0796549
0.0797971
0.0798486
0.079959
0.0800048
0.0800764
0.080109
0.0801519
0.080169
0.0801901
0.0801951
0.0922563
0.0795629
0.079605
0.0796859
0.0798001
0.0798662
0.079946
0.0800048
0.0800486
0.0800938
0.0801124
0.0801396
0.0801451
0.0937549
0.0796206
0.0794825
0.0797321
0.0796806
0.0798459
0.0798661
0.0799588
0.0799833
0.0800358
0.0800443
0.0800713
0.0800723
0.0949749
0.0797735
0.0794086
0.0797276
0.0796808
0.0798
0.0798485
0.0798866
0.0799492
0.0799461
0.0799961
0.0799991
0.0863693
0.0899117
0.0798453
0.0793991
0.0797308
0.0796856
0.0797973
0.0797944
0.0798545
0.0798466
0.0798797
0.0798756
0.101707
0.0895891
0.0797697
0.0794815
0.079603
0.0796542
0.0796351
0.0797325
0.0796876
0.0797786
0.0797825
0.103246
0.0930871
0.0796186
0.079561
0.0795428
0.0795812
0.0795882
0.0795442
0.0795898
0.0795717
0.0927916
0.0913007
0.0795507
0.0793222
0.0795029
0.0793406
0.0794657
0.0795296
0.0955595
0.0939733
0.093408
0.0912429
0.0913922
0.0792766
0.0791962
0.0833532
0.0933293
0.0952745
0.0916212
0.0937176
0.0824913
0.0774381
0.0780589
0.0780861
0.078415
0.0785281
0.0787001
0.0787901
0.0788842
0.0789444
0.0789978
0.0790353
0.0790634
0.0790819
0.0790903
0.0831395
0.0773722
0.0780149
0.078098
0.0784222
0.0785358
0.0787013
0.0787882
0.0788773
0.0789379
0.0789892
0.0790271
0.0790545
0.0790731
0.0790817
0.0887913
0.07752
0.0780719
0.0782205
0.0784971
0.0786241
0.078753
0.0788376
0.0789108
0.0789632
0.0790057
0.0790339
0.0790546
0.0790636
0.0798594
0.0778869
0.0781453
0.0783204
0.0785091
0.0786205
0.0787398
0.0788146
0.078888
0.0789355
0.0789798
0.0790056
0.0790272
0.0790353
0.0794772
0.0775819
0.0781055
0.0781557
0.0784413
0.0785283
0.0786694
0.0787503
0.0788327
0.078885
0.0789356
0.0789632
0.0789894
0.078998
0.082078
0.077871
0.078058
0.0781679
0.0783834
0.0784742
0.0786256
0.0786934
0.0787865
0.0788324
0.0788878
0.0789105
0.0789378
0.0789443
0.0905242
0.077976
0.0780822
0.0782375
0.0783851
0.0785043
0.078605
0.0786933
0.0787499
0.0788144
0.0788374
0.0788774
0.0788843
0.092082
0.0779666
0.0779504
0.0782275
0.0782434
0.0784424
0.0785037
0.078625
0.0786687
0.0787392
0.0787521
0.0787877
0.0787897
0.0933206
0.0781293
0.0778797
0.0782044
0.0782428
0.0783837
0.0784731
0.078528
0.078621
0.0786213
0.0787002
0.0787001
0.0847668
0.0883425
0.0782461
0.0778764
0.078225
0.0782347
0.0783804
0.0784407
0.0785081
0.0784947
0.0785343
0.0785275
0.100136
0.0880416
0.0781235
0.0779466
0.0780778
0.0781662
0.078153
0.0783195
0.0782167
0.0784207
0.0784143
0.101683
0.0915372
0.0779615
0.0779696
0.0780571
0.0781021
0.0781421
0.0780684
0.0780949
0.0780848
0.0912458
0.0897944
0.0778683
0.0775778
0.0778834
0.0775154
0.0780115
0.0780566
0.0939747
0.0926013
0.092068
0.0898965
0.0898742
0.0773661
0.0774353
0.0817524
0.0919159
0.0937616
0.0901107
0.0923162
0.0808688
0.0755821
0.0766464
0.0766187
0.0770839
0.0772021
0.07742
0.07752
0.077635
0.0777033
0.0777668
0.0778094
0.0778425
0.0778636
0.0778738
0.0815789
0.0752036
0.0766847
0.0766283
0.0771073
0.0772139
0.0774207
0.0775189
0.0776271
0.0776956
0.0777566
0.0777998
0.077832
0.0778533
0.0778634
0.0865675
0.0754593
0.0766206
0.076756
0.0771641
0.0773029
0.0774751
0.0775764
0.0776631
0.077725
0.0777747
0.0778079
0.0778321
0.0778426
0.0778949
0.076246
0.0767505
0.0769264
0.0771815
0.0773195
0.0774606
0.0775492
0.0776354
0.0776923
0.077744
0.0777746
0.0777998
0.0778093
0.077539
0.0757339
0.0766535
0.0766838
0.0770652
0.0771938
0.0773766
0.077469
0.0775698
0.0776314
0.0776924
0.077725
0.0777567
0.0777668
0.0801266
0.0760662
0.0765844
0.0766969
0.0770454
0.0771322
0.0773135
0.0774005
0.0775114
0.0775695
0.0776351
0.0776628
0.0776953
0.0777032
0.0886512
0.0763798
0.0765726
0.0768334
0.0769968
0.077167
0.0772852
0.0774001
0.0774684
0.0775488
0.077576
0.077627
0.0776351
0.0902587
0.0761702
0.0764093
0.0767121
0.0768267
0.0770561
0.0771661
0.0773125
0.0773753
0.0774596
0.0774742
0.0775184
0.0775198
0.0914614
0.0763454
0.0763473
0.0766561
0.0768257
0.0769951
0.0771308
0.0771909
0.0773169
0.0773032
0.0774205
0.07742
0.0830177
0.0867273
0.0765562
0.0763433
0.0767088
0.0768299
0.0770441
0.0770608
0.0771792
0.077162
0.0772127
0.0772015
0.0985295
0.0864719
0.076336
0.0764035
0.0765673
0.0766949
0.0766784
0.076924
0.0767529
0.0771057
0.0770831
0.100092
0.0899653
0.0761639
0.0763738
0.0765803
0.0766489
0.0767474
0.0766171
0.0766256
0.0766175
0.0896859
0.0883625
0.076062
0.075729
0.0762425
0.0754552
0.0766819
0.0766445
0.0922932
0.0913892
0.090963
0.0886495
0.0880382
0.0751992
0.0755808
0.07998
0.0907284
0.0923097
0.0887124
0.0911357
0.0778884
0.0735893
0.0752985
0.0751755
0.0757892
0.0759013
0.0761612
0.0762663
0.0763983
0.0764722
0.0765442
0.0765909
0.0766282
0.0766513
0.076663
0.0792647
0.0727473
0.0754574
0.0752074
0.0758261
0.0759173
0.0761631
0.0762656
0.076389
0.0764633
0.0765326
0.07658
0.0766163
0.0766398
0.0766513
0.0827148
0.0730149
0.075151
0.0753221
0.0758453
0.0760241
0.076214
0.0763301
0.0764267
0.0764969
0.0765521
0.0765895
0.0766164
0.0766282
0.0765089
0.0745257
0.0754506
0.0755553
0.0759035
0.076036
0.0761985
0.0762986
0.0763947
0.0764598
0.0765171
0.0765519
0.0765799
0.0765908
0.07532
0.073809
0.0752697
0.0752747
0.0758156
0.0758967
0.076105
0.0762073
0.076322
0.0763914
0.0764599
0.0764968
0.0765326
0.0765443
0.0761591
0.0741779
0.0751827
0.0752408
0.0756641
0.0758072
0.076024
0.0761293
0.0762533
0.0763216
0.0763944
0.0764263
0.076463
0.0764722
0.0864586
0.0747559
0.0750781
0.0754456
0.0756377
0.0758603
0.0759933
0.076129
0.0762066
0.076298
0.0763296
0.0763888
0.0763982
0.0878274
0.0741692
0.0748741
0.0751925
0.0754463
0.0756987
0.0758594
0.0760229
0.0761037
0.0761975
0.0762131
0.076265
0.0762659
0.0888232
0.0742873
0.0748189
0.075096
0.0754451
0.0756356
0.0758049
0.0758952
0.0760348
0.0760228
0.0761622
0.0761611
0.0805489
0.0850764
0.0746934
0.0748124
0.0751888
0.075441
0.0756585
0.0758155
0.0759022
0.075843
0.075915
0.0759016
0.0969959
0.08494
0.0742738
0.0748664
0.075073
0.0752355
0.0752702
0.0755527
0.0753194
0.0758242
0.0757885
0.098574
0.0886177
0.074162
0.0747506
0.0751749
0.0752635
0.0754473
0.0751477
0.075205
0.0751744
0.0882333
0.0869926
0.0741707
0.0738029
0.0745221
0.0730114
0.075455
0.0752969
0.0903782
0.0902599
0.0904991
0.087788
0.0842872
0.0727442
0.0735881
0.0771176
0.0905664
0.0903327
0.0879545
0.0907917
0.0698663
0.0716446
0.0741084
0.073807
0.0745344
0.0746293
0.0749238
0.0750307
0.0751755
0.0752527
0.0753309
0.0753803
0.0754207
0.0754454
0.0754578
0.0719496
0.0717892
0.0742744
0.0739152
0.0745727
0.074653
0.0749224
0.0750286
0.0751642
0.0752424
0.0753179
0.0753682
0.0754078
0.0754329
0.0754453
0.0677823
0.0715959
0.0734404
0.0739889
0.0745277
0.0747682
0.0749689
0.0751015
0.0752033
0.0752801
0.0753386
0.0753793
0.0754079
0.0754207
0.0789428
0.0721814
0.0741858
0.0741685
0.074614
0.0747692
0.0749523
0.0750649
0.0751676
0.0752394
0.0753001
0.0753384
0.0753681
0.0753801
0.0724618
0.0717178
0.0739241
0.0739079
0.0745052
0.0746305
0.0748585
0.0749698
0.0750916
0.075167
0.0752394
0.0752799
0.0753179
0.0753309
0.0643478
0.0719462
0.0737559
0.0738612
0.074406
0.07454
0.0747656
0.0748849
0.075015
0.0750913
0.0751673
0.0752029
0.0752422
0.0752526
0.0821048
0.0733051
0.0738248
0.0741953
0.0743559
0.0745999
0.0747391
0.0748846
0.0749691
0.0750643
0.0751009
0.0751639
0.0751753
0.0601529
0.0721847
0.0735471
0.073771
0.0741479
0.0744007
0.074599
0.0747647
0.0748572
0.0749513
0.074968
0.075028
0.0750303
0.0801938
0.0721978
0.0734993
0.0736549
0.074147
0.0743547
0.0745386
0.0746287
0.0747677
0.074767
0.0749215
0.0749234
0.0940503
0.0841248
0.0726447
0.07349
0.0737678
0.0741935
0.0744037
0.0745026
0.0746119
0.0745257
0.0746516
0.0746286
0.0957809
0.083796
0.0721846
0.0735373
0.0738268
0.0738578
0.0739033
0.0741653
0.0739864
0.0745709
0.0745335
0.0963458
0.0863292
0.0721739
0.0732898
0.0737485
0.0739182
0.0741821
0.0734374
0.0739132
0.0738059
0.0800589
0.0849803
0.0719391
0.0717118
0.0721765
0.0715938
0.0742724
0.0741071
0.0893978
0.0847894
0.0870171
0.0849652
0.0677796
0.0717866
0.0716434
0.100755
0.0672547
0.0690978
0.0862373
0.0867363
0.0736561
0.0715857
0.0730323
0.0727298
0.0733741
0.0734321
0.0737233
0.0738219
0.07397
0.074047
0.0741281
0.0741786
0.0742208
0.0742463
0.0742594
0.0733954
0.0718757
0.0732236
0.0728572
0.073395
0.0734523
0.0737155
0.0738172
0.0739567
0.0740356
0.0741143
0.0741658
0.0742073
0.0742332
0.0742463
0.0718262
0.0688978
0.0721551
0.0723094
0.0729824
0.0733088
0.0735802
0.0737561
0.0738963
0.0739961
0.0740764
0.0741356
0.0741782
0.0742075
0.074221
0.0705137
0.0714684
0.0726869
0.0729431
0.0733611
0.0735474
0.0737319
0.0738537
0.0739575
0.0740333
0.0740948
0.0741354
0.0741658
0.0741785
0.0767872
0.0720654
0.0727326
0.0728436
0.0732916
0.0734307
0.0736458
0.0737622
0.0738826
0.0739609
0.0740332
0.0740762
0.0741143
0.0741282
0.0699985
0.0714498
0.0725917
0.0727047
0.0731692
0.0733273
0.0735474
0.0736744
0.0738019
0.0738822
0.0739571
0.0739957
0.0740353
0.0740469
0.082082
0.072479
0.072526
0.0729966
0.0731517
0.0733958
0.0735315
0.0736741
0.0737615
0.073853
0.0738957
0.0739565
0.0739699
0.0706067
0.0721948
0.0723324
0.0725597
0.0729602
0.07319
0.0733949
0.0735466
0.0736445
0.0737309
0.0737551
0.0738166
0.0738216
0.0794666
0.0712647
0.0723703
0.0725239
0.0729603
0.0731504
0.073326
0.0734289
0.0735458
0.0735788
0.0737146
0.0737228
0.0731004
0.0818785
0.0703096
0.0723558
0.072557
0.0729923
0.0731668
0.0732888
0.0733588
0.0733067
0.0734509
0.0734313
0.0751449
0.081393
0.0712554
0.072322
0.0725211
0.0727008
0.0728404
0.0729393
0.0729794
0.0733931
0.0733732
0.0732918
0.0840744
0.0721871
0.0724707
0.0725863
0.0727278
0.0726831
0.0723062
0.0728552
0.0727288
0.0815346
0.0835737
0.0714443
0.0720607
0.0714645
0.0721522
0.0732216
0.0730313
0.0706364
0.0771737
0.0841275
0.0705103
0.068895
0.0718736
0.0715847
0.0799901
0.0790605
0.0821047
0.0840157
0.0738593
0.0711
0.0720378
0.0717837
0.0722727
0.0723003
0.072557
0.0726423
0.0727834
0.0728569
0.0729372
0.0729871
0.0730296
0.0730551
0.0730685
0.0743984
0.0713404
0.072133
0.0718684
0.0722689
0.072311
0.0725431
0.0726348
0.0727688
0.0728448
0.0729231
0.0729741
0.073016
0.0730417
0.0730551
0.074843
0.0701763
0.0718572
0.0715264
0.0720524
0.0721934
0.0724434
0.0725797
0.0727155
0.0728074
0.072887
0.0729444
0.0729873
0.0730161
0.0730297
0.0699168
0.0713179
0.071622
0.0719117
0.072201
0.0723878
0.0725483
0.0726695
0.0727676
0.0728435
0.0729031
0.0729442
0.072974
0.0729871
0.0788055
0.0716908
0.0717571
0.071907
0.0721557
0.0722965
0.0724739
0.0725872
0.0726977
0.0727747
0.0728432
0.0728867
0.0729231
0.0729373
0.0730644
0.0712887
0.0716471
0.0717244
0.07204
0.0721912
0.072381
0.0725028
0.0726186
0.0726973
0.0727671
0.072807
0.0728446
0.0728569
0.0813642
0.0717307
0.0715246
0.0719332
0.0720473
0.0722567
0.0723755
0.0725026
0.0725866
0.0726689
0.0727149
0.0727685
0.0727833
0.0733896
0.0716668
0.0713136
0.0716182
0.0718976
0.0720814
0.0722559
0.0723802
0.0724727
0.0725473
0.0725787
0.0726342
0.072642
0.079794
0.0709751
0.0714839
0.0716722
0.071898
0.0720462
0.0721901
0.0722949
0.0723863
0.072442
0.0725422
0.0725566
0.075869
0.0698435
0.0703544
0.0714767
0.0716161
0.0719296
0.0720381
0.0721532
0.0721986
0.0721911
0.0723096
0.0722995
0.0888622
0.0698416
0.0709713
0.0713084
0.0715208
0.071722
0.0719074
0.0719052
0.0720488
0.072267
0.072272
0.0878107
0.0840467
0.0716614
0.0717248
0.0716433
0.071754
0.0716182
0.0715232
0.0718665
0.0717828
0.0810888
0.082596
0.0712845
0.0716872
0.0713146
0.0718546
0.0721311
0.0720369
0.0730957
0.0789586
0.0825072
0.069914
0.0701739
0.0713387
0.0710991
0.0846792
0.0817258
0.0824517
0.0826308
0.0732306
0.0704333
0.0710197
0.0708345
0.0711874
0.071204
0.0714146
0.0714878
0.0716146
0.0716828
0.0717588
0.0718067
0.0718479
0.0718726
0.0718858
0.0737096
0.0705038
0.0710344
0.0708771
0.0711717
0.0712069
0.0713983
0.0714787
0.0716
0.0716707
0.071745
0.0717939
0.0718346
0.0718596
0.0718726
0.0746726
0.0700437
0.0708923
0.0706821
0.0710497
0.0711234
0.0713278
0.0714329
0.0715555
0.0716369
0.071712
0.0717659
0.0718073
0.0718347
0.071848
0.0700501
0.0706937
0.0707299
0.0709438
0.0711131
0.0712719
0.0714002
0.071511
0.0715984
0.0716703
0.0717259
0.0717657
0.0717938
0.0718067
0.0784923
0.0708227
0.0708216
0.0709271
0.071081
0.0712031
0.0713396
0.0714412
0.0715365
0.0716081
0.0716701
0.0717119
0.071745
0.0717588
0.0731587
0.0706788
0.0707616
0.0707996
0.0710001
0.0711171
0.0712638
0.0713675
0.071465
0.0715362
0.0715981
0.0716366
0.0716705
0.0716829
0.0809867
0.0709078
0.0706883
0.0709635
0.0710247
0.0711753
0.0712655
0.0713674
0.0714407
0.0715105
0.071555
0.0715997
0.0716145
0.0735225
0.0709261
0.0705737
0.0708203
0.0709392
0.0710598
0.0711747
0.0712632
0.0713386
0.0713993
0.071432
0.0714782
0.0714875
0.0792655
0.0707463
0.0708284
0.0708835
0.0709394
0.0710239
0.0711162
0.0712018
0.0712707
0.0713267
0.0713976
0.0714142
0.0759057
0.0699959
0.0704913
0.0708262
0.0708197
0.0709613
0.0709986
0.071079
0.0711112
0.0711217
0.0712058
0.0712034
0.0897227
0.06999
0.0707428
0.0705706
0.0706854
0.0707972
0.0709249
0.0709412
0.0710476
0.0711702
0.0711867
0.0877757
0.083159
0.0709231
0.0709037
0.0707587
0.0708187
0.0707272
0.0706797
0.0708755
0.0708336
0.0803909
0.0818721
0.0706755
0.0708198
0.0706909
0.0708901
0.0710328
0.0710189
0.073451
0.0788636
0.0813442
0.0700476
0.0700416
0.0705022
0.0704324
0.0855372
0.081755
0.0818253
0.0816919
0.0723733
0.0696391
0.0699582
0.0698598
0.0701024
0.070123
0.0702882
0.0703525
0.0704616
0.0705237
0.0705928
0.0706377
0.0706763
0.0706998
0.0707122
0.0727891
0.069663
0.0699538
0.0698785
0.0700864
0.0701215
0.070273
0.0703433
0.0704481
0.0705123
0.07058
0.0706256
0.0706638
0.0706874
0.0706998
0.0739405
0.0693621
0.0698506
0.0697631
0.0700093
0.0700656
0.0702231
0.0703073
0.0704121
0.0704831
0.070551
0.0706
0.0706386
0.0706639
0.0706765
0.0695494
0.0697217
0.0697936
0.0699372
0.0700512
0.0701766
0.0702774
0.0703727
0.0704479
0.0705127
0.0705628
0.0705999
0.0706256
0.0706378
0.0779112
0.0698586
0.0698428
0.0699273
0.0700304
0.0701269
0.0702304
0.070316
0.0703953
0.0704585
0.0705126
0.0705509
0.07058
0.0705929
0.0725445
0.0698511
0.0698167
0.0698576
0.0699824
0.0700658
0.070174
0.070256
0.0703342
0.070395
0.0704476
0.0704828
0.0705121
0.0705238
0.0802669
0.0699787
0.0698075
0.0699817
0.0700126
0.0701141
0.0701788
0.0702559
0.0703156
0.0703723
0.0704117
0.0704478
0.0704616
0.072886
0.0700322
0.069759
0.0699342
0.0699672
0.0700463
0.0701136
0.0701735
0.0702296
0.0702767
0.0703066
0.0703429
0.0703523
0.0783598
0.0700047
0.0699398
0.0699729
0.0699673
0.070012
0.0700651
0.0701259
0.0701756
0.0702221
0.0702724
0.0702879
0.075155
0.0698592
0.0699075
0.0699387
0.0699343
0.0699803
0.0699812
0.0700289
0.0700498
0.0700642
0.0701205
0.0701225
0.0898245
0.0698336
0.0700027
0.0697571
0.0698056
0.0698557
0.0699254
0.0699353
0.0700078
0.0700852
0.0701017
0.0876655
0.08228
0.0700309
0.0699761
0.0698144
0.0698404
0.0697915
0.0697613
0.0698771
0.069859
0.0796239
0.0810142
0.0698485
0.0698562
0.0697194
0.0698488
0.0699524
0.0699574
0.0728549
0.0780393
0.0803618
0.0695473
0.0693603
0.0696615
0.0696381
0.0852
0.0812265
0.081197
0.0807811
0.0714263
0.0687488
0.0688884
0.0688611
0.0690176
0.0690482
0.0691732
0.0692315
0.0693221
0.0693781
0.0694389
0.0694801
0.0695152
0.069537
0.0695483
0.0718255
0.0687694
0.0688756
0.068868
0.0690034
0.0690443
0.0691604
0.0692229
0.0693103
0.0693678
0.0694275
0.069469
0.0695038
0.0695255
0.0695369
0.0730904
0.0685666
0.0688319
0.0687951
0.0689582
0.0690072
0.0691257
0.0691954
0.0692819
0.0693432
0.0694025
0.0694461
0.0694809
0.0695038
0.0695152
0.0687553
0.0687203
0.0688197
0.0689072
0.0689943
0.0690896
0.06917
0.0692487
0.0693124
0.0693687
0.0694127
0.069446
0.069469
0.0694801
0.0771622
0.0688671
0.0688367
0.0689087
0.0689796
0.069055
0.069134
0.0692039
0.0692687
0.0693227
0.0693687
0.0694024
0.0694275
0.069439
0.0717088
0.0689274
0.0688267
0.068875
0.0689519
0.0690128
0.0690928
0.0691564
0.0692183
0.0692686
0.0693123
0.069343
0.0693677
0.0693782
0.079386
0.0689785
0.0688376
0.0689596
0.0689791
0.0690501
0.0690981
0.0691563
0.0692036
0.0692484
0.0692815
0.0693101
0.0693221
0.0720077
0.0690565
0.0688048
0.0689376
0.0689463
0.0690072
0.0690498
0.0690924
0.0691334
0.0691695
0.0691948
0.0692225
0.0692313
0.0773547
0.0689494
0.0689109
0.0689594
0.0689464
0.0689786
0.0690122
0.0690542
0.0690888
0.0691249
0.0691598
0.0691729
0.0741605
0.0689575
0.0688242
0.0689133
0.0689385
0.0689588
0.068951
0.0689784
0.0689932
0.0690062
0.0690435
0.0690477
0.089076
0.0690461
0.0689645
0.0688055
0.0688366
0.0688735
0.0689072
0.0689057
0.068957
0.0690025
0.0690169
0.0870788
0.0814167
0.0690564
0.068977
0.0688249
0.0688349
0.068818
0.0687937
0.0688668
0.0688604
0.0787612
0.080072
0.0689253
0.0688652
0.0687183
0.0688304
0.0688744
0.0688876
0.0719769
0.0770784
0.0794043
0.0687536
0.0685651
0.0687681
0.0687478
0.0845355
0.0804977
0.0803687
0.0798329
0.0704508
0.0677972
0.0678228
0.0678423
0.0679359
0.0679754
0.0680672
0.0681207
0.0681939
0.0682441
0.0682962
0.0683332
0.0683644
0.0683844
0.0683945
0.0708464
0.0678115
0.067807
0.0678443
0.067924
0.067971
0.0680568
0.0681132
0.0681841
0.0682351
0.0682862
0.0683234
0.068354
0.0683737
0.0683839
0.0721727
0.0676762
0.0677984
0.0677963
0.0678992
0.0679455
0.068033
0.0680923
0.0681619
0.0682147
0.0682651
0.0683033
0.0683338
0.0683541
0.0683642
0.0678514
0.0677146
0.0678163
0.0678645
0.0679355
0.0680061
0.0680716
0.068135
0.0681886
0.0682362
0.0682742
0.0683033
0.0683234
0.0683332
0.0763075
0.0678471
0.067814
0.0678708
0.0679228
0.0679816
0.0680434
0.0680996
0.0681526
0.0681975
0.0682362
0.068265
0.0682862
0.0682962
0.0707956
0.0679499
0.0678088
0.067859
0.067906
0.0679521
0.0680127
0.0680623
0.0681117
0.0681525
0.0681885
0.0682145
0.068235
0.0682441
0.078443
0.0679429
0.06782
0.0679149
0.0679266
0.06798
0.0680171
0.0680622
0.0680994
0.0681347
0.0681616
0.0681839
0.0681939
0.0710488
0.0680394
0.0677988
0.0678967
0.0679004
0.067949
0.0679797
0.0680123
0.0680429
0.0680711
0.0680917
0.0681129
0.0681205
0.0763577
0.0679039
0.067881
0.0679065
0.0679
0.067926
0.0679516
0.0679809
0.0680054
0.0680324
0.0680564
0.0680668
0.0731769
0.0680205
0.0677509
0.0678796
0.0678964
0.0679138
0.0679052
0.0679219
0.0679346
0.0679447
0.0679704
0.067975
0.088633
0.0680351
0.0679022
0.067796
0.0678185
0.0678576
0.0678697
0.0678634
0.0678982
0.0679233
0.0679354
0.0863033
0.0805226
0.0680376
0.0679412
0.0678073
0.0678125
0.067815
0.0677952
0.0678433
0.0678416
0.0778405
0.0790965
0.0679481
0.0678457
0.0677129
0.0677974
0.067806
0.067822
0.0710174
0.0760904
0.0784351
0.06785
0.0676749
0.0678103
0.0677962
0.0837139
0.0796526
0.0794532
0.0788681
0.0695056
0.0667876
0.0667562
0.0668051
0.0668575
0.066903
0.0669683
0.0670177
0.0670754
0.0671199
0.0671635
0.0671964
0.0672234
0.0672417
0.0672512
0.0699028
0.0667965
0.066742
0.0668052
0.0668482
0.0668991
0.0669604
0.0670114
0.0670674
0.0671123
0.0671549
0.0671877
0.0672141
0.0672317
0.0672408
0.0712673
0.066696
0.0667497
0.0667716
0.0668345
0.0668806
0.0669439
0.0669952
0.0670502
0.0670955
0.0671373
0.0671704
0.0671965
0.0672142
0.0672229
0.06685
0.0666818
0.0667885
0.0668109
0.0668728
0.0669241
0.0669787
0.0670287
0.0670739
0.0671131
0.0671457
0.0671705
0.0671879
0.0671962
0.0754476
0.0667948
0.0667685
0.0668168
0.0668597
0.0669058
0.0669558
0.0670006
0.0670442
0.067081
0.0671132
0.0671373
0.067155
0.0671634
0.0698763
0.0669127
0.0667643
0.0668156
0.0668479
0.0668845
0.0669321
0.0669712
0.0670112
0.0670441
0.0670738
0.0670954
0.0671122
0.0671198
0.07754
0.0668721
0.0667725
0.0668527
0.0668617
0.0669053
0.066935
0.0669712
0.0670004
0.0670285
0.0670499
0.0670673
0.0670752
0.0701031
0.0669751
0.0667609
0.066834
0.0668398
0.0668802
0.066905
0.0669319
0.0669554
0.0669783
0.0669948
0.0670112
0.0670174
0.0754366
0.0668477
0.0668352
0.0668342
0.0668394
0.0668612
0.0668841
0.0669052
0.0669236
0.0669434
0.06696
0.0669679
0.0722719
0.0670775
0.0666938
0.0668278
0.0668314
0.0668516
0.0668471
0.0668591
0.0668722
0.06688
0.0668986
0.0669026
0.0881007
0.0669029
0.0668186
0.0667546
0.0667705
0.0668144
0.066816
0.06681
0.0668337
0.0668476
0.0668568
0.0854382
0.0796804
0.0669715
0.0668703
0.066763
0.0667674
0.0667875
0.0667707
0.0668043
0.0668045
0.0769532
0.0781933
0.0669113
0.0667937
0.0666806
0.0667487
0.0667412
0.0667552
0.0700784
0.0751522
0.0775325
0.066849
0.0666948
0.0667955
0.0667866
0.0828575
0.0788319
0.0785613
0.077961
0.0784195
0.0660885
0.0778806
0.0667033
0.0774987
0.0684092
0.0689656
0.0768958
0.0657011
0.0678618
0.0675733
0.0702979
0.079297
0.0821591
0.0704446
0.0785777
0.067913
0.0789533
0.069228
0.0668165
0.0570429
0.0677106
0.068767
0.0611554
0.0802527
0.0702785
0.0767461
0.0696673
0.068368
0.0684231
0.0570133
0.0662715
0.0618994
0.0762443
0.0680785
0.0775016
0.0771781
0.0598389
0.0615856
0.0768121
0.0616579
0.0598817
0.0771885
0.0775082
0.0680908
0.06191
0.0762506
0.0662808
0.0570238
0.0684453
0.0683676
0.0697189
0.0702713
0.0611202
0.0802924
0.0688441
0.0768732
0.0679351
0.0588206
0.0670965
0.0693654
0.0807696
0.0680879
0.0704711
0.0802985
0.0822844
0.0809864
0.0727293
0.0700102
0.0700132
0.0676535
0.0771145
0.069069
0.0686425
0.0791891
0.06693
0.0663145
0.0795533
0.0800763
0.0999784
0.0883439
0.0994595
0.0794129
0.0687374
0.079093
0.0692947
0.0980098
0.0973587
0.078869
0.0709355
0.0712878
0.090143
0.0996325
0.0785258
0.0681445
0.0975128
0.0975002
0.0703009
0.0703593
0.0951797
0.0872027
0.0726931
0.0801657
0.0964906
0.0881287
0.0987505
0.0821393
0.0720295
0.0796268
0.0701147
0.0978882
0.0991096
0.0797494
0.0711969
0.0699552
0.109258
0.0998003
0.0602658
0.0681933
0.104196
0.0879945
0.096807
0.0708209
0.0645221
0.0805659
0.0716226
0.0912453
0.0765766
0.098168
0.097966
0.0699261
0.0707596
0.0712453
0.110578
0.0586124
0.103244
0.0921873
0.0987168
0.0686452
0.0653005
0.0760144
0.0700994
0.0900353
0.10732
0.0774841
0.0785098
0.0605253
0.0901425
0.105731
0.0622204
0.078342
0.0622834
0.0900259
0.0904236
0.0605642
0.0785239
0.0774926
0.103243
0.0921902
0.100699
0.0701111
0.065314
0.0760237
0.0686571
0.110583
0.0586204
0.0981683
0.0982554
0.071257
0.0707636
0.0699302
0.104162
0.0880049
0.0980502
0.0716383
0.0645228
0.0805784
0.0708242
0.0912797
0.0765827
0.108941
0.0681871
0.0602146
0.097811
0.0883562
0.0699072
0.0711774
0.0798089
0.0964642
0.0883922
0.0861816
0.0701026
0.0720354
0.0796624
0.0821009
0.0953515
0.0802071
0.0726681
0.0976321
0.0703159
0.0702672
0.0901477
0.0681402
0.0785094
0.0979305
0.0889054
0.0712591
0.0709213
0.0788895
0.0999
0.0886456
0.0882863
0.0692816
0.0687179
0.0791197
0.07945
0.0973123
0.0873471
0.096849
0.07823
0.0683065
0.0779098
0.0688046
0.0954228
0.0947889
0.0776764
0.0703509
0.0705857
0.0879888
0.0982231
0.0775529
0.0669309
0.0962581
0.0962088
0.0689843
0.0690821
0.0939112
0.0863118
0.0713647
0.07886
0.0941198
0.0869501
0.0964538
0.0807386
0.0712482
0.0783207
0.0695173
0.0952848
0.0969135
0.0784464
0.0704001
0.0692286
0.107734
0.098451
0.0588961
0.0669003
0.101622
0.0859921
0.0944566
0.069824
0.0639723
0.0793064
0.0708277
0.0900888
0.0752269
0.0957582
0.0958417
0.068598
0.0699929
0.0703548
0.109224
0.0573554
0.100593
0.0908119
0.0962222
0.0677686
0.0647098
0.0747052
0.0693182
0.0880443
0.106104
0.0762359
0.0775367
0.0591797
0.0881572
0.104505
0.0608581
0.0773774
0.0609218
0.088036
0.0893053
0.0592176
0.07755
0.0762427
0.100593
0.0908151
0.0982238
0.0693295