/*--------------------------------*- C++ -*----------------------------------*\
| =========                 |                                                 |
| \\      /  F ield         | OpenFOAM: The Open Source CFD Toolbox           |
|  \\    /   O peration     | Version:  2.1.1                                 |
|   \\  /    A nd           | Web:      www.OpenFOAM.org                      |
|    \\/     M anipulation  |                                                 |
\*---------------------------------------------------------------------------*/
FoamFile
{
    version     2.0;
    format      ascii;
    class       volScalarField;
    location    "0.001";
    object      Th;
}
// * * * * * * * * * * * * * * * * * * * * * * * * * * * * * * * * * * * * * //

dimensions      [0 0 0 0 0 0 0];

internalField   nonuniform List<scalar> 
10260
(
1.395e-13
1.0003e-14
1e-14
1.00001e-14
1.00001e-14
1.00001e-14
1.00001e-14
1.00001e-14
1.00001e-14
1e-14
1e-14
1e-14
1.00001e-14
1.00002e-14
1.00002e-14
1.57005e-13
1.00103e-14
1e-14
1e-14
1e-14
1e-14
1e-14
1e-14
1e-14
1e-14
1e-14
1e-14
1e-14
1e-14
1e-14
1e-14
1e-14
1e-14
1e-14
1e-14
1e-14
1e-14
1e-14
1e-14
1e-14
1e-14
1e-14
1e-14
1.00001e-14
1.00591e-14
1e-14
1e-14
1e-14
1e-14
1e-14
1e-14
1e-14
1e-14
1e-14
1e-14
1e-14
1e-14
1.00001e-14
1.01106e-14
1.00001e-14
1e-14
1e-14
1e-14
1e-14
1e-14
1e-14
1e-14
1e-14
1e-14
1e-14
1e-14
1e-14
9.78184e-14
1.00198e-14
1e-14
1e-14
1e-14
1e-14
1e-14
1e-14
1e-14
1e-14
1e-14
1e-14
1e-14
1e-14
1.00583e-14
1.00001e-14
1e-14
1e-14
1e-14
1e-14
1e-14
1e-14
1e-14
1e-14
1e-14
1e-14
1.00001e-14
1e-14
1.00141e-14
1e-14
1e-14
1e-14
1e-14
1e-14
1e-14
1e-14
1e-14
1e-14
1e-14
1e-14
1.02499e-14
1e-14
1e-14
1e-14
1e-14
1e-14
1e-14
1e-14
1e-14
1e-14
1e-14
1e-14
2.94061e-13
1.00204e-14
1e-14
1e-14
1e-14
1e-14
1e-14
1e-14
1e-14
1e-14
1e-14
1e-14
2.75431e-13
1.002e-14
1e-14
1e-14
1e-14
1e-14
1e-14
1e-14
1e-14
1e-14
1e-14
2.71919e-13
1.01166e-14
1.00142e-14
1.00001e-14
1e-14
1e-14
1e-14
1e-14
1e-14
1e-14
1e-14
1e-14
1.00201e-14
1.00001e-14
1.00001e-14
1e-14
1e-14
1e-14
1.0492e-13
1e-14
1.00043e-14
1e-14
1e-14
1.00105e-14
1.00032e-14
3.56881e-13
1e-14
1e-14
1e-14
1.02323e-14
1.39835e-13
1.00028e-14
1e-14
1e-14
1.00001e-14
1e-14
1e-14
1.00001e-14
1.00001e-14
1e-14
1e-14
1e-14
1e-14
1.00001e-14
1.00001e-14
1.57502e-13
1.00093e-14
1e-14
1e-14
1e-14
1e-14
1e-14
1e-14
1e-14
1e-14
1e-14
1e-14
1e-14
1e-14
1e-14
1e-14
1e-14
1e-14
1e-14
1e-14
1e-14
1e-14
1e-14
1e-14
1e-14
1e-14
1e-14
1e-14
1e-14
1.00573e-14
1.00001e-14
1e-14
1e-14
1e-14
1e-14
1e-14
1e-14
1e-14
1e-14
1e-14
1e-14
1e-14
1e-14
1.01766e-14
1.00001e-14
1e-14
1e-14
1e-14
1e-14
1e-14
1e-14
1e-14
1e-14
1e-14
1e-14
1e-14
1e-14
9.80727e-14
1.00185e-14
1e-14
1e-14
1e-14
1e-14
1e-14
1e-14
1e-14
1e-14
1e-14
1e-14
1e-14
1e-14
1.00572e-14
1e-14
1e-14
1e-14
1e-14
1e-14
1e-14
1e-14
1e-14
1e-14
1e-14
1e-14
1e-14
1e-14
1.00132e-14
1e-14
1e-14
1e-14
1e-14
1e-14
1e-14
1e-14
1e-14
1e-14
1e-14
1e-14
1.02493e-14
1e-14
1e-14
1e-14
1e-14
1e-14
1e-14
1e-14
1e-14
1e-14
1e-14
1e-14
2.94216e-13
1.00177e-14
1e-14
1e-14
1e-14
1e-14
1e-14
1e-14
1e-14
1e-14
1e-14
1e-14
2.76747e-13
1.00175e-14
1e-14
1e-14
1e-14
1e-14
1e-14
1e-14
1e-14
1e-14
1e-14
2.73205e-13
1.01142e-14
1.00132e-14
1.00001e-14
1e-14
1e-14
1e-14
1e-14
1e-14
1e-14
1e-14
1e-14
1.00186e-14
1.00001e-14
1.00001e-14
1e-14
1e-14
1e-14
1.05469e-13
1e-14
1.00045e-14
1e-14
1e-14
1.00093e-14
1.00029e-14
3.56455e-13
1e-14
1e-14
1e-14
1.02357e-14
1.39879e-13
1.00028e-14
1e-14
1e-14
1e-14
1e-14
1e-14
1e-14
1e-14
1e-14
1e-14
1e-14
1e-14
1e-14
1.00001e-14
1.57551e-13
1.00091e-14
1e-14
1e-14
1e-14
1e-14
1e-14
1e-14
1e-14
1e-14
1e-14
1e-14
1e-14
1e-14
1e-14
1e-14
1e-14
1e-14
1e-14
1e-14
1e-14
1e-14
1e-14
1e-14
1e-14
1e-14
1e-14
1e-14
1e-14
1.00577e-14
1.00001e-14
1e-14
1e-14
1e-14
1e-14
1e-14
1e-14
1e-14
1e-14
1e-14
1e-14
1e-14
1e-14
1.01864e-14
1.00001e-14
1e-14
1e-14
1e-14
1e-14
1e-14
1e-14
1e-14
1e-14
1e-14
1e-14
1e-14
1e-14
9.80921e-14
1.00183e-14
1e-14
1e-14
1e-14
1e-14
1e-14
1e-14
1e-14
1e-14
1e-14
1e-14
1e-14
1e-14
1.00575e-14
1e-14
1e-14
1e-14
1e-14
1e-14
1e-14
1e-14
1e-14
1e-14
1e-14
1e-14
1e-14
1e-14
1.00131e-14
1e-14
1e-14
1e-14
1e-14
1e-14
1e-14
1e-14
1e-14
1e-14
1e-14
1e-14
1.02498e-14
1e-14
1e-14
1e-14
1e-14
1e-14
1e-14
1e-14
1e-14
1e-14
1e-14
1.00001e-14
2.94182e-13
1.00172e-14
1e-14
1e-14
1e-14
1e-14
1e-14
1e-14
1e-14
1e-14
1e-14
1.00001e-14
2.76779e-13
1.00173e-14
1e-14
1e-14
1e-14
1e-14
1e-14
1e-14
1e-14
1e-14
1e-14
2.73227e-13
1.01144e-14
1.00131e-14
1.00001e-14
1e-14
1e-14
1e-14
1e-14
1e-14
1e-14
1e-14
1e-14
1.00183e-14
1.00001e-14
1.00001e-14
1e-14
1e-14
1e-14
1.05454e-13
1e-14
1.00045e-14
1e-14
1e-14
1.00091e-14
1.00028e-14
3.5628e-13
1e-14
1e-14
1e-14
1.02379e-14
1.39876e-13
1.00029e-14
1e-14
1e-14
1e-14
1e-14
1e-14
1e-14
1.00001e-14
1e-14
1e-14
1e-14
1e-14
1e-14
1e-14
1.57544e-13
1.00092e-14
1e-14
1e-14
1e-14
1e-14
1e-14
1e-14
1e-14
1e-14
1e-14
1e-14
1e-14
1e-14
1e-14
1e-14
1e-14
1e-14
1e-14
1e-14
1e-14
1e-14
1e-14
1e-14
1e-14
1e-14
1e-14
1e-14
1e-14
1.00576e-14
1.00001e-14
1e-14
1e-14
1e-14
1e-14
1e-14
1e-14
1e-14
1e-14
1e-14
1e-14
1e-14
1e-14
1.01864e-14
1.00001e-14
1e-14
1e-14
1e-14
1e-14
1e-14
1e-14
1e-14
1e-14
1e-14
1e-14
1e-14
1e-14
9.81068e-14
1.00182e-14
1e-14
1e-14
1e-14
1e-14
1e-14
1e-14
1e-14
1e-14
1e-14
1e-14
1e-14
1e-14
1.00575e-14
1e-14
1e-14
1e-14
1e-14
1e-14
1e-14
1e-14
1e-14
1e-14
1e-14
1e-14
1e-14
1e-14
1.00131e-14
1e-14
1e-14
1e-14
1e-14
1e-14
1e-14
1e-14
1e-14
1e-14
1e-14
1e-14
1.02501e-14
1e-14
1e-14
1e-14
1e-14
1e-14
1e-14
1e-14
1e-14
1e-14
1e-14
1e-14
2.94184e-13
1.00172e-14
1e-14
1e-14
1e-14
1e-14
1e-14
1e-14
1e-14
1e-14
1e-14
1e-14
2.76761e-13
1.00173e-14
1e-14
1e-14
1e-14
1e-14
1e-14
1e-14
1e-14
1e-14
1e-14
2.73218e-13
1.01142e-14
1.00131e-14
1.00001e-14
1e-14
1e-14
1e-14
1e-14
1e-14
1e-14
1e-14
1e-14
1.00183e-14
1.00001e-14
1.00001e-14
1e-14
1e-14
1e-14
1.05409e-13
1e-14
1.00045e-14
1e-14
1e-14
1.00091e-14
1.00029e-14
3.56231e-13
1e-14
1e-14
1e-14
1.02383e-14
1.3982e-13
1.0003e-14
1e-14
1e-14
1e-14
1e-14
1e-14
1e-14
1e-14
1e-14
1e-14
1e-14
1e-14
1e-14
1.00001e-14
1.57472e-13
1.00096e-14
1e-14
1e-14
1e-14
1e-14
1e-14
1e-14
1e-14
1e-14
1e-14
1e-14
1e-14
1e-14
1e-14
1e-14
1e-14
1e-14
1e-14
1e-14
1e-14
1e-14
1e-14
1e-14
1e-14
1e-14
1e-14
1e-14
1e-14
1.00579e-14
1.00001e-14
1e-14
1e-14
1e-14
1e-14
1e-14
1e-14
1e-14
1e-14
1e-14
1e-14
1e-14
1e-14
1.01853e-14
1.00001e-14
1e-14
1e-14
1e-14
1e-14
1e-14
1e-14
1e-14
1e-14
1e-14
1e-14
1e-14
1e-14
9.81251e-14
1.00183e-14
1e-14
1e-14
1e-14
1e-14
1e-14
1e-14
1e-14
1e-14
1e-14
1e-14
1e-14
1e-14
1.00577e-14
1.00001e-14
1e-14
1e-14
1e-14
1e-14
1e-14
1e-14
1e-14
1e-14
1e-14
1e-14
1e-14
1e-14
1.00131e-14
1e-14
1e-14
1e-14
1e-14
1e-14
1e-14
1e-14
1e-14
1e-14
1e-14
1e-14
1.02498e-14
1e-14
1e-14
1e-14
1e-14
1e-14
1e-14
1e-14
1e-14
1e-14
1e-14
1e-14
2.94175e-13
1.00172e-14
1e-14
1e-14
1e-14
1e-14
1e-14
1e-14
1e-14
1e-14
1e-14
1e-14
2.76744e-13
1.00174e-14
1e-14
1e-14
1e-14
1e-14
1e-14
1e-14
1e-14
1e-14
1e-14
2.73206e-13
1.0114e-14
1.00131e-14
1.00001e-14
1e-14
1e-14
1e-14
1e-14
1e-14
1e-14
1e-14
1e-14
1.00183e-14
1.00001e-14
1.00001e-14
1e-14
1e-14
1e-14
1.05309e-13
1e-14
1.00044e-14
1e-14
1e-14
1.00096e-14
1.0003e-14
3.56151e-13
1e-14
1e-14
1e-14
1.02393e-14
1.39629e-13
1.00028e-14
1e-14
1e-14
1e-14
1e-14
1e-14
1e-14
1e-14
1e-14
1e-14
1e-14
1e-14
1e-14
1e-14
1.57211e-13
1.0011e-14
1e-14
1e-14
1e-14
1e-14
1e-14
1e-14
1e-14
1e-14
1e-14
1e-14
1e-14
1e-14
1e-14
1e-14
1e-14
1e-14
1e-14
1e-14
1e-14
1e-14
1e-14
1e-14
1e-14
1e-14
1e-14
1e-14
1e-14
1.00602e-14
1.00001e-14
1e-14
1e-14
1e-14
1e-14
1e-14
1e-14
1e-14
1e-14
1e-14
1e-14
1e-14
1e-14
1.01864e-14
1.00001e-14
1e-14
1e-14
1e-14
1e-14
1e-14
1e-14
1e-14
1e-14
1e-14
1e-14
1e-14
1.00001e-14
9.81476e-14
1.00186e-14
1e-14
1e-14
1e-14
1e-14
1e-14
1e-14
1e-14
1e-14
1e-14
1e-14
1e-14
1.00001e-14
1.0058e-14
1e-14
1e-14
1e-14
1e-14
1e-14
1e-14
1e-14
1e-14
1e-14
1e-14
1e-14
1e-14
1e-14
1.00144e-14
1e-14
1e-14
1e-14
1e-14
1e-14
1e-14
1e-14
1e-14
1e-14
1e-14
1e-14
1.02488e-14
1e-14
1e-14
1e-14
1e-14
1e-14
1e-14
1e-14
1e-14
1e-14
1e-14
1e-14
2.94102e-13
1.00173e-14
1e-14
1e-14
1e-14
1e-14
1e-14
1e-14
1e-14
1e-14
1e-14
1e-14
2.76674e-13
1.00176e-14
1e-14
1e-14
1e-14
1e-14
1e-14
1e-14
1e-14
1e-14
1e-14
2.73133e-13
1.01137e-14
1.00144e-14
1e-14
1e-14
1e-14
1e-14
1e-14
1e-14
1e-14
1e-14
1e-14
1.00186e-14
1.00001e-14
1.00001e-14
1e-14
1e-14
1e-14
1.05027e-13
1e-14
1.00044e-14
1e-14
1e-14
1.00111e-14
1.00028e-14
3.55887e-13
1e-14
1e-14
1e-14
1.02401e-14
1.38379e-13
1.00072e-14
1e-14
1e-14
1e-14
1e-14
1e-14
1e-14
1e-14
1e-14
1e-14
1e-14
1e-14
1e-14
1e-14
1.55964e-13
1.00176e-14
1e-14
1e-14
1e-14
1e-14
1e-14
1e-14
1e-14
1e-14
1e-14
1e-14
1e-14
1e-14
1e-14
1e-14
1e-14
1e-14
1e-14
1e-14
1e-14
1e-14
1e-14
1e-14
1e-14
1e-14
1e-14
1e-14
1e-14
1.00555e-14
1.00001e-14
1e-14
1e-14
1e-14
1e-14
1e-14
1e-14
1e-14
1e-14
1e-14
1e-14
1e-14
1e-14
1.01628e-14
1.00002e-14
1e-14
1e-14
1e-14
1e-14
1e-14
1e-14
1e-14
1e-14
1e-14
1e-14
1e-14
1e-14
9.80132e-14
1.00181e-14
1e-14
1e-14
1e-14
1e-14
1e-14
1e-14
1e-14
1e-14
1e-14
1e-14
1e-14
1e-14
1.00631e-14
1e-14
1e-14
1e-14
1e-14
1e-14
1e-14
1e-14
1e-14
1e-14
1e-14
1e-14
1e-14
1e-14
1.0012e-14
1e-14
1e-14
1e-14
1e-14
1e-14
1e-14
1e-14
1e-14
1e-14
1e-14
1e-14
1.03306e-14
1e-14
1e-14
1e-14
1e-14
1e-14
1e-14
1e-14
1e-14
1e-14
1e-14
1e-14
2.93646e-13
1.0018e-14
1e-14
1e-14
1e-14
1e-14
1e-14
1e-14
1e-14
1e-14
1e-14
1.00001e-14
2.76551e-13
1.00186e-14
1e-14
1e-14
1e-14
1e-14
1e-14
1e-14
1e-14
1e-14
1e-14
2.72919e-13
1.01146e-14
1.0012e-14
1e-14
1e-14
1e-14
1e-14
1e-14
1e-14
1e-14
1e-14
1e-14
1.00181e-14
1.00002e-14
1.00001e-14
1e-14
1e-14
1e-14
1.03486e-13
1e-14
1.00035e-14
1e-14
1e-14
1.00176e-14
1.00073e-14
3.55935e-13
1e-14
1e-14
1e-14
1.01826e-14
1.30907e-14
1.00008e-14
1e-14
1e-14
1e-14
1e-14
1e-14
1e-14
1e-14
1e-14
1e-14
1e-14
1e-14
1e-14
1e-14
1.22225e-14
1.00011e-14
1e-14
1e-14
1e-14
1e-14
1e-14
1e-14
1e-14
1e-14
1e-14
1e-14
1e-14
1e-14
1e-14
1e-14
1e-14
1e-14
1e-14
1e-14
1e-14
1e-14
1e-14
1e-14
1e-14
1e-14
1e-14
1e-14
1e-14
1.00108e-14
1e-14
1e-14
1e-14
1e-14
1e-14
1e-14
1e-14
1e-14
1e-14
1e-14
1e-14
1e-14
1e-14
1.00713e-14
1e-14
1e-14
1e-14
1e-14
1e-14
1e-14
1e-14
1e-14
1e-14
1e-14
1e-14
1e-14
1e-14
1.24545e-14
1.00007e-14
1e-14
1e-14
1e-14
1e-14
1e-14
1e-14
1e-14
1e-14
1e-14
1e-14
1e-14
1e-14
1.00069e-14
1e-14
1e-14
1e-14
1e-14
1e-14
1e-14
1e-14
1e-14
1e-14
1e-14
1e-14
1e-14
1.08531e-14
1.00008e-14
1e-14
1e-14
1e-14
1e-14
1e-14
1e-14
1e-14
1e-14
1e-14
1e-14
1e-14
1.00377e-14
1e-14
1e-14
1e-14
1e-14
1e-14
1e-14
1e-14
1e-14
1e-14
1e-14
1e-14
1e-14
1e-14
1e-14
1e-14
1e-14
1e-14
1e-14
1e-14
1e-14
1e-14
1e-14
1e-14
1e-14
1e-14
1e-14
1e-14
1e-14
1e-14
1e-14
1e-14
1e-14
1e-14
1e-14
1e-14
1e-14
1.00008e-14
1e-14
1e-14
1e-14
1e-14
1e-14
1e-14
1e-14
1.00314e-14
1e-14
1.00007e-14
1e-14
1e-14
1e-14
1e-14
1e-14
1e-14
1.00713e-14
1e-14
1.00001e-14
1e-14
1.00011e-14
1.00008e-14
1e-14
1.33321e-14
1.01129e-14
1.006e-14
1e-14
1.00046e-14
1.00001e-14
1e-14
1e-14
1e-14
1e-14
1e-14
1e-14
1e-14
1e-14
1e-14
1e-14
1e-14
1e-14
1.00001e-14
1.00016e-14
1.00001e-14
1e-14
1e-14
1e-14
1e-14
1e-14
1e-14
1e-14
1e-14
1e-14
1e-14
1e-14
1e-14
1e-14
1e-14
1e-14
1e-14
1e-14
1e-14
1e-14
1e-14
1e-14
1e-14
1e-14
1e-14
1e-14
1e-14
1e-14
1e-14
1e-14
1e-14
1e-14
1e-14
1e-14
1e-14
1e-14
1e-14
1e-14
1e-14
1e-14
1e-14
1e-14
1e-14
1.00001e-14
1e-14
1e-14
1e-14
1e-14
1e-14
1e-14
1e-14
1e-14
1e-14
1e-14
1e-14
1e-14
1e-14
1.00019e-14
1e-14
1e-14
1e-14
1e-14
1e-14
1e-14
1e-14
1e-14
1e-14
1e-14
1e-14
1e-14
1e-14
1e-14
1e-14
1e-14
1e-14
1e-14
1e-14
1e-14
1e-14
1e-14
1e-14
1e-14
1e-14
1e-14
1.00002e-14
1.00001e-14
1e-14
1e-14
1e-14
1e-14
1e-14
1e-14
1e-14
1e-14
1e-14
1e-14
1e-14
1.00001e-14
1e-14
1e-14
1e-14
1e-14
1e-14
1e-14
1e-14
1e-14
1e-14
1e-14
1e-14
1e-14
1e-14
1e-14
1e-14
1e-14
1e-14
1e-14
1e-14
1e-14
1e-14
1e-14
1e-14
1e-14
1e-14
1e-14
1e-14
1e-14
1e-14
1e-14
1e-14
1e-14
1e-14
1e-14
1e-14
1e-14
1.00001e-14
1e-14
1e-14
1e-14
1e-14
1e-14
1e-14
1e-14
1.00001e-14
1e-14
1.00001e-14
1e-14
1e-14
1e-14
1e-14
1e-14
1e-14
1.00001e-14
1e-14
1e-14
1e-14
1.00001e-14
1.00001e-14
1.00024e-14
1.00001e-14
1.00002e-14
1e-14
1.00001e-14
1e-14
1e-14
1e-14
1e-14
1e-14
1e-14
1e-14
1e-14
1e-14
1e-14
1e-14
1e-14
1e-14
1.00001e-14
1e-14
1e-14
1e-14
1e-14
1e-14
1e-14
1e-14
1e-14
1e-14
1e-14
1e-14
1e-14
1e-14
1e-14
1e-14
1e-14
1e-14
1e-14
1e-14
1e-14
1e-14
1e-14
1e-14
1e-14
1e-14
1e-14
1e-14
1e-14
1e-14
1e-14
1e-14
1e-14
1e-14
1e-14
1e-14
1e-14
1e-14
1e-14
1e-14
1e-14
1e-14
1e-14
1e-14
1e-14
1e-14
1e-14
1e-14
1e-14
1e-14
1e-14
1e-14
1e-14
1e-14
1e-14
1e-14
1e-14
1e-14
1e-14
1e-14
1e-14
1e-14
1e-14
1e-14
1e-14
1e-14
1e-14
1e-14
1e-14
1e-14
1e-14
1e-14
1e-14
1e-14
1e-14
1e-14
1e-14
1e-14
1e-14
1e-14
1e-14
1e-14
1e-14
1e-14
1e-14
1e-14
1e-14
1e-14
1e-14
1e-14
1e-14
1e-14
1e-14
1e-14
1e-14
1e-14
1e-14
1e-14
1e-14
1e-14
1e-14
1e-14
1e-14
1e-14
1e-14
1e-14
1e-14
1e-14
1e-14
1e-14
1e-14
1e-14
1e-14
1e-14
1e-14
1e-14
1e-14
1e-14
1e-14
1e-14
1e-14
1e-14
1e-14
1e-14
1e-14
1e-14
1e-14
1e-14
1e-14
1e-14
1e-14
1e-14
1e-14
1e-14
1e-14
1e-14
1e-14
1e-14
1e-14
1e-14
1e-14
1e-14
1e-14
1e-14
1e-14
1e-14
1e-14
1e-14
1e-14
1e-14
1e-14
1e-14
1e-14
1e-14
1e-14
1e-14
1e-14
1e-14
1e-14
1e-14
1e-14
1e-14
1e-14
1.00001e-14
1e-14
1e-14
1e-14
1e-14
1e-14
1e-14
1e-14
1e-14
1e-14
1e-14
1e-14
1e-14
1e-14
1e-14
1e-14
1e-14
1e-14
1e-14
1e-14
1e-14
1e-14
1e-14
1e-14
1e-14
1e-14
1e-14
1e-14
1e-14
1e-14
1e-14
1e-14
1e-14
1e-14
1e-14
1e-14
1e-14
1e-14
1e-14
1e-14
1e-14
1e-14
1e-14
1e-14
1e-14
1e-14
1e-14
1e-14
1e-14
1e-14
1e-14
1e-14
1e-14
1e-14
1e-14
1e-14
1e-14
1e-14
1e-14
1e-14
1e-14
1e-14
1e-14
1e-14
1e-14
1e-14
1e-14
1e-14
1e-14
1e-14
1e-14
1e-14
1e-14
1e-14
1e-14
1e-14
1e-14
1e-14
1e-14
1e-14
1e-14
1e-14
1e-14
1e-14
1e-14
1e-14
1e-14
1e-14
1e-14
1e-14
1e-14
1e-14
1e-14
1e-14
1e-14
1e-14
1e-14
1e-14
1e-14
1e-14
1e-14
1e-14
1e-14
1e-14
1e-14
1e-14
1e-14
1e-14
1e-14
1e-14
1e-14
1e-14
1e-14
1e-14
1e-14
1e-14
1e-14
1e-14
1e-14
1e-14
1e-14
1e-14
1e-14
1e-14
1e-14
1e-14
1e-14
1e-14
1e-14
1e-14
1e-14
1e-14
1e-14
1e-14
1e-14
1e-14
1e-14
1e-14
1e-14
1e-14
1e-14
1e-14
1e-14
1e-14
1e-14
1e-14
1e-14
1e-14
1e-14
1e-14
1e-14
1e-14
1e-14
1e-14
1e-14
1e-14
1e-14
1e-14
1e-14
1e-14
1e-14
1e-14
1e-14
1e-14
1e-14
1e-14
1e-14
1e-14
1e-14
1e-14
1e-14
1e-14
1e-14
1e-14
1e-14
1e-14
1e-14
1e-14
1e-14
1e-14
1e-14
1e-14
1e-14
1e-14
1e-14
1e-14
1e-14
1e-14
1e-14
1.00001e-14
1.00001e-14
1.00001e-14
1e-14
1e-14
1e-14
1e-14
1e-14
1e-14
1e-14
1e-14
1e-14
1e-14
1e-14
1e-14
1e-14
1e-14
1.00001e-14
1e-14
1e-14
1e-14
1e-14
1e-14
1e-14
1e-14
1e-14
1e-14
1e-14
1e-14
1e-14
1e-14
1e-14
1e-14
1e-14
1e-14
1e-14
1e-14
1e-14
1e-14
1e-14
1e-14
1e-14
1e-14
1e-14
1e-14
1e-14
1e-14
1e-14
1e-14
1e-14
1e-14
1e-14
1e-14
1e-14
1e-14
1e-14
1e-14
1e-14
1e-14
1e-14
1e-14
1e-14
1e-14
1e-14
1e-14
1e-14
1e-14
1e-14
1e-14
1e-14
1e-14
1e-14
1e-14
1e-14
1e-14
1e-14
1e-14
1e-14
1e-14
1e-14
1e-14
1e-14
1e-14
1e-14
1e-14
1e-14
1e-14
1e-14
1e-14
1e-14
1e-14
1e-14
1e-14
1e-14
1e-14
1e-14
1e-14
1e-14
1e-14
1e-14
1e-14
1e-14
1e-14
1e-14
1e-14
1e-14
1e-14
1e-14
1e-14
1e-14
1e-14
1e-14
1e-14
1e-14
1e-14
1e-14
1e-14
1e-14
1e-14
1e-14
1e-14
1e-14
1e-14
1e-14
1e-14
1e-14
1e-14
1e-14
1e-14
1e-14
1e-14
1e-14
1e-14
1e-14
1e-14
1e-14
1e-14
1e-14
1e-14
1e-14
1e-14
1e-14
1e-14
1e-14
1e-14
1e-14
1e-14
1e-14
1e-14
1e-14
1e-14
1e-14
1e-14
1e-14
1e-14
1e-14
1e-14
1e-14
1e-14
1e-14
1e-14
1e-14
1e-14
1e-14
1e-14
1e-14
1e-14
1e-14
1e-14
1e-14
1e-14
1e-14
1e-14
1e-14
1e-14
1.00001e-14
1e-14
1e-14
1e-14
1.00002e-14
1e-14
1e-14
1e-14
1e-14
1e-14
1e-14
1e-14
1e-14
1e-14
1e-14
1e-14
1e-14
1e-14
1e-14
1e-14
1e-14
1e-14
1e-14
1e-14
1e-14
1e-14
1e-14
1e-14
1e-14
1e-14
1e-14
1e-14
1e-14
1e-14
1e-14
1e-14
1e-14
1e-14
1e-14
1e-14
1e-14
1e-14
1e-14
1e-14
1e-14
1e-14
1e-14
1e-14
1e-14
1e-14
1e-14
1e-14
1e-14
1e-14
1e-14
1e-14
1e-14
1e-14
1e-14
1e-14
1e-14
1e-14
1e-14
1e-14
1e-14
1e-14
1e-14
1e-14
1e-14
1e-14
1e-14
1e-14
1e-14
1e-14
1e-14
1e-14
1e-14
1e-14
1e-14
1e-14
1e-14
1e-14
1e-14
1e-14
1e-14
1e-14
1e-14
1e-14
1e-14
1e-14
1e-14
1e-14
1e-14
1e-14
1e-14
1e-14
1e-14
1e-14
1e-14
1e-14
1e-14
1e-14
1e-14
1e-14
1e-14
1e-14
1e-14
1e-14
1e-14
1e-14
1e-14
1e-14
1e-14
1e-14
1e-14
1e-14
1e-14
1e-14
1e-14
1e-14
1e-14
1e-14
1e-14
1e-14
1e-14
1e-14
1.00001e-14
1e-14
1e-14
1e-14
1e-14
1e-14
1e-14
1e-14
1e-14
1e-14
1e-14
1.00001e-14
1e-14
1e-14
1e-14
1e-14
1e-14
1e-14
1e-14
1e-14
1e-14
1e-14
1e-14
1e-14
1e-14
1e-14
1e-14
1e-14
1e-14
1e-14
1e-14
1e-14
1e-14
1e-14
1e-14
1e-14
1e-14
1e-14
1e-14
1e-14
1e-14
1e-14
1e-14
1.00001e-14
1e-14
1e-14
1e-14
1e-14
1e-14
1e-14
1e-14
1e-14
1e-14
1e-14
1e-14
1.00002e-14
1e-14
1e-14
1e-14
1e-14
1e-14
1e-14
1e-14
1e-14
1e-14
1e-14
1e-14
1e-14
1e-14
1e-14
1e-14
1e-14
1e-14
1e-14
1e-14
1e-14
1e-14
1e-14
1e-14
1e-14
1e-14
1e-14
1e-14
1e-14
1e-14
1e-14
1e-14
1e-14
1e-14
1e-14
1e-14
1e-14
1e-14
1e-14
1e-14
1e-14
1e-14
1e-14
1e-14
1e-14
1e-14
1e-14
1e-14
1e-14
1e-14
1e-14
1e-14
1e-14
1e-14
1e-14
1e-14
1e-14
1e-14
1e-14
1e-14
1e-14
1e-14
1e-14
1e-14
1e-14
1e-14
1e-14
1e-14
1e-14
1e-14
1e-14
1e-14
1e-14
1e-14
1e-14
1e-14
1e-14
1e-14
1e-14
1e-14
1e-14
1e-14
1e-14
1e-14
1e-14
1e-14
1e-14
1e-14
1e-14
1e-14
1e-14
1e-14
1e-14
1e-14
1e-14
1e-14
1e-14
1e-14
1e-14
1e-14
1e-14
1e-14
1e-14
1e-14
1e-14
1e-14
1e-14
1e-14
1e-14
1e-14
1e-14
1e-14
1e-14
1e-14
1e-14
1e-14
1e-14
1e-14
1e-14
1e-14
1e-14
1e-14
1e-14
1.00001e-14
1e-14
1e-14
1e-14
1e-14
1e-14
1e-14
1e-14
1e-14
1e-14
1e-14
1e-14
1e-14
1e-14
1e-14
1e-14
1e-14
1e-14
1e-14
1e-14
1e-14
1e-14
1e-14
1e-14
1e-14
1e-14
1e-14
1e-14
1e-14
1e-14
1e-14
1e-14
1e-14
1e-14
1e-14
1e-14
1e-14
1e-14
1e-14
1e-14
1.00001e-14
1e-14
1e-14
1e-14
1e-14
1e-14
1e-14
1e-14
1e-14
1e-14
1e-14
1e-14
1e-14
1e-14
1.00001e-14
1e-14
1e-14
1e-14
1e-14
1e-14
1e-14
1e-14
1e-14
1e-14
1e-14
1e-14
1e-14
1e-14
1e-14
1e-14
1e-14
1e-14
1e-14
1e-14
1e-14
1e-14
1e-14
1e-14
1e-14
1e-14
1e-14
1e-14
1e-14
1e-14
1e-14
1e-14
1e-14
1e-14
1e-14
1e-14
1e-14
1e-14
1e-14
1e-14
1e-14
1e-14
1e-14
1e-14
1e-14
1e-14
1e-14
1e-14
1e-14
1e-14
1e-14
1e-14
1e-14
1e-14
1e-14
1e-14
1e-14
1e-14
1e-14
1e-14
1e-14
1e-14
1e-14
1e-14
1e-14
1e-14
1e-14
1e-14
1e-14
1e-14
1e-14
1e-14
1e-14
1e-14
1e-14
1e-14
1e-14
1e-14
1e-14
1e-14
1e-14
1e-14
1e-14
1e-14
1e-14
1e-14
1e-14
1e-14
1e-14
1e-14
1e-14
1e-14
1e-14
1e-14
1e-14
1e-14
1e-14
1e-14
1e-14
1e-14
1e-14
1e-14
1e-14
1e-14
1e-14
1e-14
1e-14
1e-14
1e-14
1e-14
1e-14
1e-14
1e-14
1e-14
1e-14
1e-14
1e-14
1e-14
1e-14
1e-14
1e-14
1e-14
1e-14
1.00001e-14
1e-14
1e-14
1e-14
1e-14
1e-14
1e-14
1e-14
1e-14
1e-14
1e-14
1e-14
1e-14
1e-14
1e-14
1e-14
1e-14
1e-14
1e-14
1e-14
1e-14
1e-14
1e-14
1e-14
1e-14
1e-14
1e-14
1e-14
1e-14
1e-14
1e-14
1e-14
1e-14
1e-14
1e-14
1e-14
1e-14
1e-14
1e-14
1e-14
1.52896e-13
1.03905e-14
1.62293e-13
1.04417e-14
1.72588e-13
1.05415e-14
1.09909e-14
1.37494e-14
1.01215e-14
1.00123e-14
1.87851e-14
2.11541e-14
3.69336e-13
1.0975e-14
1.00166e-14
1.4949e-14
1.00061e-14
1.0636e-13
1.03169e-14
1.21774e-14
1.02998e-14
1.3965e-13
1.01544e-14
1.00017e-14
1.11218e-14
1.00139e-14
3.09634e-13
2.42143e-14
1.01251e-14
1.11398e-14
1e-14
1.08796e-14
1.00071e-14
1.3583e-13
1.00965e-14
3.16478e-13
1.00715e-14
3.46641e-13
3.44541e-13
1e-14
3.43278e-13
3.45998e-13
1.00705e-14
3.16477e-13
1.00963e-14
1.00077e-14
1.35828e-13
1.08801e-14
1e-14
1.11377e-14
1.01256e-14
2.42757e-14
1.0014e-14
1.00019e-14
1.11269e-14
1.01688e-14
3.09304e-13
1.39635e-13
1.03172e-14
1.21515e-14
1.03288e-14
1.06469e-13
1.00064e-14
1.00163e-14
1.4931e-14
1.09675e-14
3.6926e-13
2.01291e-14
1.86237e-14
1.00059e-14
1.01284e-14
1.37751e-14
1.0983e-14
1.0554e-14
1.72895e-13
1.04512e-14
1.0393e-14
1.62503e-13
1.52855e-13
1.01948e-14
1.47167e-13
1.02287e-14
1.52131e-13
1.03293e-14
1.61661e-13
1.03805e-14
1.03413e-14
1e-14
1.72037e-13
1.04656e-14
1.0772e-14
1e-14
1e-14
1.30315e-14
1.01e-14
1.00059e-14
1e-14
1.0007e-14
1.78867e-14
1e-14
3.56315e-13
1.93316e-14
3.6847e-13
1e-14
1e-14
1.00043e-14
1.06962e-14
1.00088e-14
1.4631e-14
1.00055e-14
1.02092e-14
1e-14
1.06138e-13
1.02757e-14
1.17062e-14
1e-14
1.04796e-13
1.02957e-14
1.38839e-13
1e-14
1.00478e-14
1e-14
1.01389e-14
1.00013e-14
1.08722e-14
1.00093e-14
2.84605e-13
3.08579e-13
1.01194e-14
1e-14
2.35101e-14
1.01051e-14
1.0619e-14
1.21459e-14
1e-14
1e-14
1.23903e-13
1.01166e-14
1.07917e-14
1.00052e-14
1.35101e-13
1.00871e-14
1e-14
2.72278e-13
3.15427e-13
1e-14
3.45619e-13
1e-14
2.74493e-13
3.43464e-13
1e-14
3.42169e-13
1e-14
2.9406e-13
3.44992e-13
1e-14
3.15415e-13
1e-14
1.23896e-13
1.02499e-14
1.00869e-14
1.00051e-14
1.35099e-13
1.07915e-14
1.21471e-14
1e-14
1.0119e-14
1e-14
1.06192e-14
1.01051e-14
2.34909e-14
1e-14
1.0056e-14
1.00592e-14
1.00096e-14
1.00014e-14
1.08802e-14
1.01403e-14
2.84562e-13
3.08568e-13
1e-14
1.38857e-13
1.02978e-14
1.02131e-14
9.7941e-14
1.17254e-14
1.02791e-14
1.06163e-13
1e-14
1e-14
1.01524e-14
1.00056e-14
1.00091e-14
1.46361e-14
1.07146e-14
1e-14
3.68497e-13
1.94298e-14
1.00056e-14
1.79565e-14
1.00069e-14
1e-14
1.01016e-14
1.30545e-14
1.03446e-14
1.57311e-13
1.0778e-14
1.04699e-14
1.72084e-13
1.0198e-14
1.47448e-13
1.39695e-13
1.03848e-14
1.03328e-14
1.61707e-13
1.5211e-13
1.02007e-14
1.47556e-13
1.02347e-14
1.52149e-13
1.03276e-14
1.61665e-13
1.03786e-14
1.03436e-14
1e-14
1.72097e-13
1.04654e-14
1.07168e-14
1.00034e-14
1e-14
1.28675e-14
1.00993e-14
1.00051e-14
1e-14
1.00061e-14
1.79155e-14
1e-14
3.56464e-13
1.94222e-14
3.68429e-13
1e-14
1e-14
1.00043e-14
1.06736e-14
1.0008e-14
1.4562e-14
1.00055e-14
1.02123e-14
1e-14
1.06179e-13
1.02758e-14
1.1648e-14
1e-14
1.05476e-13
1.03094e-14
1.38757e-13
1e-14
1.00966e-14
1e-14
1.014e-14
1.00012e-14
1.0833e-14
1.00083e-14
2.84961e-13
3.08712e-13
1.0117e-14
1e-14
2.36916e-14
1.01064e-14
1.05142e-14
1.25174e-14
1e-14
1e-14
1.24e-13
1.01142e-14
1.07957e-14
1.00051e-14
1.35196e-13
1.00883e-14
1e-14
2.7355e-13
3.15578e-13
1e-14
3.45508e-13
1e-14
2.75792e-13
3.43371e-13
1e-14
3.42072e-13
1e-14
2.94214e-13
3.4488e-13
1e-14
3.15564e-13
1e-14
1.23996e-13
1.02494e-14
1.00883e-14
1.00051e-14
1.35193e-13
1.07955e-14
1.25187e-14
1e-14
1.0117e-14
1e-14
1.0515e-14
1.01065e-14
2.36875e-14
1e-14
1.00978e-14
1.00574e-14
1.00084e-14
1.00014e-14
1.08336e-14
1.01404e-14
2.84951e-13
3.08716e-13
1e-14
1.38757e-13
1.03098e-14
1.02133e-14
9.80661e-14
1.16495e-14
1.02762e-14
1.06179e-13
1e-14
1e-14
1.01799e-14
1.00054e-14
1.0008e-14
1.45601e-14
1.06755e-14
1e-14
3.68469e-13
1.94327e-14
1.00056e-14
1.79233e-14
1.00061e-14
1.00043e-14
1.01007e-14
1.28687e-14
1.03448e-14
1.57495e-13
1.0717e-14
1.04662e-14
1.72097e-13
1.02017e-14
1.47554e-13
1.39777e-13
1.03797e-14
1.03277e-14
1.61678e-13
1.52084e-13
1.02036e-14
1.47605e-13
1.02378e-14
1.52161e-13
1.03278e-14
1.61672e-13
1.0379e-14
1.03466e-14
1e-14
1.72105e-13
1.04665e-14
1.07079e-14
1.00136e-14
1e-14
1.28516e-14
1.00993e-14
1.00057e-14
1e-14
1.00064e-14
1.791e-14
1e-14
3.56287e-13
1.94425e-14
3.68429e-13
1e-14
1e-14
1.00044e-14
1.0669e-14
1.00078e-14
1.45473e-14
1.00054e-14
1.02146e-14
1e-14
1.06202e-13
1.02761e-14
1.16348e-14
1e-14
1.05458e-13
1.03132e-14
1.38719e-13
1e-14
1.0104e-14
1e-14
1.01401e-14
1.00012e-14
1.08226e-14
1.0008e-14
2.85029e-13
3.08769e-13
1.01171e-14
1e-14
2.38019e-14
1.01059e-14
1.04991e-14
1.26119e-14
1e-14
1e-14
1.24024e-13
1.01143e-14
1.07966e-14
1.00049e-14
1.35224e-13
1.00882e-14
1e-14
2.73577e-13
3.15604e-13
1e-14
3.45516e-13
1e-14
2.75822e-13
3.43368e-13
1e-14
3.42069e-13
1e-14
2.94181e-13
3.44889e-13
1e-14
3.156e-13
1e-14
1.24018e-13
1.02498e-14
1.00882e-14
1.00049e-14
1.35218e-13
1.07966e-14
1.26133e-14
1e-14
1.01172e-14
1e-14
1.04992e-14
1.0106e-14
2.38001e-14
1e-14
1.01044e-14
1.00577e-14
1.00081e-14
1.00014e-14
1.0823e-14
1.01403e-14
2.85031e-13
3.08757e-13
1e-14
1.38714e-13
1.0313e-14
1.02148e-14
9.80924e-14
1.16361e-14
1.02762e-14
1.06201e-13
1e-14
1e-14
1.01869e-14
1.00054e-14
1.00078e-14
1.4546e-14
1.06694e-14
1e-14
3.68441e-13
1.94442e-14
1.00066e-14
1.79124e-14
1.0006e-14
1.0014e-14
1.00995e-14
1.28509e-14
1.03469e-14
1.57549e-13
1.07079e-14
1.04666e-14
1.72113e-13
1.02036e-14
1.47591e-13
1.39818e-13
1.03793e-14
1.03275e-14
1.61679e-13
1.52081e-13
1.02038e-14
1.47588e-13
1.02383e-14
1.5216e-13
1.03291e-14
1.61691e-13
1.0381e-14
1.03476e-14
1e-14
1.72133e-13
1.047e-14
1.07155e-14
1.00165e-14
1e-14
1.28661e-14
1.00991e-14
1.00061e-14
1e-14
1.00064e-14
1.78982e-14
1e-14
3.56231e-13
1.94492e-14
3.68414e-13
1e-14
1e-14
1.00045e-14
1.06673e-14
1.00077e-14
1.45247e-14
1.00054e-14
1.02146e-14
1e-14
1.06235e-13
1.02763e-14
1.1631e-14
1e-14
1.05411e-13
1.03159e-14
1.38681e-13
1e-14
1.01012e-14
1e-14
1.01401e-14
1.00012e-14
1.08147e-14
1.00078e-14
2.85072e-13
3.08791e-13
1.01163e-14
1e-14
2.39053e-14
1.01047e-14
1.04908e-14
1.26218e-14
1e-14
1e-14
1.24037e-13
1.01141e-14
1.07964e-14
1.00048e-14
1.35225e-13
1.00879e-14
1e-14
2.73564e-13
3.15605e-13
1e-14
3.45526e-13
1e-14
2.7581e-13
3.43365e-13
1e-14
3.42068e-13
1e-14
2.9418e-13
3.44901e-13
1e-14
3.15596e-13
1e-14
1.24029e-13
1.025e-14
1.00878e-14
1.00048e-14
1.35221e-13
1.07962e-14
1.26243e-14
1e-14
1.01163e-14
1e-14
1.04906e-14
1.01047e-14
2.39056e-14
1e-14
1.01014e-14
1.00575e-14
1.00077e-14
1.00012e-14
1.0815e-14
1.01401e-14
2.85043e-13
3.08776e-13
1e-14
1.38674e-13
1.0316e-14
1.02147e-14
9.81068e-14
1.16314e-14
1.02763e-14
1.06237e-13
1e-14
1e-14
1.01864e-14
1.00054e-14
1.00077e-14
1.45246e-14
1.06671e-14
1e-14
3.68408e-13
1.94466e-14
1.00058e-14
1.7898e-14
1.00064e-14
1.00165e-14
1.00996e-14
1.28662e-14
1.03476e-14
1.57541e-13
1.07153e-14
1.04699e-14
1.72129e-13
1.0204e-14
1.47581e-13
1.39816e-13
1.03811e-14
1.03293e-14
1.61691e-13
1.52143e-13
1.0204e-14
1.47546e-13
1.02393e-14
1.52179e-13
1.03324e-14
1.61741e-13
1.03861e-14
1.035e-14
1e-14
1.72155e-13
1.04818e-14
1.07535e-14
1.00188e-14
1e-14
1.28949e-14
1.01011e-14
1.00054e-14
1e-14
1.00085e-14
1.79093e-14
1e-14
3.56146e-13
1.95186e-14
3.68384e-13
1e-14
1e-14
1.00044e-14
1.0669e-14
1.00076e-14
1.44739e-14
1.00056e-14
1.02144e-14
1e-14
1.06338e-13
1.02767e-14
1.16332e-14
1e-14
1.05311e-13
1.03218e-14
1.38663e-13
1e-14
1.00961e-14
1e-14
1.01404e-14
1.00012e-14
1.08103e-14
1.00077e-14
2.85092e-13
3.08823e-13
1.01152e-14
1e-14
2.40607e-14
1.01029e-14
1.0493e-14
1.26304e-14
1e-14
1e-14
1.24055e-13
1.0114e-14
1.0798e-14
1.00049e-14
1.35224e-13
1.00877e-14
1e-14
2.73556e-13
3.15588e-13
1e-14
3.45554e-13
1e-14
2.75796e-13
3.43378e-13
1e-14
3.42078e-13
1e-14
2.94175e-13
3.44928e-13
1e-14
3.15582e-13
1e-14
1.24048e-13
1.02498e-14
1.00877e-14
1.00048e-14
1.35222e-13
1.07977e-14
1.26314e-14
1e-14
1.01151e-14
1e-14
1.04924e-14
1.0103e-14
2.40603e-14
1e-14
1.00963e-14
1.00576e-14
1.00076e-14
1.00012e-14
1.08106e-14
1.01403e-14
2.85073e-13
3.08808e-13
1e-14
1.3866e-13
1.03219e-14
1.02145e-14
9.81234e-14
1.1633e-14
1.02767e-14
1.0634e-13
1e-14
1e-14
1.01852e-14
1.00055e-14
1.00076e-14
1.4473e-14
1.06694e-14
1e-14
3.68391e-13
1.95215e-14
1.00059e-14
1.79106e-14
1.00084e-14
1.00189e-14
1.01015e-14
1.28948e-14
1.03501e-14
1.57469e-13
1.07535e-14
1.0482e-14
1.72156e-13
1.02044e-14
1.47535e-13
1.39808e-13
1.03863e-14
1.03328e-14
1.61739e-13
1.52184e-13
1.02029e-14
1.47376e-13
1.02401e-14
1.52315e-13
1.03439e-14
1.6197e-13
1.04044e-14
1.03567e-14
1e-14
1.72346e-13
1.05172e-14
1.08855e-14
1.00377e-14
1e-14
1.28722e-14
1.01179e-14
1.00064e-14
1e-14
1.0017e-14
1.81907e-14
1e-14
3.5589e-13
1.98087e-14
3.68611e-13
1e-14
1e-14
1.00043e-14
1.06879e-14
1.00073e-14
1.46037e-14
1.00061e-14
1.02128e-14
1e-14
1.06693e-13
1.02808e-14
1.16522e-14
1e-14
1.05031e-13
1.03325e-14
1.38718e-13
1e-14
1.00908e-14
1e-14
1.01428e-14
1.00011e-14
1.08338e-14
1.00077e-14
2.85106e-13
3.09135e-13
1.01123e-14
1e-14
2.46977e-14
1.01054e-14
1.06414e-14
1.26299e-14
1e-14
1e-14
1.24082e-13
1.01138e-14
1.08244e-14
1.00047e-14
1.35546e-13
1.00898e-14
1e-14
2.73483e-13
3.15697e-13
1e-14
3.45654e-13
1e-14
2.75727e-13
3.43463e-13
1e-14
3.42215e-13
1e-14
2.94108e-13
3.45048e-13
1e-14
3.15699e-13
1e-14
1.24074e-13
1.02488e-14
1.00899e-14
1.00046e-14
1.35544e-13
1.08242e-14
1.26304e-14
1e-14
1.01122e-14
1e-14
1.06414e-14
1.01054e-14
2.46963e-14
1e-14
1.00908e-14
1.00581e-14
1.00077e-14
1.00012e-14
1.08336e-14
1.01427e-14
2.85092e-13
3.09131e-13
1e-14
1.38712e-13
1.03324e-14
1.02129e-14
9.8149e-14
1.16522e-14
1.02808e-14
1.06691e-13
1e-14
1e-14
1.01864e-14
1.00061e-14
1.00073e-14
1.46025e-14
1.06881e-14
1e-14
3.68611e-13
1.98103e-14
1.0006e-14
1.81914e-14
1.00167e-14
1.00377e-14
1.01178e-14
1.28727e-14
1.03569e-14
1.57209e-13
1.08857e-14
1.05174e-14
1.72347e-13
1.02033e-14
1.47371e-13
1.39632e-13
1.04046e-14
1.03442e-14
1.61971e-13
1.52309e-13
1.01461e-14
1.46179e-13
1.01825e-14
1.83632e-13
1.04903e-14
1.92696e-13
1.058e-14
1.03514e-14
1e-14
2.02717e-13
1.05924e-14
1.11145e-14
1.00527e-14
1e-14
1.44068e-14
1.05853e-14
1.00046e-14
1e-14
1.01682e-14
1.65421e-14
1e-14
3.55937e-13
3.22384e-14
3.56397e-13
1e-14
1e-14
1.00034e-14
1.14505e-14
1.00198e-14
2.55804e-14
1.0006e-14
1.01885e-14
1e-14
1.21229e-13
1.0209e-14
1.15863e-14
1e-14
1.03485e-13
1.03501e-14
1.35864e-13
1e-14
1.01155e-14
1e-14
1.01511e-14
1.00012e-14
1.10134e-14
1.00098e-14
2.84339e-13
3.05605e-13
1.01123e-14
1e-14
2.8037e-14
1.00591e-14
1.00062e-14
1.1997e-14
1e-14
1e-14
1.23947e-13
1.01146e-14
1.09374e-14
1e-14
1.50795e-13
1.00269e-14
1e-14
2.73245e-13
3.13344e-13
1e-14
3.23272e-13
1e-14
2.75659e-13
3.24801e-13
1e-14
3.24481e-13
1e-14
2.93656e-13
3.23034e-13
1e-14
3.13349e-13
1e-14
1.23944e-13
1.03306e-14
1.00269e-14
1e-14
1.50799e-13
1.09374e-14
1.19973e-14
1e-14
1.01123e-14
1e-14
1.00063e-14
1.0059e-14
2.80385e-14
1e-14
1.01155e-14
1.00631e-14
1.00098e-14
1.00012e-14
1.10136e-14
1.01511e-14
2.84311e-13
3.05598e-13
1e-14
1.35863e-13
1.03499e-14
1.01886e-14
9.80136e-14
1.15865e-14
1.0209e-14
1.21223e-13
1e-14
1e-14
1.01628e-14
1.00061e-14
1.00197e-14
2.55745e-14
1.14509e-14
1e-14
3.5641e-13
3.22412e-14
1.00044e-14
1.65452e-14
1.01685e-14
1.00531e-14
1.05858e-14
1.44075e-14
1.03514e-14
1.55964e-13
1.11149e-14
1.05926e-14
2.02717e-13
1.01464e-14
1.46176e-13
1.38372e-13
1.05802e-14
1.04905e-14
1.92697e-13
1.83626e-13
1e-14
1.27413e-14
1e-14
1.0141e-14
1e-14
1.01202e-14
1.00004e-14
1e-14
1.006e-14
1.00735e-14
1e-14
1.00047e-14
1.02254e-14
1.01128e-14
1e-14
1.00207e-14
1.00063e-14
1e-14
1.33321e-14
1.00092e-14
1.01171e-14
1e-14
1e-14
1e-14
1.00003e-14
1.04398e-14
1e-14
1.00035e-14
1e-14
1.00076e-14
1e-14