/*--------------------------------*- C++ -*----------------------------------*\
| =========                 |                                                 |
| \\      /  F ield         | OpenFOAM: The Open Source CFD Toolbox           |
|  \\    /   O peration     | Version:  2.1.1                                 |
|   \\  /    A nd           | Web:      www.OpenFOAM.org                      |
|    \\/     M anipulation  |                                                 |
\*---------------------------------------------------------------------------*/
FoamFile
{
    version     2.0;
    format      ascii;
    class       volScalarField;
    location    "0.0025";
    object      Th;
}
// * * * * * * * * * * * * * * * * * * * * * * * * * * * * * * * * * * * * * //

dimensions      [0 0 0 0 0 0 0];

internalField   nonuniform List<scalar> 
10154
(
3.23458e-13
1e-14
1.42923e-14
1.01343e-14
1.04717e-14
1.01489e-14
1.83684e-14
1.0736e-14
1.00119e-14
1.00067e-14
1e-14
1.00009e-14
1.00003e-14
2.65325e-13
1.11718e-14
1.00111e-14
1.0001e-14
1e-14
1e-14
1e-14
1.00001e-14
1e-14
1.06448e-14
1.00279e-14
1.00006e-14
1e-14
1e-14
1e-14
1e-14
1.00001e-14
1.00001e-14
1e-14
1.06263e-14
1.00314e-14
1e-14
1.00001e-14
1e-14
1e-14
1e-14
1e-14
1e-14
1e-14
1e-14
2.65326e-13
1.00278e-14
1e-14
1.00001e-14
1e-14
1e-14
1.00001e-14
1e-14
1e-14
1e-14
1e-14
1.00001e-14
1.11729e-14
1.00006e-14
1.00001e-14
1e-14
1e-14
1e-14
1e-14
1e-14
1e-14
1e-14
1e-14
1e-14
1.83671e-14
1.00111e-14
1e-14
1e-14
1e-14
1e-14
1e-14
1e-14
1e-14
1e-14
1e-14
1e-14
1e-14
1.0736e-14
1.0001e-14
1e-14
1e-14
1.00001e-14
1e-14
1e-14
1.00001e-14
1.00001e-14
1.00001e-14
1e-14
1e-14
1e-14
1e-14
1.00119e-14
1e-14
1e-14
1e-14
1e-14
1e-14
1e-14
1.00001e-14
1.00001e-14
1e-14
1e-14
1.00001e-14
1e-14
1.42924e-14
1.00067e-14
1e-14
1e-14
1e-14
1e-14
1e-14
1e-14
1.00001e-14
1.00001e-14
1.00001e-14
1.00001e-14
1.00001e-14
1.00001e-14
1.01343e-14
1e-14
1e-14
1.00001e-14
1e-14
1e-14
1e-14
1e-14
1e-14
1e-14
1.00001e-14
1.00001e-14
1e-14
1.00001e-14
1.04717e-14
1.00009e-14
1.00001e-14
1.00001e-14
1e-14
1e-14
1e-14
1e-14
1e-14
1.00001e-14
1.00001e-14
1e-14
1e-14
1.00001e-14
3.23412e-13
1.01488e-14
1.00002e-14
1e-14
1e-14
1e-14
1.00001e-14
1e-14
1e-14
1e-14
1e-14
1.00001e-14
1.00001e-14
1.00001e-14
1.00003e-14
3.25865e-13
1e-14
1.40839e-14
1.01273e-14
1.04315e-14
1.01346e-14
1.90487e-14
1.06902e-14
1.00102e-14
1.00058e-14
1e-14
1.00004e-14
1.00002e-14
2.69594e-13
1.11179e-14
1.00099e-14
1.00005e-14
1e-14
1e-14
1.00001e-14
1.00001e-14
1e-14
1.14627e-14
1.00257e-14
1.00004e-14
1e-14
1e-14
1e-14
1e-14
1.00001e-14
1.00001e-14
1e-14
1.14312e-14
1.00281e-14
1e-14
1e-14
1e-14
1e-14
1e-14
1e-14
1e-14
1.00001e-14
1e-14
2.69587e-13
1.00255e-14
1e-14
1.00001e-14
1e-14
1e-14
1e-14
1e-14
1e-14
1e-14
1e-14
1e-14
1.11178e-14
1.00004e-14
1e-14
1e-14
1e-14
1e-14
1e-14
1e-14
1e-14
1e-14
1e-14
1e-14
1.90477e-14
1.00099e-14
1e-14
1e-14
1e-14
1e-14
1e-14
1.00001e-14
1e-14
1e-14
1e-14
1e-14
1e-14
1.06901e-14
1.00005e-14
1e-14
1e-14
1e-14
1e-14
1.00001e-14
1e-14
1e-14
1e-14
1e-14
1e-14
1e-14
1e-14
1.00102e-14
1e-14
1e-14
1e-14
1e-14
1e-14
1e-14
1e-14
1e-14
1e-14
1e-14
1e-14
1e-14
1.40838e-14
1.00058e-14
1e-14
1e-14
1e-14
1e-14
1e-14
1e-14
1e-14
1e-14
1e-14
1.00001e-14
1.00001e-14
1e-14
1.01273e-14
1e-14
1.00001e-14
1.00001e-14
1e-14
1e-14
1e-14
1e-14
1e-14
1e-14
1.00001e-14
1.00001e-14
1e-14
1e-14
1.04315e-14
1.00004e-14
1.00001e-14
1.00001e-14
1e-14
1e-14
1e-14
1e-14
1e-14
1e-14
1.00001e-14
1e-14
1.00001e-14
1e-14
3.25823e-13
1.01346e-14
1.00001e-14
1e-14
1e-14
1e-14
1e-14
1e-14
1e-14
1e-14
1e-14
1e-14
1e-14
1e-14
1e-14
3.26064e-13
1e-14
1.41177e-14
1.01293e-14
1.04223e-14
1.01312e-14
1.92378e-14
1.06805e-14
1.00102e-14
1.00057e-14
1e-14
1e-14
1.00002e-14
2.69659e-13
1.11088e-14
1.00096e-14
1.00002e-14
1e-14
1e-14
1e-14
1e-14
1.00001e-14
1.161e-14
1.00251e-14
1.00002e-14
1e-14
1e-14
1e-14
1e-14
1e-14
1e-14
1e-14
1.15768e-14
1.00276e-14
1e-14
1e-14
1e-14
1e-14
1e-14
1e-14
1e-14
1e-14
1e-14
2.69652e-13
1.0025e-14
1e-14
1.00001e-14
1e-14
1e-14
1e-14
1e-14
1e-14
1e-14
1e-14
1e-14
1.11085e-14
1.00002e-14
1e-14
1e-14
1e-14
1e-14
1.00001e-14
1e-14
1e-14
1e-14
1e-14
1e-14
1.92369e-14
1.00096e-14
1e-14
1e-14
1e-14
1e-14
1.00001e-14
1e-14
1e-14
1e-14
1e-14
1e-14
1e-14
1.06804e-14
1.00002e-14
1e-14
1e-14
1e-14
1.00001e-14
1e-14
1e-14
1e-14
1e-14
1e-14
1e-14
1e-14
1e-14
1.00102e-14
1e-14
1e-14
1e-14
1e-14
1e-14
1e-14
1e-14
1e-14
1e-14
1e-14
1e-14
1e-14
1.41176e-14
1.00057e-14
1e-14
1e-14
1e-14
1e-14
1e-14
1e-14
1e-14
1e-14
1e-14
1e-14
1e-14
1e-14
1.01293e-14
1e-14
1e-14
1e-14
1e-14
1e-14
1e-14
1e-14
1e-14
1e-14
1e-14
1e-14
1e-14
1e-14
1.04223e-14
1e-14
1e-14
1e-14
1e-14
1e-14
1e-14
1.00001e-14
1e-14
1e-14
1e-14
1e-14
1e-14
1e-14
3.26024e-13
1.01313e-14
1.00001e-14
1.00001e-14
1e-14
1e-14
1e-14
1e-14
1e-14
1e-14
1e-14
1e-14
1e-14
1e-14
1e-14
3.26006e-13
1e-14
1.41343e-14
1.01309e-14
1.04227e-14
1.01302e-14
1.92368e-14
1.06795e-14
1.00104e-14
1.00056e-14
1e-14
1e-14
1e-14
2.69747e-13
1.1108e-14
1.00093e-14
1e-14
1e-14
1e-14
1e-14
1e-14
1e-14
1.16265e-14
1.0025e-14
1e-14
1e-14
1e-14
1e-14
1e-14
1e-14
1e-14
1e-14
1.1593e-14
1.00275e-14
1e-14
1e-14
1e-14
1e-14
1e-14
1e-14
1e-14
1e-14
1e-14
2.69744e-13
1.00249e-14
1e-14
1e-14
1e-14
1e-14
1e-14
1e-14
1e-14
1e-14
1e-14
1.00001e-14
1.11076e-14
1e-14
1e-14
1e-14
1e-14
1e-14
1e-14
1e-14
1e-14
1e-14
1e-14
1.00001e-14
1.92357e-14
1.00093e-14
1e-14
1e-14
1e-14
1e-14
1e-14
1e-14
1e-14
1e-14
1e-14
1.00001e-14
1.00001e-14
1.06794e-14
1e-14
1e-14
1e-14
1e-14
1e-14
1e-14
1e-14
1e-14
1e-14
1e-14
1e-14
1.00001e-14
1e-14
1.00104e-14
1e-14
1e-14
1e-14
1e-14
1e-14
1e-14
1e-14
1e-14
1e-14
1e-14
1e-14
1e-14
1.41342e-14
1.00056e-14
1e-14
1e-14
1e-14
1e-14
1e-14
1e-14
1e-14
1e-14
1e-14
1e-14
1e-14
1e-14
1.01309e-14
1e-14
1e-14
1e-14
1e-14
1e-14
1e-14
1e-14
1e-14
1e-14
1e-14
1e-14
1e-14
1e-14
1.04227e-14
1e-14
1e-14
1e-14
1e-14
1e-14
1e-14
1.00001e-14
1e-14
1e-14
1e-14
1e-14
1e-14
1e-14
3.25967e-13
1.01303e-14
1e-14
1e-14
1e-14
1e-14
1.00001e-14
1.00001e-14
1.00001e-14
1.00001e-14
1e-14
1e-14
1e-14
1e-14
1e-14
3.25674e-13
1e-14
1.41754e-14
1.01339e-14
1.04397e-14
1.01404e-14
1.92033e-14
1.06853e-14
1.00112e-14
1.00056e-14
1e-14
1e-14
1e-14
2.6983e-13
1.10834e-14
1.0009e-14
1e-14
1e-14
1e-14
1e-14
1e-14
1e-14
1.16387e-14
1.00247e-14
1e-14
1e-14
1e-14
1e-14
1e-14
1e-14
1e-14
1e-14
1.16051e-14
1.00275e-14
1e-14
1e-14
1e-14
1e-14
1e-14
1e-14
1e-14
1e-14
1e-14
2.69828e-13
1.00246e-14
1e-14
1e-14
1e-14
1e-14
1e-14
1e-14
1e-14
1e-14
1e-14
1e-14
1.1083e-14
1e-14
1e-14
1e-14
1e-14
1e-14
1e-14
1e-14
1e-14
1e-14
1e-14
1.00001e-14
1.92016e-14
1.0009e-14
1e-14
1e-14
1e-14
1e-14
1e-14
1e-14
1e-14
1e-14
1e-14
1.00001e-14
1.00001e-14
1.06852e-14
1e-14
1e-14
1e-14
1e-14
1e-14
1e-14
1e-14
1e-14
1e-14
1e-14
1e-14
1e-14
1e-14
1.00112e-14
1e-14
1e-14
1e-14
1e-14
1e-14
1e-14
1e-14
1e-14
1e-14
1e-14
1e-14
1e-14
1.41754e-14
1.00056e-14
1e-14
1e-14
1e-14
1e-14
1e-14
1e-14
1e-14
1e-14
1e-14
1e-14
1e-14
1.00001e-14
1.01339e-14
1e-14
1e-14
1e-14
1e-14
1e-14
1e-14
1e-14
1e-14
1e-14
1e-14
1e-14
1e-14
1e-14
1.04397e-14
1e-14
1e-14
1e-14
1e-14
1e-14
1e-14
1.00001e-14
1e-14
1e-14
1e-14
1e-14
1e-14
1e-14
3.25637e-13
1.01405e-14
1e-14
1e-14
1e-14
1e-14
1e-14
1.00001e-14
1.00001e-14
1e-14
1e-14
1.00001e-14
1e-14
1e-14
1e-14
3.24511e-13
1e-14
1.43286e-14
1.01437e-14
1.04264e-14
1.01047e-14
1.91994e-14
1.06714e-14
1.00087e-14
1.00053e-14
1e-14
1e-14
1e-14
2.69851e-13
1.11877e-14
1.00077e-14
1e-14
1e-14
1e-14
1e-14
1e-14
1e-14
1.16968e-14
1.00293e-14
1e-14
1e-14
1e-14
1e-14
1e-14
1e-14
1e-14
1e-14
1.16636e-14
1.00297e-14
1e-14
1e-14
1e-14
1e-14
1e-14
1e-14
1e-14
1e-14
1e-14
2.69848e-13
1.00292e-14
1e-14
1e-14
1e-14
1e-14
1e-14
1e-14
1e-14
1e-14
1e-14
1.00001e-14
1.11872e-14
1e-14
1e-14
1e-14
1e-14
1e-14
1e-14
1e-14
1e-14
1e-14
1e-14
1e-14
1.91982e-14
1.00077e-14
1e-14
1e-14
1e-14
1e-14
1e-14
1.00001e-14
1e-14
1e-14
1e-14
1e-14
1e-14
1.06713e-14
1e-14
1e-14
1e-14
1e-14
1e-14
1.00001e-14
1e-14
1e-14
1e-14
1e-14
1e-14
1e-14
1e-14
1.00087e-14
1e-14
1e-14
1e-14
1e-14
1e-14
1e-14
1e-14
1e-14
1e-14
1e-14
1e-14
1e-14
1.43286e-14
1.00053e-14
1e-14
1e-14
1e-14
1e-14
1e-14
1e-14
1e-14
1e-14
1e-14
1e-14
1e-14
1e-14
1.01437e-14
1e-14
1e-14
1e-14
1e-14
1e-14
1e-14
1e-14
1e-14
1e-14
1e-14
1e-14
1e-14
1e-14
1.04265e-14
1e-14
1e-14
1e-14
1e-14
1e-14
1e-14
1e-14
1e-14
1e-14
1e-14
1e-14
1e-14
1e-14
3.24477e-13
1.01051e-14
1e-14
1e-14
1e-14
1e-14
1.00001e-14
1e-14
1e-14
1e-14
1e-14
1e-14
1e-14
1e-14
1e-14
3.16631e-13
1e-14
1.54636e-14
1.01028e-14
1.07531e-14
1.03244e-14
2.00253e-14
1.08659e-14
1.00258e-14
1.00065e-14
1e-14
1e-14
1e-14
2.68906e-13
1.1015e-14
1.0008e-14
1e-14
1e-14
1e-14
1e-14
1e-14
1e-14
1.27376e-14
1.00019e-14
1e-14
1e-14
1e-14
1e-14
1e-14
1e-14
1e-14
1e-14
1.26902e-14
1.00145e-14
1e-14
1e-14
1e-14
1e-14
1e-14
1e-14
1e-14
1e-14
1e-14
2.68901e-13
1.00018e-14
1e-14
1e-14
1e-14
1e-14
1e-14
1e-14
1e-14
1e-14
1e-14
1.00001e-14
1.10147e-14
1e-14
1e-14
1e-14
1e-14
1e-14
1e-14
1e-14
1e-14
1e-14
1e-14
1e-14
2.00241e-14
1.0008e-14
1e-14
1e-14
1e-14
1e-14
1e-14
1e-14
1e-14
1e-14
1e-14
1e-14
1e-14
1.08657e-14
1e-14
1e-14
1e-14
1e-14
1e-14
1e-14
1e-14
1e-14
1e-14
1e-14
1e-14
1e-14
1e-14
1.00258e-14
1e-14
1e-14
1e-14
1e-14
1e-14
1e-14
1e-14
1e-14
1e-14
1e-14
1e-14
1e-14
1.54637e-14
1.00065e-14
1e-14
1e-14
1e-14
1e-14
1e-14
1e-14
1e-14
1e-14
1e-14
1e-14
1e-14
1e-14
1.01028e-14
1e-14
1e-14
1e-14
1e-14
1e-14
1e-14
1e-14
1e-14
1e-14
1e-14
1e-14
1e-14
1e-14
1.07543e-14
1e-14
1e-14
1e-14
1e-14
1e-14
1e-14
1e-14
1e-14
1e-14
1e-14
1e-14
1e-14
1e-14
3.1659e-13
1.03244e-14
1e-14
1e-14
1e-14
1e-14
1.00001e-14
1e-14
1e-14
1e-14
1e-14
1e-14
1e-14
1e-14
1.00001e-14
3.15347e-14
1.55061e-14
1.01294e-14
1e-14
1.01251e-14
1.00773e-14
1.21892e-14
1.00996e-14
1.00052e-14
1.0001e-14
1e-14
1e-14
1e-14
1.99604e-14
1.01031e-14
1.0001e-14
1e-14
1e-14
1e-14
1e-14
1e-14
1e-14
1.09572e-14
1.00003e-14
1e-14
1e-14
1e-14
1e-14
1e-14
1e-14
1e-14
1e-14
1.09444e-14
1.00011e-14
1e-14
1e-14
1e-14
1e-14
1e-14
1e-14
1e-14
1e-14
1e-14
1.99654e-14
1.00003e-14
1e-14
1e-14
1e-14
1e-14
1e-14
1e-14
1e-14
1e-14
1e-14
1e-14
1.01031e-14
1e-14
1e-14
1e-14
1e-14
1e-14
1e-14
1e-14
1e-14
1e-14
1e-14
1e-14
1.21891e-14
1.0001e-14
1e-14
1e-14
1e-14
1e-14
1e-14
1e-14
1e-14
1e-14
1e-14
1e-14
1e-14
1.00996e-14
1e-14
1e-14
1e-14
1e-14
1e-14
1e-14
1e-14
1e-14
1e-14
1e-14
1e-14
1e-14
1.55047e-14
1.00052e-14
1e-14
1e-14
1e-14
1e-14
1e-14
1e-14
1e-14
1e-14
1e-14
1e-14
1e-14
1e-14
1.01296e-14
1.0001e-14
1e-14
1e-14
1e-14
1e-14
1e-14
1e-14
1e-14
1e-14
1e-14
1e-14
1e-14
1e-14
1e-14
1e-14
1e-14
1e-14
1e-14
1e-14
1e-14
1e-14
1e-14
1e-14
1e-14
1e-14
1e-14
1e-14
1.01254e-14
1e-14
1e-14
1e-14
1e-14
1e-14
1e-14
1e-14
1e-14
1e-14
1e-14
1e-14
1e-14
1e-14
3.15531e-14
1.00773e-14
1e-14
1e-14
1e-14
1e-14
1e-14
1e-14
1e-14
1e-14
1e-14
1e-14
1e-14
1e-14
1e-14
1.00008e-14
1.02138e-14
1e-14
1.00123e-14
1.00002e-14
1e-14
1.00218e-14
1.00141e-14
1.00008e-14
1.00225e-14
1.00144e-14
1.00009e-14
1.00001e-14
1e-14
1e-14
1e-14
1.00273e-14
1.00128e-14
1.00001e-14
1e-14
1e-14
1e-14
1e-14
1e-14
1e-14
1.00072e-14
1e-14
1e-14
1e-14
1e-14
1e-14
1e-14
1e-14
1e-14
1e-14
1.00071e-14
1.00001e-14
1e-14
1e-14
1e-14
1e-14
1e-14
1e-14
1e-14
1e-14
1e-14
1.00273e-14
1e-14
1e-14
1e-14
1e-14
1e-14
1e-14
1e-14
1e-14
1e-14
1e-14
1e-14
1.00008e-14
1.00128e-14
1e-14
1e-14
1e-14
1e-14
1e-14
1e-14
1e-14
1e-14
1e-14
1e-14
1e-14
1.00225e-14
1.00001e-14
1e-14
1e-14
1e-14
1e-14
1e-14
1e-14
1e-14
1e-14
1e-14
1e-14
1e-14
1e-14
1.00144e-14
1e-14
1e-14
1e-14
1e-14
1e-14
1e-14
1e-14
1e-14
1e-14
1e-14
1e-14
1e-14
1.00123e-14
1.00009e-14
1e-14
1e-14
1e-14
1e-14
1e-14
1e-14
1e-14
1e-14
1e-14
1e-14
1e-14
1e-14
1.00002e-14
1.00001e-14
1e-14
1e-14
1e-14
1e-14
1e-14
1e-14
1e-14
1e-14
1e-14
1e-14
1e-14
1e-14
1e-14
1e-14
1e-14
1e-14
1e-14
1e-14
1e-14
1e-14
1e-14
1e-14
1e-14
1e-14
1e-14
1e-14
1.00008e-14
1.00219e-14
1e-14
1e-14
1e-14
1e-14
1e-14
1e-14
1e-14
1e-14
1e-14
1e-14
1e-14
1e-14
1e-14
1.02141e-14
1.00141e-14
1e-14
1e-14
1e-14
1e-14
1e-14
1e-14
1e-14
1e-14
1e-14
1e-14
1e-14
1e-14
1e-14
1e-14
1.00016e-14
1e-14
1e-14
1e-14
1e-14
1.00034e-14
1.00022e-14
1e-14
1.00001e-14
1.00018e-14
1.00001e-14
1e-14
1e-14
1e-14
1e-14
1.00001e-14
1.00014e-14
1e-14
1e-14
1e-14
1e-14
1e-14
1e-14
1e-14
1e-14
1e-14
1e-14
1e-14
1e-14
1e-14
1e-14
1e-14
1e-14
1e-14
1e-14
1e-14
1e-14
1e-14
1e-14
1e-14
1e-14
1e-14
1e-14
1e-14
1e-14
1.00001e-14
1e-14
1e-14
1e-14
1e-14
1e-14
1e-14
1e-14
1e-14
1e-14
1e-14
1e-14
1e-14
1.00014e-14
1e-14
1e-14
1e-14
1e-14
1e-14
1e-14
1e-14
1e-14
1e-14
1e-14
1e-14
1.00001e-14
1e-14
1e-14
1e-14
1e-14
1e-14
1e-14
1.00001e-14
1e-14
1e-14
1e-14
1e-14
1e-14
1e-14
1.00018e-14
1e-14
1e-14
1e-14
1e-14
1e-14
1.00001e-14
1e-14
1e-14
1e-14
1e-14
1e-14
1e-14
1e-14
1.00001e-14
1e-14
1e-14
1e-14
1e-14
1e-14
1e-14
1e-14
1e-14
1e-14
1e-14
1e-14
1e-14
1e-14
1e-14
1e-14
1e-14
1e-14
1e-14
1e-14
1e-14
1e-14
1e-14
1e-14
1e-14
1e-14
1e-14
1e-14
1e-14
1e-14
1e-14
1e-14
1e-14
1e-14
1e-14
1e-14
1e-14
1e-14
1e-14
1e-14
1e-14
1e-14
1.00034e-14
1e-14
1e-14
1e-14
1e-14
1e-14
1e-14
1e-14
1e-14
1e-14
1e-14
1e-14
1e-14
1e-14
1.00016e-14
1.00022e-14
1e-14
1e-14
1e-14
1e-14
1e-14
1e-14
1e-14
1e-14
1e-14
1e-14
1e-14
1e-14
1e-14
1.00001e-14
1e-14
1e-14
1e-14
1e-14
1e-14
1.00005e-14
1.00004e-14
1e-14
1.00001e-14
1.00002e-14
1e-14
1e-14
1e-14
1e-14
1e-14
1e-14
1.00001e-14
1e-14
1e-14
1e-14
1e-14
1e-14
1e-14
1e-14
1e-14
1e-14
1e-14
1e-14
1e-14
1e-14
1e-14
1e-14
1e-14
1e-14
1e-14
1e-14
1e-14
1e-14
1e-14
1e-14
1e-14
1e-14
1e-14
1e-14
1e-14
1e-14
1e-14
1e-14
1e-14
1e-14
1e-14
1e-14
1e-14
1e-14
1e-14
1e-14
1e-14
1e-14
1.00001e-14
1e-14
1e-14
1e-14
1e-14
1e-14
1e-14
1e-14
1e-14
1e-14
1e-14
1e-14
1.00001e-14
1e-14
1e-14
1e-14
1e-14
1e-14
1e-14
1e-14
1e-14
1e-14
1e-14
1e-14
1e-14
1e-14
1.00002e-14
1e-14
1e-14
1e-14
1e-14
1e-14
1e-14
1e-14
1e-14
1e-14
1e-14
1e-14
1e-14
1e-14
1e-14
1e-14
1e-14
1e-14
1e-14
1e-14
1e-14
1e-14
1e-14
1e-14
1e-14
1e-14
1e-14
1e-14
1e-14
1e-14
1e-14
1e-14
1e-14
1e-14
1e-14
1e-14
1e-14
1e-14
1e-14
1e-14
1e-14
1e-14
1e-14
1e-14
1e-14
1e-14
1e-14
1e-14
1e-14
1e-14
1e-14
1e-14
1e-14
1e-14
1e-14
1.00001e-14
1.00005e-14
1e-14
1e-14
1e-14
1e-14
1e-14
1e-14
1e-14
1e-14
1e-14
1e-14
1e-14
1e-14
1.00001e-14
1e-14
1.00004e-14
1e-14
1e-14
1e-14
1e-14
1e-14
1e-14
1e-14
1e-14
1e-14
1e-14
1e-14
1.00001e-14
1.00001e-14
1e-14
1e-14
1e-14
1e-14
1e-14
1e-14
1.00001e-14
1.00001e-14
1e-14
1e-14
1e-14
1e-14
1e-14
1e-14
1e-14
1e-14
1e-14
1e-14
1e-14
1e-14
1e-14
1e-14
1e-14
1e-14
1e-14
1e-14
1e-14
1e-14
1e-14
1e-14
1e-14
1e-14
1e-14
1e-14
1e-14
1e-14
1e-14
1e-14
1e-14
1e-14
1e-14
1e-14
1e-14
1e-14
1e-14
1e-14
1e-14
1e-14
1e-14
1e-14
1e-14
1e-14
1e-14
1e-14
1e-14
1e-14
1e-14
1e-14
1e-14
1e-14
1e-14
1e-14
1e-14
1e-14
1e-14
1e-14
1e-14
1e-14
1e-14
1e-14
1e-14
1e-14
1e-14
1e-14
1e-14
1e-14
1e-14
1e-14
1e-14
1e-14
1e-14
1e-14
1e-14
1e-14
1e-14
1e-14
1e-14
1e-14
1e-14
1e-14
1e-14
1e-14
1e-14
1e-14
1e-14
1e-14
1e-14
1e-14
1e-14
1e-14
1e-14
1e-14
1e-14
1e-14
1e-14
1e-14
1e-14
1e-14
1e-14
1e-14
1e-14
1e-14
1e-14
1e-14
1e-14
1e-14
1e-14
1e-14
1e-14
1e-14
1e-14
1e-14
1e-14
1e-14
1e-14
1.00001e-14
1e-14
1e-14
1e-14
1e-14
1e-14
1e-14
1e-14
1e-14
1e-14
1e-14
1e-14
1e-14
1e-14
1.00001e-14
1e-14
1.00001e-14
1e-14
1e-14
1e-14
1e-14
1e-14
1e-14
1e-14
1e-14
1e-14
1e-14
1e-14
1.00001e-14
1.00001e-14
1e-14
1.00001e-14
1e-14
1e-14
1e-14
1e-14
1e-14
1e-14
1e-14
1e-14
1e-14
1.00001e-14
1.00001e-14
1.00001e-14
1.00001e-14
1e-14
1e-14
1e-14
1e-14
1e-14
1e-14
1e-14
1e-14
1e-14
1e-14
1e-14
1e-14
1e-14
1e-14
1e-14
1e-14
1e-14
1e-14
1e-14
1e-14
1e-14
1e-14
1e-14
1e-14
1.00001e-14
1e-14
1e-14
1e-14
1e-14
1e-14
1e-14
1e-14
1e-14
1e-14
1e-14
1e-14
1e-14
1e-14
1e-14
1e-14
1e-14
1e-14
1e-14
1e-14
1e-14
1.00001e-14
1e-14
1e-14
1e-14
1e-14
1e-14
1e-14
1e-14
1e-14
1e-14
1e-14
1e-14
1.00001e-14
1e-14
1e-14
1e-14
1e-14
1e-14
1e-14
1e-14
1e-14
1e-14
1e-14
1e-14
1e-14
1.00001e-14
1e-14
1e-14
1e-14
1e-14
1e-14
1e-14
1e-14
1e-14
1e-14
1e-14
1e-14
1e-14
1.00001e-14
1e-14
1e-14
1e-14
1e-14
1e-14
1e-14
1e-14
1e-14
1e-14
1e-14
1e-14
1e-14
1e-14
1.00001e-14
1e-14
1e-14
1e-14
1e-14
1e-14
1e-14
1e-14
1e-14
1e-14
1e-14
1e-14
1e-14
1e-14
1.00001e-14
1e-14
1e-14
1e-14
1e-14
1e-14
1e-14
1e-14
1e-14
1e-14
1e-14
1e-14
1e-14
1e-14
1.00002e-14
1e-14
1e-14
1e-14
1e-14
1e-14
1e-14
1e-14
1e-14
1e-14
1e-14
1e-14
1e-14
1e-14
1.00001e-14
1e-14
1e-14
1e-14
1e-14
1e-14
1e-14
1e-14
1e-14
1e-14
1e-14
1e-14
1e-14
1e-14
1.00001e-14
1e-14
1e-14
1e-14
1e-14
1.00001e-14
1e-14
1.00001e-14
1.00001e-14
1.00001e-14
1.00001e-14
1.00001e-14
1.00001e-14
1.00002e-14
1.00001e-14
1e-14
1.00001e-14
1e-14
1e-14
1e-14
1e-14
1e-14
1e-14
1e-14
1.00001e-14
1e-14
1e-14
1e-14
1e-14
1e-14
1e-14
1e-14
1e-14
1e-14
1e-14
1e-14
1e-14
1e-14
1e-14
1e-14
1e-14
1e-14
1e-14
1e-14
1e-14
1e-14
1e-14
1e-14
1e-14
1e-14
1e-14
1e-14
1e-14
1e-14
1e-14
1e-14
1e-14
1e-14
1e-14
1e-14
1e-14
1e-14
1e-14
1e-14
1e-14
1e-14
1e-14
1e-14
1e-14
1e-14
1e-14
1e-14
1e-14
1e-14
1.00001e-14
1e-14
1e-14
1e-14
1e-14
1e-14
1e-14
1e-14
1e-14
1e-14
1e-14
1e-14
1e-14
1e-14
1e-14
1e-14
1e-14
1e-14
1e-14
1e-14
1e-14
1e-14
1e-14
1e-14
1e-14
1e-14
1.00001e-14
1e-14
1e-14
1e-14
1e-14
1e-14
1e-14
1e-14
1e-14
1e-14
1e-14
1e-14
1e-14
1e-14
1.00001e-14
1e-14
1e-14
1e-14
1e-14
1e-14
1e-14
1e-14
1e-14
1e-14
1e-14
1e-14
1e-14
1e-14
1.00001e-14
1e-14
1e-14
1e-14
1e-14
1e-14
1e-14
1e-14
1e-14
1e-14
1e-14
1e-14
1e-14
1e-14
1e-14
1e-14
1e-14
1e-14
1e-14
1e-14
1e-14
1e-14
1e-14
1e-14
1e-14
1e-14
1e-14
1.00001e-14
1e-14
1e-14
1e-14
1e-14
1e-14
1e-14
1e-14
1e-14
1e-14
1e-14
1e-14
1e-14
1e-14
1.00001e-14
1e-14
1e-14
1e-14
1.00001e-14
1e-14
1e-14
1e-14
1e-14
1.00001e-14
1e-14
1.00001e-14
1.00001e-14
1.00001e-14
1e-14
1e-14
1e-14
1e-14
1e-14
1e-14
1e-14
1e-14
1e-14
1e-14
1e-14
1e-14
1e-14
1e-14
1e-14
1e-14
1e-14
1e-14
1e-14
1e-14
1e-14
1e-14
1e-14
1e-14
1e-14
1e-14
1e-14
1e-14
1e-14
1e-14
1e-14
1e-14
1e-14
1e-14
1e-14
1e-14
1e-14
1e-14
1e-14
1e-14
1e-14
1e-14
1e-14
1e-14
1e-14
1e-14
1e-14
1e-14
1e-14
1e-14
1e-14
1e-14
1e-14
1e-14
1e-14
1e-14
1e-14
1e-14
1e-14
1e-14
1e-14
1e-14
1e-14
1e-14
1e-14
1e-14
1e-14
1e-14
1e-14
1e-14
1e-14
1e-14
1e-14
1e-14
1e-14
1e-14
1e-14
1e-14
1e-14
1e-14
1e-14
1e-14
1e-14
1e-14
1e-14
1e-14
1e-14
1.00001e-14
1e-14
1e-14
1e-14
1e-14
1e-14
1e-14
1e-14
1e-14
1e-14
1e-14
1e-14
1e-14
1e-14
1e-14
1e-14
1e-14
1e-14
1e-14
1e-14
1e-14
1e-14
1e-14
1e-14
1e-14
1e-14
1e-14
1.00001e-14
1e-14
1e-14
1e-14
1e-14
1e-14
1e-14
1e-14
1e-14
1e-14
1e-14
1e-14
1e-14
1.00001e-14
1e-14
1e-14
1e-14
1e-14
1e-14
1e-14
1e-14
1e-14
1e-14
1e-14
1e-14
1e-14
1.00001e-14
1.00001e-14
1e-14
1e-14
1e-14
1e-14
1e-14
1e-14
1e-14
1e-14
1e-14
1e-14
1e-14
1e-14
1.00001e-14
1e-14
1e-14
1e-14
1e-14
1e-14
1e-14
1e-14
1e-14
1e-14
1e-14
1e-14
1e-14
1.00001e-14
1e-14
1e-14
1e-14
1e-14
1e-14
1e-14
9.3379e-13
7.80269e-14
5.91389e-14
1.04032e-14
1.15679e-14
4.1737e-14
4.41198e-13
2.4236e-14
1.8369e-14
4.15867e-13
3.89854e-13
1.66115e-14
1.58001e-14
8.00788e-13
3.61914e-13
1.14837e-14
2.65241e-13
3.6651e-14
1.45405e-14
3.41403e-14
2.66211e-14
1.00883e-14
1.08126e-14
1e-14
9.17452e-14
5.49536e-14
1.1991e-14
2.90612e-14
1.27403e-14
1.06945e-14
1.0058e-14
8.19044e-13
8.72914e-13
4.13447e-14
3.36858e-13
2.13758e-14
1.22888e-14
1.01774e-14
8.76774e-13
8.73601e-13
3.62626e-14
8.71259e-13
8.19031e-13
4.13184e-14
1e-14
3.36882e-13
1.22865e-14
2.13555e-14
1.01761e-14
8.00763e-13
5.5147e-14
9.17123e-14
1.19968e-14
3.6189e-13
1.14829e-14
2.90563e-14
1.06941e-14
1.274e-14
1.0058e-14
3.66506e-14
2.65236e-13
1.45403e-14
9.33803e-13
7.80227e-14
3.41339e-14
1.00882e-14
2.66205e-14
1.08124e-14
5.91478e-14
1.04034e-14
1.15689e-14
4.17325e-14
2.42328e-14
4.41234e-13
1.83737e-14
4.15924e-13
1.66215e-14
3.89388e-13
1.57915e-14
8.52281e-13
1e-14
9.28945e-13
6.75192e-14
1e-14
1.00795e-14
5.39247e-14
1.02909e-14
1e-14
1.50509e-14
1.12711e-14
3.6692e-14
3.45824e-13
1.06118e-14
1.48854e-14
4.37758e-13
2.17846e-14
1.71791e-14
3.083e-13
1.30593e-14
1.26097e-14
4.12113e-13
3.85983e-13
1.57127e-14
1.49236e-14
6.37595e-13
7.91633e-13
1.52651e-13
1e-14
3.58516e-13
1.19121e-14
2.12714e-13
1.32556e-14
1.27906e-14
2.63858e-13
3.26149e-14
1.39287e-14
1.90428e-14
1.01013e-14
1e-14
3.22476e-14
2.35071e-14
1.00965e-14
1.05231e-14
1.12041e-14
1e-14
1e-14
1.08696e-14
1.16519e-14
8.04363e-14
5.07503e-14
1.19317e-14
1.0662e-14
1e-14
1.00207e-14
2.57488e-14
1.23952e-14
1.05163e-14
1.00356e-14
6.73317e-13
4.2849e-13
1e-14
8.11479e-13
8.72728e-13
3.7877e-14
1.36761e-14
1.13955e-14
1e-14
3.36385e-13
1.96993e-14
1.20575e-14
1.01146e-14
4.5778e-13
4.5672e-13
1e-14
8.74882e-13
8.71675e-13
3.35321e-14
4.28488e-13
6.73325e-13
1e-14
8.71225e-13
8.11443e-13
3.78249e-14
1.12234e-14
1e-14
1.13946e-14
1.36731e-14
1e-14
3.36379e-13
1.20537e-14
1.96969e-14
1.01142e-14
6.37574e-13
7.91602e-13
1.08703e-14
1e-14
1.16526e-14
5.07425e-14
8.04361e-14
1.19317e-14
1.52653e-13
1e-14
3.585e-13
1.19119e-14
1e-14
1.0662e-14
1.00207e-14
2.57465e-14
1.05161e-14
1.23949e-14
1.00357e-14
1.32555e-14
2.12714e-13
1.27906e-14
3.2614e-14
2.63857e-13
1.39285e-14
8.52277e-13
1e-14
9.28944e-13
6.75203e-14
1.01013e-14
1.90429e-14
1e-14
3.22464e-14
1.00965e-14
2.35072e-14
1.0523e-14
1e-14
1.00795e-14
5.39264e-14
1.02908e-14
1e-14
1.50524e-14
1.12711e-14
3.66883e-14
1.06118e-14
3.45792e-13
1.48884e-14
2.17831e-14
4.37787e-13
1.71838e-14
1.30629e-14
3.08059e-13
1.26089e-14
4.1215e-13
1.57219e-14
3.85757e-13
1.49216e-14
8.53504e-13
1e-14
9.28936e-13
6.81058e-14
1e-14
1.00769e-14
5.41365e-14
1.02639e-14
1e-14
1.69408e-14
1.12524e-14
3.61222e-14
3.48971e-13
1.07836e-14
1.47958e-14
4.37879e-13
2.15035e-14
1.7161e-14
3.10361e-13
1.30788e-14
1.26277e-14
4.12086e-13
3.85957e-13
1.5684e-14
1.48938e-14
6.45036e-13
7.92435e-13
1.60574e-13
1e-14
3.57966e-13
1.21035e-14
2.14353e-13
1.36453e-14
1.2756e-14
2.64062e-13
3.25327e-14
1.39248e-14
1.92336e-14
1.01046e-14
1e-14
3.1755e-14
2.34575e-14
1.00917e-14
1.04947e-14
1.40303e-14
1e-14
1e-14
1.12361e-14
1.16104e-14
8.17688e-14
4.9841e-14
1.19255e-14
1.05826e-14
1e-14
1.00204e-14
2.58832e-14
1.24244e-14
1.04889e-14
1.00351e-14
6.77787e-13
4.44697e-13
1.02294e-14
8.12577e-13
8.70694e-13
3.65638e-14
1.35216e-14
1.13632e-14
1.00017e-14
3.36917e-13
1.9819e-14
1.20051e-14
1.01146e-14
4.747e-13
4.73466e-13
1e-14
8.73033e-13
8.6983e-13
3.24869e-14
4.44614e-13
6.77801e-13
1.02279e-14
8.69205e-13
8.12542e-13
3.65139e-14
1.40321e-14
1e-14
1.13625e-14
1.35217e-14
1.00017e-14
3.36914e-13
1.20016e-14
1.98174e-14
1.01143e-14
6.45017e-13
7.92404e-13
1.1235e-14
1e-14
1.16102e-14
4.98368e-14
8.17682e-14
1.19252e-14
1.60584e-13
1e-14
3.5795e-13
1.21034e-14
1e-14
1.05826e-14
1.00204e-14
2.58812e-14
1.04887e-14
1.24241e-14
1.00351e-14
1.36453e-14
2.1435e-13
1.27559e-14
3.25314e-14
2.64061e-13
1.39245e-14
8.53495e-13
1e-14
9.28936e-13
6.8105e-14
1.01046e-14
1.92334e-14
1e-14
3.17534e-14
1.00917e-14
2.34568e-14
1.04946e-14
1e-14
1.00768e-14
5.41384e-14
1.0264e-14
1e-14
1.69433e-14
1.12524e-14
3.61186e-14
1.07839e-14
3.48934e-13
1.47984e-14
2.15026e-14
4.37909e-13
1.71659e-14
1.3082e-14
3.10134e-13
1.26282e-14
4.12122e-13
1.5693e-14
3.85736e-13
1.48921e-14
8.52392e-13
1e-14
9.28973e-13
6.8223e-14
1e-14
1.00765e-14
5.41089e-14
1.02617e-14
1e-14
1.7313e-14
1.12514e-14
3.61293e-14
3.493e-13
1.08059e-14
1.48351e-14
4.37978e-13
2.14798e-14
1.71851e-14
3.10614e-13
1.31225e-14
1.26701e-14
4.12115e-13
3.86032e-13
1.56995e-14
1.49049e-14
6.45349e-13
7.92668e-13
1.60306e-13
1e-14
3.57607e-13
1.21524e-14
2.14474e-13
1.37393e-14
1.27863e-14
2.64215e-13
3.25218e-14
1.39397e-14
1.93687e-14
1.01066e-14
1e-14
3.16393e-14
2.34723e-14
1.00918e-14
1.04905e-14
1.43275e-14
1e-14
1e-14
1.13097e-14
1.1615e-14
8.2453e-14
4.97069e-14
1.19215e-14
1.05896e-14
1e-14
1.00197e-14
2.59096e-14
1.24381e-14
1.048e-14
1.00336e-14
6.77473e-13
4.44538e-13
1.02963e-14
8.12773e-13
8.70432e-13
3.63355e-14
1.35605e-14
1.13661e-14
1.0002e-14
3.37019e-13
1.98489e-14
1.19996e-14
1.01108e-14
4.74735e-13
4.73506e-13
1.00018e-14
8.72741e-13
8.69543e-13
3.22928e-14
4.44461e-13
6.77503e-13
1.02948e-14
8.6894e-13
8.12737e-13
3.6286e-14
1.43303e-14
1e-14
1.13653e-14
1.35607e-14
1.00021e-14
3.37015e-13
1.1996e-14
1.9847e-14
1.01105e-14
6.45325e-13
7.92638e-13
1.13094e-14
1e-14
1.16149e-14
4.97017e-14
8.24526e-14
1.19212e-14
1.60313e-13
1e-14
3.57596e-13
1.21524e-14
1e-14
1.05895e-14
1.00197e-14
2.59076e-14
1.04799e-14
1.24377e-14
1.00336e-14
1.37389e-14
2.14474e-13
1.27861e-14
3.25204e-14
2.64215e-13
1.39395e-14
8.52387e-13
1e-14
9.28972e-13
6.8227e-14
1.01066e-14
1.93684e-14
1e-14
3.16372e-14
1.00918e-14
2.34717e-14
1.04905e-14
1e-14
1.00764e-14
5.41102e-14
1.02617e-14
1e-14
1.73148e-14
1.12516e-14
3.61256e-14
1.0806e-14
3.49261e-13
1.48377e-14
2.1479e-14
4.38008e-13
1.71901e-14
1.31256e-14
3.10392e-13
1.26704e-14
4.12156e-13
1.57087e-14
3.85807e-13
1.49031e-14
8.51926e-13
1e-14
9.28878e-13
6.82695e-14
1e-14
1.00766e-14
5.40507e-14
1.02669e-14
1e-14
1.74123e-14
1.12499e-14
3.63025e-14
3.4925e-13
1.07886e-14
1.48456e-14
4.38067e-13
2.15756e-14
1.72384e-14
3.10608e-13
1.31297e-14
1.26747e-14
4.12163e-13
3.86028e-13
1.57294e-14
1.49264e-14
6.45473e-13
7.92785e-13
1.59983e-13
1e-14
3.57294e-13
1.21882e-14
2.14507e-13
1.36914e-14
1.279e-14
2.64443e-13
3.25332e-14
1.39486e-14
1.94043e-14
1.01066e-14
1e-14
3.15083e-14
2.35088e-14
1.00918e-14
1.04882e-14
1.43558e-14
1e-14
1e-14
1.12848e-14
1.16073e-14
8.30707e-14
4.96106e-14
1.19114e-14
1.05946e-14
1e-14
1.00189e-14
2.58943e-14
1.2444e-14
1.04718e-14
1.00318e-14
6.77451e-13
4.44363e-13
1.02977e-14
8.12759e-13
8.70419e-13
3.63196e-14
1.35683e-14
1.13642e-14
1.00018e-14
3.37028e-13
1.98472e-14
1.19951e-14
1.01083e-14
4.74609e-13
4.73388e-13
1.00019e-14
8.72651e-13
8.69456e-13
3.22875e-14
4.44289e-13
6.77472e-13
1.02959e-14
8.68926e-13
8.12724e-13
3.62692e-14
1.43594e-14
1e-14
1.13634e-14
1.35682e-14
1.00018e-14
3.37023e-13
1.19915e-14
1.9845e-14
1.01081e-14
6.45455e-13
7.92756e-13
1.12842e-14
1e-14
1.16071e-14
4.96052e-14
8.3072e-14
1.19112e-14
1.59991e-13
1e-14
3.57283e-13
1.21883e-14
1e-14
1.05945e-14
1.00189e-14
2.58918e-14
1.04716e-14
1.24435e-14
1.00318e-14
1.36908e-14
2.14506e-13
1.27899e-14
3.25316e-14
2.64444e-13
1.39485e-14
8.51914e-13
1e-14
9.28878e-13
6.82704e-14
1.01066e-14
1.94044e-14
1e-14
3.15062e-14
1.00918e-14
2.35079e-14
1.04881e-14
1e-14
1.00766e-14
5.40522e-14
1.0267e-14
1e-14
1.74146e-14
1.125e-14
3.62994e-14
1.07888e-14
3.49216e-13
1.48482e-14
2.15749e-14
4.38097e-13
1.72435e-14
1.31329e-14
3.10387e-13
1.2675e-14
4.12202e-13
1.57389e-14
3.858e-13
1.49245e-14
8.51612e-13
1e-14
9.28712e-13
6.86899e-14
1e-14
1.00743e-14
5.40842e-14
1.03042e-14
1e-14
1.75708e-14
1.12786e-14
3.66698e-14
3.48717e-13
1.0766e-14
1.48637e-14
4.38127e-13
2.19322e-14
1.73936e-14
3.10227e-13
1.31331e-14
1.26711e-14
4.12446e-13
3.86098e-13
1.58018e-14
1.49712e-14
6.45568e-13
7.92927e-13
1.59404e-13
1e-14
3.56948e-13
1.2243e-14
2.14598e-13
1.35873e-14
1.27863e-14
2.65036e-13
3.2633e-14
1.39687e-14
1.94889e-14
1.01057e-14
1e-14
3.11178e-14
2.36778e-14
1.00911e-14
1.04842e-14
1.43795e-14
1e-14
1e-14
1.12211e-14
1.15883e-14
8.39276e-14
4.96376e-14
1.19076e-14
1.06018e-14
1e-14
1.0018e-14
2.59309e-14
1.24554e-14
1.04635e-14
1.00294e-14
6.77401e-13
4.44235e-13
1.0294e-14
8.12704e-13
8.70339e-13
3.652e-14
1.35612e-14
1.13604e-14
1.00009e-14
3.37002e-13
1.98564e-14
1.20004e-14
1.01082e-14
4.74443e-13
4.73226e-13
1.00017e-14
8.72547e-13
8.69355e-13
3.24055e-14
4.44166e-13
6.77422e-13
1.0292e-14
8.68843e-13
8.1267e-13
3.64717e-14
1.43833e-14
1e-14
1.13598e-14
1.35608e-14
1.00009e-14
3.36991e-13
1.19967e-14
1.98538e-14
1.0108e-14
6.45551e-13
7.92898e-13
1.12201e-14
1e-14
1.15882e-14
4.96316e-14
8.39281e-14
1.19074e-14
1.59413e-13
1e-14
3.56935e-13
1.22433e-14
1e-14
1.06017e-14
1.0018e-14
2.59285e-14
1.04633e-14
1.24549e-14
1.00294e-14
1.35865e-14
2.14598e-13
1.27862e-14
3.2631e-14
2.65038e-13
1.39686e-14
8.51605e-13
1e-14
9.2871e-13
6.86927e-14
1.01056e-14
1.94887e-14
1e-14
3.11168e-14
1.00911e-14
2.36771e-14
1.04841e-14
1e-14
1.00744e-14
5.4086e-14
1.03042e-14
1e-14
1.75733e-14
1.12787e-14
3.66674e-14
1.0766e-14
3.48677e-13
1.48663e-14
2.1932e-14
4.38159e-13
1.73993e-14
1.31365e-14
3.10001e-13
1.26714e-14
4.12495e-13
1.58122e-14
3.85868e-13
1.49693e-14
8.49448e-13
1e-14
9.29416e-13
7.01683e-14
1e-14
1.00659e-14
5.57003e-14
1.0447e-14
1e-14
1.82985e-14
1.14939e-14
3.73395e-14
3.47026e-13
1.07188e-14
1.48915e-14
4.38907e-13
2.30558e-14
1.7878e-14
3.08935e-13
1.30796e-14
1.26108e-14
4.13587e-13
3.86757e-13
1.61486e-14
1.52006e-14
6.45385e-13
7.9447e-13
1.57605e-13
1e-14
3.5607e-13
1.22977e-14
2.14438e-13
1.33931e-14
1.27494e-14
2.66845e-13
3.30397e-14
1.40743e-14
1.98038e-14
1.01015e-14
1e-14
3.1642e-14
2.45677e-14
1.01036e-14
1.04843e-14
1.44186e-14
1e-14
1e-14
1.10483e-14
1.15395e-14
8.75672e-14
5.14068e-14
1.19809e-14
1.06093e-14
1e-14
1.00157e-14
2.63171e-14
1.24905e-14
1.04639e-14
1.00268e-14
6.76884e-13
4.43553e-13
1.02948e-14
8.13284e-13
8.69921e-13
3.76185e-14
1.35019e-14
1.13452e-14
1.00035e-14
3.38649e-13
2.01079e-14
1.20675e-14
1.00976e-14
4.73918e-13
4.7269e-13
1.00019e-14
8.72389e-13
8.69329e-13
3.28287e-14
4.43472e-13
6.76899e-13
1.02931e-14
8.6845e-13
8.13259e-13
3.75829e-14
1.4422e-14
1e-14
1.13447e-14
1.3501e-14
1.00035e-14
3.38626e-13
1.20635e-14
2.01055e-14
1.00976e-14
6.45367e-13
7.94463e-13
1.10471e-14
1e-14
1.15393e-14
5.14009e-14
8.75705e-14
1.19809e-14
1.5761e-13
1e-14
3.56063e-13
1.22982e-14
1e-14
1.06092e-14
1.00157e-14
2.63155e-14
1.04639e-14
1.249e-14
1.00268e-14
1.33918e-14
2.14442e-13
1.27492e-14
3.30379e-14
2.66849e-13
1.40743e-14
8.49457e-13
1e-14
9.29416e-13
7.01772e-14
1.01015e-14
1.98034e-14
1e-14
3.16408e-14
1.01036e-14
2.45672e-14
1.04842e-14
1e-14
1.00658e-14
5.57039e-14
1.04471e-14
1e-14
1.83025e-14
1.14944e-14
3.73388e-14
1.07183e-14
3.4699e-13
1.4894e-14
2.30575e-14
4.38953e-13
1.78863e-14
1.3083e-14
3.08707e-13
1.26114e-14
4.13652e-13
1.61621e-14
3.86527e-13
1.51991e-14
8.50381e-13
1e-14
8.98416e-13
1.29495e-13
1e-14
1e-14
4.82143e-14
1.21549e-14
1e-14
1.88248e-14
1.77712e-14
4.66761e-14
3.38719e-13
1.05467e-14
1.45298e-14
5.28065e-13
2.5333e-14
1.93631e-14
3.00887e-13
1.16992e-14
1.13329e-14
4.97897e-13
4.77802e-13
1.87139e-14
1.72725e-14
6.39194e-13
7.70857e-13
1.46699e-13
1e-14
3.36772e-13
1.22596e-14
2.12683e-13
1.30328e-14
1.24567e-14
3.17581e-13
3.51697e-14