/*--------------------------------*- C++ -*----------------------------------*\
| =========                 |                                                 |
| \\      /  F ield         | OpenFOAM: The Open Source CFD Toolbox           |
|  \\    /   O peration     | Version:  2.1.1                                 |
|   \\  /    A nd           | Web:      www.OpenFOAM.org                      |
|    \\/     M anipulation  |                                                 |
\*---------------------------------------------------------------------------*/
FoamFile
{
    version     2.0;
    format      ascii;
    class       volScalarField;
    location    "0.09";
    object      p;
}
// * * * * * * * * * * * * * * * * * * * * * * * * * * * * * * * * * * * * * //

dimensions      [0 2 -2 0 0 0 0];

internalField   nonuniform List<scalar> 
163952
(
0.0416937
0.0411174
0.0363814
0.0311866
0.0299899
0.0273785
0.0267884
0.0264647
0.0367015
0.0323593
0.0273179
0.0248282
0.0235846
0.0228056
0.0224913
0.0223501
0.0337326
0.0279957
0.0244921
0.0228524
0.0219399
0.021402
0.0210634
0.0208831
0.0207976
0.0336024
0.0261036
0.0232692
0.0219227
0.0211674
0.0206887
0.0203691
0.0201575
0.0200313
0.0199678
0.0336037
0.0255616
0.022745
0.0214668
0.020752
0.0202883
0.0199643
0.0197336
0.0195741
0.0194735
0.0194211
0.0337329
0.0261037
0.022745
0.0213233
0.0205608
0.0200721
0.0197267
0.0194728
0.0192862
0.0191542
0.0190686
0.0190232
0.0367013
0.0279958
0.0232693
0.0214669
0.0205609
0.0200025
0.0196143
0.0193277
0.019112
0.0189515
0.0188366
0.0187611
0.0187206
0.0323596
0.0244922
0.0219228
0.0207521
0.0200722
0.0196143
0.0192808
0.0190291
0.0188378
0.0186946
0.0185915
0.0185232
0.0184864
0.0363816
0.0273181
0.0228526
0.0211676
0.0202884
0.0197268
0.0193277
0.0190291
0.0188011
0.0186269
0.0184958
0.0184012
0.0183383
0.0183042
0.031187
0.0248284
0.0219401
0.0206889
0.0199645
0.0194729
0.0191122
0.0188379
0.0186269
0.0184649
0.0183427
0.0182542
0.0181952
0.0181632
0.0299902
0.0235849
0.0214023
0.0203693
0.0197338
0.0192864
0.0189516
0.0186947
0.0184959
0.0183428
0.018227
0.0181428
0.0180867
0.0180562
0.0273788
0.0228059
0.0210637
0.0201578
0.0195743
0.0191544
0.0188368
0.0185916
0.0184013
0.0182543
0.0181429
0.0180618
0.0180076
0.0179782
0.041694
0.0267887
0.0224916
0.0208834
0.0200316
0.0194738
0.0190689
0.0187613
0.0185234
0.0183384
0.0181953
0.0180867
0.0180076
0.0179547
0.017926
0.0411178
0.0264651
0.0223504
0.0207979
0.0199682
0.0194214
0.0190235
0.0187209
0.0184867
0.0183044
0.0181634
0.0180563
0.0179782
0.017926
0.0178976
0.0235197
0.0235765
0.0225144
0.0237237
0.0224547
0.0221406
0.0220958
0.0220749
0.0226192
0.0244331
0.0221203
0.0218081
0.0215476
0.0213568
0.021282
0.0212303
0.0233973
0.0221722
0.0217543
0.0213424
0.0210017
0.0207231
0.0205383
0.0204422
0.0203928
0.0221418
0.0218514
0.0214143
0.020973
0.0205803
0.0202692
0.020033
0.0198733
0.0197811
0.0197368
0.0221425
0.0217223
0.0212302
0.0207263
0.0202994
0.019957
0.0196975
0.0195062
0.0193744
0.0192942
0.0192556
0.0233976
0.0218517
0.0212302
0.0206463
0.0201575
0.0197796
0.0194904
0.0192726
0.0191119
0.0189996
0.0189292
0.0188952
0.0226194
0.0221724
0.0214144
0.0207264
0.0201575
0.019721
0.0193916
0.0191413
0.018952
0.0188117
0.0187127
0.0186498
0.0186192
0.0244333
0.0217545
0.0209732
0.0202995
0.0197797
0.0193917
0.0190989
0.0188757
0.0187062
0.01858
0.0184904
0.018433
0.018405
0.0225147
0.0221205
0.0213426
0.0205805
0.0199571
0.0194905
0.0191414
0.0188758
0.0186721
0.0185166
0.0184003
0.0183175
0.0182642
0.0182381
0.0237239
0.0218084
0.0210019
0.0202694
0.0196976
0.0192727
0.0189521
0.0187063
0.0185167
0.0183712
0.0182621
0.018184
0.0181337
0.018109
0.022455
0.0215479
0.0207233
0.0200332
0.0195064
0.019112
0.0188118
0.0185801
0.0184004
0.0182621
0.018158
0.0180835
0.0180353
0.0180116
0.022141
0.0213571
0.0205386
0.0198736
0.0193747
0.0189998
0.0187129
0.0184905
0.0183176
0.0181841
0.0180835
0.0180113
0.0179646
0.0179417
0.0235201
0.0220961
0.0212824
0.0204426
0.0197815
0.0192945
0.0189295
0.01865
0.0184332
0.0182643
0.0181338
0.0180354
0.0179647
0.0179189
0.0178965
0.0235769
0.0220753
0.0212307
0.0203931
0.0197372
0.019256
0.0188955
0.0186195
0.0184052
0.0182383
0.0181092
0.0180118
0.0179418
0.0178965
0.0178742
0.019876
0.0198903
0.0199552
0.0203371
0.0205606
0.0204449
0.0203374
0.0202968
0.019962
0.0208059
0.0203557
0.0202777
0.0201829
0.0201441
0.0201148
0.0200894
0.0201723
0.0203695
0.0202692
0.0201487
0.020012
0.0198675
0.0197762
0.0197212
0.0196908
0.0205195
0.0203026
0.0201775
0.0199977
0.0198058
0.01964
0.0195002
0.0194002
0.0193379
0.0193066
0.0205203
0.0202574
0.0201045
0.019883
0.0196581
0.0194556
0.0192895
0.0191582
0.0190636
0.0190037
0.0189741
0.0201725
0.0203028
0.0201045
0.0198451
0.0195793
0.0193458
0.0191494
0.0189912
0.0188686
0.0187801
0.0187235
0.0186957
0.0199622
0.0203697
0.0201777
0.0198831
0.0195794
0.0193084
0.0190802
0.0188929
0.0187439
0.0186295
0.018547
0.0184938
0.0184677
0.0208061
0.0202694
0.0199978
0.0196582
0.0193459
0.0190802
0.0188606
0.0186829
0.0185426
0.0184353
0.0183579
0.0183078
0.0182832
0.0199554
0.0203559
0.0201489
0.019806
0.0194557
0.0191496
0.018893
0.0186829
0.0185141
0.0183812
0.0182797
0.0182065
0.0181589
0.0181356
0.0203373
0.020278
0.0200123
0.0196402
0.0192897
0.0189914
0.018744
0.0185426
0.0183812
0.0182542
0.0181573
0.0180873
0.0180418
0.0180194
0.0205609
0.0201832
0.0198678
0.0195005
0.0191585
0.0188688
0.0186297
0.0184355
0.0182798
0.0181574
0.0180639
0.0179962
0.0179523
0.0179306
0.0204453
0.0201445
0.0197766
0.0194005
0.0190639
0.0187804
0.0185472
0.0183581
0.0182066
0.0180873
0.0179963
0.0179304
0.0178875
0.0178664
0.0198764
0.0203378
0.0201151
0.0197216
0.0193382
0.019004
0.0187238
0.0184941
0.018308
0.0181591
0.0180419
0.0179524
0.0178876
0.0178454
0.0178246
0.0198907
0.0202972
0.0200898
0.0196912
0.019307
0.0189744
0.018696
0.018468
0.0182835
0.0181358
0.0180195
0.0179308
0.0178665
0.0178247
0.0178041
0.0185288
0.0185391
0.018646
0.018873
0.0192039
0.0192035
0.0191511
0.019129
0.0186609
0.0190868
0.0191268
0.0191143
0.0190851
0.0190866
0.0190853
0.0190818
0.0188018
0.0191307
0.0191182
0.0191112
0.0190826
0.0190309
0.0189951
0.0189698
0.0189555
0.0192341
0.0191341
0.0191281
0.0190779
0.0190118
0.0189476
0.0188849
0.0188351
0.0188004
0.0187821
0.0192347
0.0191144
0.0191095
0.0190465
0.0189571
0.0188638
0.0187781
0.0187036
0.0186466
0.0186084
0.018589
0.0188019
0.0191343
0.0191094
0.0190352
0.0189266
0.0188105
0.0187003
0.0186033
0.018523
0.0184626
0.0184226
0.0184026
0.0186611
0.0191309
0.0191282
0.0190466
0.0189266
0.0187919
0.01866
0.0185406
0.0184389
0.0183569
0.0182958
0.0182555
0.0182354
0.019087
0.0191184
0.0190781
0.0189572
0.0188106
0.0186601
0.0185195
0.0183962
0.0182934
0.0182118
0.0181513
0.0181115
0.0180917
0.0186462
0.0191271
0.0191114
0.019012
0.018864
0.0187004
0.0185407
0.0183962
0.0182722
0.0181701
0.0180896
0.0180302
0.0179912
0.0179718
0.0188733
0.0191146
0.0190828
0.0189478
0.0187783
0.0186035
0.018439
0.0182935
0.0181701
0.0180692
0.0179902
0.017932
0.0178937
0.0178748
0.0192042
0.0190854
0.0190312
0.0188851
0.0187039
0.0185232
0.0183571
0.0182119
0.0180897
0.0179902
0.0179125
0.0178553
0.0178178
0.0177992
0.0192039
0.0190869
0.0189955
0.0188354
0.0186469
0.0184628
0.018296
0.0181515
0.0180304
0.0179321
0.0178553
0.017799
0.017762
0.0177437
0.0185292
0.0191515
0.0190857
0.0189701
0.0188008
0.0186088
0.0184229
0.0182557
0.0181117
0.0179914
0.0178939
0.0178179
0.0177621
0.0177255
0.0177073
0.0185395
0.0191295
0.0190822
0.0189559
0.0187825
0.0185894
0.0184029
0.0182357
0.018092
0.017972
0.0178749
0.0177993
0.0177438
0.0177073
0.0176893
0.0178108
0.0178189
0.0178718
0.0180204
0.0182368
0.0182803
0.0182707
0.0182691
0.0178968
0.0181292
0.018237
0.0182561
0.0182616
0.018274
0.0182822
0.0182867
0.0179867
0.0182384
0.0182647
0.0182979
0.0183163
0.0183158
0.0183128
0.0183068
0.0183025
0.018271
0.0182605
0.0183044
0.0183178
0.0183181
0.0183106
0.0182953
0.0182793
0.0182656
0.0182576
0.0182714
0.0182552
0.0183113
0.0183268
0.0183145
0.0182894
0.018258
0.0182253
0.0181975
0.0181775
0.0181669
0.0179868
0.0182606
0.0183113
0.0183295
0.0183116
0.0182726
0.018225
0.0181763
0.0181318
0.0180962
0.0180715
0.0180589
0.017897
0.0182386
0.0183046
0.0183269
0.0183117
0.0182666
0.0182064
0.0181427
0.0180828
0.0180312
0.0179909
0.0179636
0.0179498
0.0181294
0.0182649
0.018318
0.0183146
0.0182727
0.0182065
0.018131
0.0180567
0.01799
0.0179342
0.0178915
0.0178627
0.0178482
0.0178721
0.0182373
0.0182981
0.0183183
0.0182896
0.0182251
0.0181428
0.0180567
0.0179759
0.0179052
0.0178471
0.0178031
0.0177736
0.0177588
0.0180207
0.0182564
0.0183166
0.0183109
0.0182582
0.0181765
0.0180829
0.01799
0.0179052
0.0178323
0.017773
0.0177284
0.0176985
0.0176836
0.0182372
0.0182619
0.0183161
0.0182956
0.0182255
0.018132
0.0180313
0.0179343
0.0178472
0.0177731
0.0177133
0.0176684
0.0176385
0.0176235
0.0182807
0.0182744
0.0183132
0.0182796
0.0181978
0.0180964
0.0179912
0.0178916
0.0178032
0.0177284
0.0176684
0.0176234
0.0175935
0.0175786
0.0178112
0.0182711
0.0182826
0.0183072
0.0182659
0.0181778
0.0180718
0.0179639
0.0178629
0.0177737
0.0176987
0.0176386
0.0175936
0.0175637
0.0175488
0.0178194
0.0182695
0.0182872
0.0183029
0.018258
0.0181673
0.0180593
0.0179501
0.0178485
0.017759
0.0176838
0.0176236
0.0175787
0.0175488
0.0175339
0.0173006
0.0173073
0.0173199
0.0174127
0.0175378
0.0175882
0.0175933
0.0175993
0.017342
0.0174859
0.0175679
0.0175989
0.0176202
0.0176396
0.0176502
0.0176562
0.0173969
0.0175683
0.0176098
0.0176539
0.0176879
0.0177086
0.0177226
0.0177283
0.0177301
0.0175689
0.0175956
0.0176539
0.0176925
0.0177217
0.0177416
0.0177518
0.0177562
0.0177565
0.0177558
0.0175691
0.0175999
0.0176706
0.0177167
0.0177423
0.0177553
0.0177577
0.0177532
0.0177465
0.0177402
0.0177365
0.017397
0.0175958
0.0176706
0.0177252
0.017753
0.0177604
0.0177547
0.0177411
0.0177243
0.0177086
0.0176969
0.0176905
0.0173422
0.0175685
0.017654
0.0177168
0.0177531
0.017762
0.0177513
0.0177295
0.0177032
0.0176771
0.0176551
0.0176394
0.0176312
0.0174862
0.01761
0.0176927
0.0177425
0.0177605
0.0177514
0.0177251
0.0176908
0.0176551
0.0176225
0.0175961
0.0175777
0.0175683
0.0173201
0.0175681
0.0176542
0.0177219
0.0177555
0.0177549
0.0177296
0.0176908
0.0176472
0.017605
0.017568
0.0175387
0.0175185
0.0175083
0.017413
0.0175992
0.0176882
0.0177419
0.017758
0.0177413
0.0177033
0.0176552
0.017605
0.0175583
0.0175184
0.0174872
0.0174659
0.0174551
0.0175382
0.0176206
0.017709
0.0177522
0.0177535
0.0177245
0.0176773
0.0176226
0.0175681
0.0175184
0.0174766
0.0174442
0.0174222
0.0174111
0.0175886
0.01764
0.0177229
0.0177566
0.0177468
0.0177089
0.0176554
0.0175963
0.0175388
0.0174873
0.0174442
0.0174111
0.0173886
0.0173773
0.017301
0.0175938
0.0176507
0.0177287
0.0177569
0.0177406
0.0176972
0.0176397
0.017578
0.0175187
0.0174661
0.0174223
0.0173887
0.017366
0.0173546
0.0173078
0.0175998
0.0176567
0.0177306
0.0177562
0.0177369
0.0176909
0.0176315
0.0175686
0.0175085
0.0174553
0.0174112
0.0173774
0.0173546
0.0173431
0.0168672
0.0168747
0.0168674
0.0169272
0.0169941
0.0170401
0.0170492
0.017057
0.0168854
0.0169866
0.0170338
0.0170651
0.0170903
0.0171132
0.0171254
0.0171321
0.0169198
0.0170338
0.0170774
0.0171215
0.017158
0.0171849
0.0172057
0.0172174
0.0172227
0.017021
0.0170595
0.0171181
0.0171639
0.0172032
0.0172347
0.0172573
0.0172727
0.0172813
0.017285
0.0170211
0.0170671
0.0171365
0.0171917
0.0172339
0.0172662
0.017288
0.0173011
0.0173084
0.0173117
0.0173129
0.0169199
0.0170596
0.0171365
0.0172018
0.0172503
0.0172834
0.0173038
0.0173139
0.0173168
0.0173162
0.0173144
0.0173131
0.0168856
0.017034
0.0171182
0.0171918
0.0172504
0.0172892
0.0173104
0.017318
0.0173167
0.0173107
0.0173034
0.0172974
0.017294
0.0169868
0.0170776
0.0171641
0.017234
0.0172835
0.0173104
0.0173188
0.0173149
0.017304
0.0172908
0.0172785
0.0172692
0.0172642
0.0168677
0.0170341
0.0171218
0.0172034
0.0172664
0.017304
0.0173181
0.0173149
0.0173013
0.0172831
0.0172644
0.0172483
0.0172367
0.0172306
0.0169275
0.0170655
0.0171583
0.017235
0.0172882
0.0173141
0.0173169
0.0173041
0.0172831
0.0172594
0.0172368
0.017218
0.0172047
0.0171979
0.0169945
0.0170907
0.0171852
0.0172576
0.0173014
0.0173171
0.0173109
0.017291
0.0172645
0.0172368
0.0172115
0.0171909
0.0171765
0.0171691
0.0170406
0.0171137
0.0172061
0.0172731
0.0173087
0.0173165
0.0173037
0.0172787
0.0172485
0.0172181
0.017191
0.0171691
0.017154
0.0171462
0.0168676
0.0170497
0.0171259
0.0172179
0.0172817
0.0173121
0.0173148
0.0172977
0.0172694
0.0172369
0.0172049
0.0171766
0.017154
0.0171384
0.0171304
0.0168752
0.0170575
0.0171326
0.0172232
0.0172854
0.0173133
0.0173135
0.0172943
0.0172645
0.0172309
0.0171981
0.0171692
0.0171463
0.0171304
0.0171223
0.0164771
0.0164851
0.0164739
0.0165132
0.0165451
0.0165835
0.0165933
0.0166009
0.0164873
0.0165645
0.0165858
0.0166134
0.016637
0.0166597
0.0166723
0.0166793
0.0165103
0.0165858
0.0166259
0.0166661
0.0167004
0.0167272
0.0167494
0.0167632
0.01677
0.0165677
0.0166073
0.0166612
0.0167066
0.0167474
0.0167823
0.0168097
0.0168301
0.0168429
0.016849
0.0165679
0.0166151
0.0166783
0.0167335
0.0167809
0.0168213
0.0168529
0.0168758
0.0168915
0.0169009
0.0169052
0.0165105
0.0166075
0.0166783
0.0167433
0.0167989
0.0168444
0.0168794
0.0169039
0.0169199
0.0169297
0.016935
0.0169372
0.0164875
0.016586
0.0166614
0.0167336
0.016799
0.0168523
0.0168918
0.0169183
0.0169343
0.0169429
0.0169468
0.0169482
0.0169486
0.0165647
0.0166261
0.0167068
0.0167811
0.0168445
0.0168918
0.0169227
0.0169401
0.0169479
0.0169497
0.0169487
0.0169468
0.0169456
0.0164743
0.0165862
0.0166664
0.0167477
0.0168215
0.0168795
0.0169184
0.0169402
0.0169491
0.0169498
0.0169462
0.0169412
0.0169368
0.0169343
0.0165136
0.0166138
0.0167007
0.0167826
0.0168532
0.0169042
0.0169345
0.016948
0.0169499
0.016945
0.0169371
0.0169291
0.0169228
0.0169194
0.0165456
0.0166374
0.0167276
0.01681
0.0168761
0.0169202
0.0169431
0.0169499
0.0169463
0.0169372
0.0169262
0.016916
0.0169084
0.0169043
0.016584
0.0166602
0.0167498
0.0168306
0.0168919
0.01693
0.0169471
0.0169489
0.0169414
0.0169292
0.0169161
0.0169045
0.0168959
0.0168913
0.0164775
0.0165938
0.0166728
0.0167637
0.0168434
0.0169013
0.0169353
0.0169486
0.0169471
0.016937
0.016923
0.0169085
0.0168959
0.0168868
0.0168819
0.0164856
0.0166015
0.0166799
0.0167706
0.0168495
0.0169057
0.0169377
0.016949
0.0169459
0.0169346
0.0169196
0.0169045
0.0168914
0.016882
0.016877
0.0161217
0.0161292
0.0161205
0.0161469
0.0161583
0.016189
0.016198
0.0162047
0.0161304
0.0161919
0.0161961
0.0162193
0.0162398
0.0162603
0.016272
0.0162786
0.016147
0.0161961
0.0162312
0.0162665
0.016297
0.0163215
0.0163425
0.0163562
0.0163633
0.0161774
0.0162139
0.0162614
0.0163031
0.0163416
0.0163757
0.0164036
0.0164255
0.0164397
0.0164468
0.0161776
0.016221
0.0162764
0.0163275
0.0163742
0.0164162
0.0164514
0.0164789
0.0164989
0.0165116
0.0165178
0.0161472
0.0162141
0.0162764
0.0163364
0.0163918
0.0164413
0.0164829
0.0165153
0.016539
0.0165552
0.0165651
0.0165698
0.0161306
0.0161963
0.0162616
0.0163276
0.0163919
0.01645
0.0164983
0.0165357
0.0165627
0.016581
0.0165927
0.0165995
0.0166026
0.0161921
0.0162315
0.0163034
0.0163744
0.0164414
0.0164984
0.0165423
0.0165735
0.0165942
0.016607
0.0166144
0.0166183
0.01662
0.0161209
0.0161965
0.0162668
0.0163419
0.0164165
0.016483
0.0165358
0.0165736
0.0165982
0.0166129
0.0166209
0.0166246
0.0166261
0.0166265
0.0161473
0.0162197
0.0162974
0.016376
0.0164517
0.0165155
0.0165629
0.0165943
0.016613
0.0166226
0.0166266
0.0166274
0.016627
0.0166265
0.0161587
0.0162402
0.016322
0.016404
0.0164792
0.0165393
0.0165813
0.0166072
0.016621
0.0166266
0.0166275
0.0166261
0.0166242
0.016623
0.0161896
0.0162608
0.016343
0.0164259
0.0164993
0.0165556
0.016593
0.0166147
0.0166248
0.0166275
0.0166262
0.0166232
0.0166203
0.0166186
0.0161222
0.0161986
0.0162725
0.0163568
0.0164402
0.0165121
0.0165655
0.0165999
0.0166187
0.0166264
0.0166272
0.0166244
0.0166204
0.0166169
0.0166149
0.0161297
0.0162054
0.0162793
0.0163639
0.0164474
0.0165183
0.0165703
0.016603
0.0166203
0.0166268
0.0166267
0.0166232
0.0166187
0.0166149
0.0166127
0.0157955
0.0158021
0.0157967
0.0158149
0.0158137
0.0158382
0.0158459
0.0158514
0.0158043
0.0158546
0.0158474
0.0158666
0.0158839
0.0159016
0.0159118
0.0159177
0.0158173
0.0158477
0.0158778
0.0159081
0.0159345
0.015956
0.0159747
0.0159873
0.0159938
0.0158304
0.0158626
0.0159035
0.0159404
0.0159749
0.0160062
0.0160325
0.0160536
0.0160678
0.0160749
0.0158305
0.0158688
0.0159165
0.0159619
0.016005
0.0160451
0.0160802
0.0161086
0.0161301
0.0161443
0.0161512
0.0158175
0.0158627
0.0159165
0.0159697
0.0160213
0.0160699
0.0161129
0.0161485
0.0161759
0.0161956
0.0162082
0.0162143
0.0158046
0.0158479
0.0159037
0.015962
0.0160213
0.0160785
0.0161295
0.0161718
0.0162048
0.0162291
0.0162458
0.0162562
0.0162611
0.0158549
0.0158781
0.0159406
0.0160051
0.01607
0.0161295
0.0161796
0.0162187
0.0162475
0.0162678
0.0162811
0.0162892
0.0162929
0.0157971
0.0158478
0.0159084
0.0159752
0.0160454
0.0161131
0.016172
0.0162188
0.0162534
0.0162778
0.016294
0.0163043
0.0163102
0.0163129
0.0158154
0.0158671
0.0159349
0.0160066
0.0160805
0.0161487
0.0162051
0.0162477
0.0162779
0.016298
0.0163108
0.0163185
0.0163227
0.0163245
0.0158142
0.0158845
0.0159565
0.0160329
0.016109
0.0161762
0.0162294
0.016268
0.0162942
0.0163109
0.0163209
0.0163265
0.0163294
0.0163305
0.0158388
0.0159022
0.0159752
0.0160541
0.0161306
0.016196
0.0162462
0.0162814
0.0163045
0.0163187
0.0163266
0.0163307
0.0163325
0.0163332
0.015796
0.0158465
0.0159124
0.0159879
0.0160683
0.0161448
0.0162087
0.0162566
0.0162895
0.0163105
0.0163229
0.0163295
0.0163326
0.0163338
0.0163341
0.0158026
0.0158521
0.0159184
0.0159945
0.0160756
0.0161518
0.0162149
0.0162616
0.0162933
0.0163133
0.0163248
0.0163307
0.0163333
0.0163342
0.0163344
0.015493
0.0154984
0.0154959
0.0155092
0.0154991
0.0155188
0.0155251
0.0155295
0.015502
0.0155439
0.0155287
0.0155446
0.0155591
0.0155739
0.0155824
0.0155875
0.0155128
0.0155295
0.015555
0.0155807
0.0156032
0.0156215
0.0156376
0.0156485
0.0156544
0.0155143
0.0155421
0.015577
0.0156089
0.0156389
0.0156665
0.0156901
0.0157093
0.0157224
0.0157292
0.0155144
0.0155475
0.0155882
0.0156276
0.0156658
0.0157022
0.015735
0.0157623
0.0157835
0.0157976
0.0158047
0.015513
0.0155423
0.0155882
0.0156344
0.0156804
0.0157254
0.0157668
0.0158023
0.0158307
0.0158517
0.0158655
0.0158722
0.0155023
0.0155297
0.0155772
0.0156277
0.0156805
0.0157335
0.0157832
0.0158265
0.0158619
0.015889
0.0159085
0.0159209
0.0159269
0.0155442
0.0155553
0.0156091
0.015666
0.0157255
0.0157832
0.0158346
0.0158772
0.0159105
0.0159351
0.0159523
0.015963
0.0159682
0.0154964
0.0155291
0.0155811
0.0156393
0.0157025
0.015767
0.0158266
0.0158773
0.0159175
0.0159478
0.0159695
0.0159843
0.0159934
0.0159976
0.0155097
0.0155451
0.0156036
0.0156669
0.0157353
0.0158026
0.0158621
0.0159106
0.0159479
0.0159751
0.0159941
0.0160067
0.0160143
0.0160178
0.0154997
0.0155597
0.015622
0.0156906
0.0157627
0.015831
0.0158893
0.0159354
0.0159697
0.0159942
0.0160109
0.0160218
0.0160282
0.0160311
0.0155195
0.0155745
0.0156382
0.0157099
0.015784
0.0158522
0.0159089
0.0159526
0.0159846
0.0160069
0.0160218
0.0160314
0.0160369
0.0160394
0.0154935
0.0155258
0.0155831
0.0156492
0.0157231
0.0157982
0.015866
0.0159214
0.0159634
0.0159937
0.0160146
0.0160283
0.016037
0.0160419
0.0160441
0.015499
0.0155304
0.0155883
0.0156551
0.0157299
0.0158054
0.0158728
0.0159275
0.0159686
0.015998
0.0160182
0.0160313
0.0160395
0.0160442
0.0160463
0.0152088
0.0152134
0.015213
0.0152235
0.0152068
0.0152227
0.0152276
0.0152313
0.0152182
0.0152536
0.0152328
0.015246
0.0152579
0.0152701
0.015277
0.0152813
0.0152276
0.0152341
0.0152556
0.0152773
0.0152961
0.0153114
0.0153248
0.0153339
0.0153389
0.0152211
0.0152451
0.0152747
0.0153017
0.0153272
0.0153509
0.0153712
0.0153879
0.0153995
0.0154055
0.0152212
0.0152499
0.0152844
0.0153179
0.0153508
0.0153827
0.0154119
0.0154368
0.0154564
0.0154697
0.0154764
0.0152278
0.0152452
0.0152844
0.0153238
0.0153636
0.0154036
0.0154414
0.0154748
0.0155022
0.015523
0.0155368
0.0155437
0.0152185
0.0152344
0.0152749
0.015318
0.0153637
0.0154109
0.0154568
0.0154984
0.0155335
0.0155613
0.0155818
0.0155951
0.0156016
0.015254
0.0152559
0.015302
0.015351
0.0154037
0.0154569
0.0155064
0.0155491
0.015584
0.0156107
0.0156299
0.0156422
0.0156482
0.0152135
0.0152332
0.0152777
0.0153276
0.015383
0.0154416
0.0154985
0.0155492
0.0155915
0.0156248
0.0156498
0.0156674
0.0156784
0.0156838
0.0152241
0.0152465
0.0152966
0.0153513
0.0154123
0.0154751
0.0155337
0.0155841
0.0156249
0.0156563
0.0156793
0.0156952
0.0157052
0.0157099
0.0152075
0.0152586
0.015312
0.0153717
0.0154373
0.0155026
0.0155616
0.015611
0.01565
0.0156794
0.0157006
0.0157152
0.0157242
0.0157284
0.0152235
0.0152708
0.0153255
0.0153886
0.0154569
0.0155235
0.0155822
0.0156303
0.0156676
0.0156954
0.0157153
0.0157287
0.015737
0.0157409
0.0152095
0.0152285
0.0152778
0.0153347
0.0154003
0.0154704
0.0155374
0.0155956
0.0156427
0.0156788
0.0157054
0.0157244
0.0157371
0.0157449
0.0157485
0.0152141
0.0152323
0.0152822
0.0153398
0.0154064
0.0154772
0.0155443
0.0156022
0.0156487
0.0156842
0.0157103
0.0157287
0.0157411
0.0157486
0.0157521
0.014939
0.0149428
0.0149441
0.0149533
0.0149315
0.0149445
0.0149481
0.0149512
0.014949
0.0149795
0.0149546
0.0149655
0.0149752
0.014985
0.0149903
0.0149938
0.0149574
0.0149566
0.0149746
0.0149927
0.0150081
0.0150205
0.0150313
0.0150386
0.0150426
0.0149457
0.0149664
0.0149913
0.0150138
0.0150349
0.0150545
0.0150714
0.0150854
0.0150952
0.0151003
0.0149458
0.0149706
0.0149998
0.0150277
0.0150552
0.0150822
0.0151072
0.0151289
0.0151462
0.0151581
0.0151641
0.0149577
0.0149665
0.0149998
0.0150328
0.0150664
0.0151005
0.0151337
0.0151636
0.0151888
0.0152082
0.0152213
0.0152279
0.0149493
0.0149569
0.0149915
0.0150279
0.0150664
0.0151071
0.0151477
0.0151856
0.0152186
0.0152455
0.0152657
0.015279
0.0152856
0.0149799
0.014975
0.0150141
0.0150555
0.0151007
0.0151478
0.0151932
0.0152339
0.0152681
0.0152951
0.015315
0.0153279
0.0153343
0.0149446
0.0149551
0.0149931
0.0150354
0.0150825
0.0151339
0.0151858
0.015234
0.0152757
0.0153098
0.0153361
0.0153551
0.0153673
0.0153732
0.0149539
0.0149661
0.0150087
0.015055
0.0151077
0.015164
0.0152189
0.0152683
0.0153099
0.0153431
0.0153682
0.0153862
0.0153976
0.0154031
0.0149323
0.0149759
0.0150211
0.015072
0.0151294
0.0151892
0.0152459
0.0152954
0.0153363
0.0153683
0.0153923
0.0154093
0.01542
0.0154251
0.0149454
0.0149859
0.015032
0.0150861
0.0151468
0.0152088
0.0152661
0.0153154
0.0153554
0.0153864
0.0154094
0.0154255
0.0154356
0.0154405
0.0149398
0.014949
0.0149912
0.0150395
0.015096
0.0151588
0.015222
0.0152796
0.0153284
0.0153677
0.0153979
0.0154202
0.0154357
0.0154455
0.0154502
0.0149437
0.0149523
0.0149949
0.0150436
0.0151012
0.015165
0.0152286
0.0152863
0.0153349
0.0153737
0.0154035
0.0154254
0.0154407
0.0154503
0.0154548
0.01468
0.0146835
0.0146863
0.0146945
0.0146699
0.0146805
0.0146826
0.0146853
0.0146913
0.0147182
0.0146907
0.0146996
0.0147072
0.0147148
0.0147185
0.0147213
0.0146994
0.0146936
0.0147085
0.0147232
0.0147354
0.0147449
0.014753
0.0147585
0.0147616
0.0146849
0.0147025
0.0147232
0.0147413
0.0147582
0.0147736
0.0147869
0.014798
0.0148058
0.0148099
0.014685
0.0147063
0.0147306
0.0147533
0.0147753
0.0147971
0.0148176
0.0148355
0.0148501
0.0148602
0.0148654
0.0146997
0.0147027
0.0147307
0.0147576
0.0147847
0.0148128
0.0148405
0.0148662
0.0148883
0.0149056
0.0149175
0.0149234
0.0146916
0.014694
0.0147235
0.0147534
0.0147848
0.0148184
0.0148529
0.014886
0.0149158
0.0149405
0.0149595
0.0149722
0.0149785
0.0147187
0.0147089
0.0147417
0.0147756
0.014813
0.0148529
0.0148929
0.01493
0.0149621
0.0149882
0.0150077
0.0150206
0.0150269
0.0146869
0.0146913
0.0147237
0.0147586
0.0147974
0.0148408
0.0148862
0.0149301
0.0149695
0.0150027
0.0150289
0.0150483
0.0150609
0.0150671
0.0146952
0.0147003
0.0147361
0.0147742
0.0148181
0.0148666
0.0149161
0.0149623
0.0150028
0.0150361
0.015062
0.0150808
0.0150931
0.015099
0.0146707
0.014708
0.0147456
0.0147876
0.0148361
0.0148888
0.0149409
0.0149885
0.0150292
0.0150621
0.0150874
0.0151057
0.0151174
0.0151231
0.0146815
0.0147157
0.0147539
0.0147988
0.0148508
0.0149063
0.01496
0.0150081
0.0150486
0.0150811
0.0151058
0.0151235
0.0151349
0.0151404
0.014681
0.0146836
0.0147195
0.0147595
0.0148067
0.0148611
0.0149182
0.0149728
0.0150211
0.0150614
0.0150934
0.0151177
0.015135
0.0151461
0.0151514
0.0146846
0.0146865
0.0147225
0.0147627
0.0148109
0.0148664
0.0149243
0.0149793
0.0150276
0.0150677
0.0150994
0.0151235
0.0151406
0.0151515
0.0151568
0.0144297
0.0144331
0.0144375
0.0144452
0.0144199
0.0144281
0.0144284
0.014431
0.0144427
0.0144675
0.0144388
0.0144457
0.014451
0.0144562
0.0144583
0.0144607
0.0144512
0.0144427
0.0144546
0.014466
0.014475
0.0144814
0.0144867
0.0144902
0.0144925
0.0144369
0.0144511
0.0144676
0.0144813
0.0144937
0.0145049
0.0145144
0.0145223
0.014528
0.014531
0.014437
0.0144545
0.0144741
0.0144913
0.0145077
0.014524
0.0145396
0.0145536
0.0145651
0.0145733
0.0145775
0.0144515
0.0144513
0.0144742
0.0144949
0.0145154
0.0145369
0.0145589
0.0145799
0.0145983
0.0146131
0.0146234
0.0146286
0.0144431
0.0144431
0.0144679
0.0144915
0.0145155
0.0145416
0.0145694
0.0145971
0.0146228
0.0146448
0.014662
0.0146736
0.0146795
0.014468
0.014455
0.0144817
0.014508
0.0145371
0.0145695
0.0146032
0.0146357
0.0146648
0.014689
0.0147075
0.0147199
0.014726
0.0144382
0.0144395
0.0144666
0.0144942
0.0145244
0.0145592
0.0145973
0.0146358
0.0146717
0.0147029
0.0147282
0.0147472
0.0147598
0.014766
0.014446
0.0144465
0.0144757
0.0145055
0.0145402
0.0145803
0.0146232
0.0146651
0.014703
0.0147352
0.0147609
0.0147799
0.0147924
0.0147985
0.0144208
0.0144519
0.0144822
0.0145152
0.0145543
0.0145989
0.0146453
0.0146894
0.0147285
0.0147611
0.0147867
0.0148055
0.0148178
0.0148237
0.0144292
0.0144573
0.0144877
0.0145232
0.0145659
0.0146139
0.0146626
0.014708
0.0147476
0.0147802
0.0148056
0.0148242
0.0148362
0.0148421
0.0144308
0.0144296
0.0144595
0.0144913
0.014529
0.0145742
0.0146243
0.0146744
0.0147205
0.0147603
0.0147928
0.014818
0.0148363
0.0148482
0.0148539
0.0144343
0.0144324
0.014462
0.0144937
0.0145322
0.0145786
0.0146296
0.0146803
0.0147267
0.0147666
0.014799
0.0148241
0.0148423
0.0148541
0.0148598
0.0141853
0.0141889
0.0141957
0.0142038
0.0141807
0.0141857
0.0141837
0.0141866
0.0142015
0.0142254
0.0141973
0.0142021
0.0142045
0.0142068
0.0142071
0.0142091
0.0142107
0.0142025
0.014211
0.0142187
0.0142242
0.014227
0.0142291
0.0142304
0.0142319
0.0142024
0.0142101
0.0142223
0.014231
0.0142383
0.0142449
0.0142504
0.0142549
0.0142583
0.0142604
0.0142025
0.0142131
0.0142275
0.0142387
0.0142489
0.0142594
0.01427
0.0142798
0.0142882
0.0142943
0.0142975
0.0142111
0.0142104
0.0142275
0.0142415
0.0142548
0.0142694
0.0142854
0.0143015
0.0143161
0.0143283
0.0143369
0.0143413
0.0142019
0.0142029
0.0142226
0.014239
0.0142549
0.0142731
0.014294
0.014316
0.0143374
0.0143563
0.0143715
0.0143819
0.0143872
0.014226
0.0142115
0.0142314
0.0142493
0.0142697
0.0142941
0.0143213
0.0143489
0.0143745
0.0143965
0.0144136
0.0144251
0.0144309
0.0141965
0.014198
0.0142194
0.0142389
0.0142599
0.0142857
0.0143163
0.014349
0.0143809
0.0144095
0.0144333
0.0144515
0.0144637
0.0144697
0.0142046
0.0142029
0.014225
0.0142456
0.0142706
0.0143019
0.0143378
0.0143748
0.0144096
0.0144401
0.014465
0.0144837
0.0144961
0.0145022
0.0141817
0.0142055
0.0142279
0.0142512
0.0142806
0.0143168
0.0143569
0.0143969
0.0144336
0.0144651
0.0144904
0.0145093
0.0145217
0.0145278
0.0141869
0.014208
0.0142301
0.0142559
0.0142891
0.014329
0.0143721
0.0144141
0.0144519
0.0144839
0.0145094
0.0145283
0.0145406
0.0145466
0.0141866
0.0141851
0.0142084
0.0142316
0.0142595
0.0142953
0.0143378
0.0143827
0.0144258
0.0144643
0.0144965
0.014522
0.0145407
0.014553
0.014559
0.0141903
0.0141881
0.0142106
0.0142333
0.0142617
0.0142987
0.0143424
0.0143881
0.0144318
0.0144704
0.0145027
0.0145282
0.0145469
0.0145591
0.0145651
0.0139432
0.0139475
0.013958
0.0139684
0.0139535
0.0139522
0.0139471
0.013951
0.0139644
0.0139907
0.0139659
0.0139675
0.0139658
0.0139638
0.013962
0.0139639
0.0139762
0.0139725
0.0139762
0.0139788
0.0139798
0.0139781
0.0139762
0.0139752
0.0139759
0.0139919
0.0139777
0.0139844
0.0139868
0.0139882
0.0139896
0.0139906
0.0139917
0.0139929
0.013994
0.013992
0.0139797
0.013987
0.0139916
0.0139948
0.0139991
0.0140045
0.0140102
0.0140155
0.0140197
0.0140221
0.0139765
0.0139779
0.0139871
0.0139932
0.0139986
0.0140061
0.0140161
0.0140274
0.0140386
0.0140482
0.0140552
0.0140589
0.0139649
0.0139729
0.0139848
0.0139919
0.0139987
0.0140088
0.0140228
0.0140395
0.0140569
0.0140729
0.014086
0.0140953
0.0141
0.0139913
0.0139767
0.0139872
0.0139951
0.0140064
0.0140229
0.0140439
0.0140669
0.0140893
0.014109
0.0141247
0.0141355
0.0141409
0.0139588
0.0139667
0.0139795
0.0139888
0.0139996
0.0140165
0.0140398
0.014067
0.0140951
0.0141212
0.0141434
0.0141607
0.0141724
0.0141782
0.0139694
0.0139685
0.0139806
0.0139904
0.0140052
0.014028
0.0140573
0.0140896
0.0141213
0.0141499
0.0141738
0.014192
0.0142041
0.0142102
0.0139546
0.0139669
0.0139792
0.0139915
0.014011
0.0140393
0.0140734
0.0141094
0.0141437
0.0141739
0.0141986
0.0142173
0.0142297
0.0142358
0.0139536
0.013965
0.0139774
0.0139928
0.0140165
0.014049
0.0140868
0.0141253
0.0141612
0.0141923
0.0142174
0.0142363
0.0142487
0.0142549
0.0139446
0.0139485
0.0139634
0.0139766
0.0139941
0.0140209
0.0140562
0.0140962
0.0141362
0.014173
0.0142046
0.01423
0.0142489
0.0142613
0.0142675
0.0139491
0.0139526
0.0139656
0.0139775
0.0139955
0.0140235
0.0140601
0.0141011
0.0141418
0.014179
0.0142108
0.0142362
0.0142551
0.0142676
0.0142737
0.0136965
0.013703
0.0137171
0.0137368
0.013745
0.0137261
0.0137158
0.0137227
0.0137251
0.0137635
0.0137448
0.0137405
0.0137321
0.013723
0.0137182
0.0137207
0.0137453
0.0137528
0.0137473
0.0137418
0.0137362
0.0137288
0.0137225
0.0137191
0.0137194
0.0138319
0.0137561
0.013749
0.0137428
0.0137373
0.0137329
0.0137294
0.0137273
0.0137266
0.0137271
0.013832
0.0137607
0.0137488
0.0137437
0.0137392
0.0137374
0.0137381
0.0137402
0.0137432
0.0137459
0.0137476
0.0137457
0.0137563
0.0137488
0.0137439
0.0137408
0.0137416
0.0137464
0.0137539