/*--------------------------------*- C++ -*----------------------------------*\
| =========                 |                                                 |
| \\      /  F ield         | OpenFOAM: The Open Source CFD Toolbox           |
|  \\    /   O peration     | Version:  2.1.1                                 |
|   \\  /    A nd           | Web:      www.OpenFOAM.org                      |
|    \\/     M anipulation  |                                                 |
\*---------------------------------------------------------------------------*/
FoamFile
{
    version     2.0;
    format      ascii;
    class       volVectorField;
    location    "0.0005";
    object      U;
}
// * * * * * * * * * * * * * * * * * * * * * * * * * * * * * * * * * * * * * //

dimensions      [0 1 -1 0 0 0 0];

internalField   nonuniform List<vector> 
10156
(
(3.87715e-06 3.6574e-06 0.111617)
(1.22764e-05 3.64172e-06 0.111599)
(2.01762e-05 3.47634e-06 0.111572)
(2.78691e-05 3.34213e-06 0.111542)
(3.20663e-05 2.9435e-06 0.11151)
(3.96045e-05 2.63283e-06 0.111477)
(3.46577e-05 1.65938e-06 0.111443)
(4.9565e-05 1.561e-06 0.111403)
(1.53568e-05 -7.40816e-07 0.111357)
(7.23919e-05 5.27457e-07 0.11128)
(-4.78425e-05 -4.48115e-06 0.111179)
(0.000138957 -5.10712e-06 0.111175)
(-0.000159524 -7.35448e-06 0.111631)
(0.000237106 -3.09926e-05 0.0952479)
(0.00142475 -2.06121e-05 0.0290203)
(3.87556e-06 1.20264e-05 0.111599)
(1.22875e-05 1.20424e-05 0.111585)
(1.98202e-05 1.16645e-05 0.111561)
(2.73112e-05 1.10519e-05 0.111532)
(3.14034e-05 1.01348e-05 0.111501)
(3.83735e-05 9.67438e-06 0.111469)
(3.3697e-05 7.45537e-06 0.111437)
(4.71154e-05 9.51215e-06 0.111404)
(1.43545e-05 2.36786e-06 0.111372)
(6.82082e-05 1.81799e-05 0.111323)
(-5.24867e-05 -1.24949e-05 0.111276)
(0.000133978 5.27546e-05 0.11133)
(-0.000189111 -5.03816e-05 0.111752)
(0.000259118 9.89752e-05 0.0954)
(0.00145902 -0.000111014 0.0294165)
(3.70584e-06 2.00009e-05 0.111572)
(1.1915e-05 1.96549e-05 0.111562)
(1.91864e-05 1.90163e-05 0.111542)
(2.63392e-05 1.77933e-05 0.111515)
(3.06873e-05 1.61854e-05 0.111484)
(3.69218e-05 1.46701e-05 0.111453)
(3.45058e-05 1.08438e-05 0.111425)
(4.44224e-05 1.15415e-05 0.111399)
(2.42778e-05 1.20375e-06 0.111385)
(5.65359e-05 1.43691e-05 0.111375)
(-1.0455e-05 -1.9687e-05 0.11139)
(9.18187e-05 2.50671e-05 0.111633)
(-6.63942e-05 -4.12316e-05 0.113094)
(0.000142958 -0.000113172 0.0997844)
(0.000134591 -0.00213186 0.0279074)
(3.56669e-06 2.76582e-05 0.111542)
(1.13022e-05 2.71196e-05 0.111533)
(1.79601e-05 2.61547e-05 0.111516)
(2.4481e-05 2.43003e-05 0.11149)
(2.82767e-05 2.22689e-05 0.111459)
(3.30276e-05 1.9936e-05 0.111427)
(3.05715e-05 1.59841e-05 0.111398)
(3.74503e-05 1.66393e-05 0.111376)
(1.73574e-05 6.16191e-06 0.11137)
(4.67729e-05 2.35607e-05 0.111373)
(-3.84785e-05 -1.63592e-05 0.111438)
(0.000111822 9.16581e-05 0.112154)
(-0.000320453 -0.000131559 0.112689)
(0.000442462 0.000364637 0.0844534)
(-0.00806042 -0.00325474 0.0244019)
(3.19347e-06 3.19654e-05 0.11151)
(1.04104e-05 3.12934e-05 0.111501)
(1.63663e-05 3.05738e-05 0.111485)
(2.24547e-05 2.81542e-05 0.11146)
(2.63193e-05 2.6189e-05 0.111427)
(3.06299e-05 2.27961e-05 0.111391)
(3.11841e-05 1.79424e-05 0.111356)
(3.45786e-05 1.71481e-05 0.111328)
(3.10996e-05 3.33664e-06 0.111314)
(3.45024e-05 2.12748e-05 0.11131)
(6.01652e-05 -4.89383e-05 0.11153)
(-4.57425e-05 0.00012568 0.112248)
(0.000256159 -0.000180555 0.0952897)
(-0.00145451 -0.00222989 0.0390928)
(0.00204309 0.00343951 0.0112945)
(2.83944e-06 3.9463e-05 0.111476)
(9.91173e-06 3.824e-05 0.111469)
(1.4823e-05 3.67969e-05 0.111454)
(2.01004e-05 3.29067e-05 0.111428)
(2.29192e-05 3.05106e-05 0.111391)
(2.47754e-05 2.46554e-05 0.111348)
(2.49008e-05 2.15631e-05 0.111302)
(2.281e-05 1.486e-05 0.111258)
(2.15569e-05 1.06919e-05 0.111225)
(-3.058e-06 -1.07577e-05 0.111226)
(4.44913e-05 5.21942e-05 0.111896)
(-0.000244521 -0.000110705 0.112122)
(0.000325753 0.000414932 0.0822762)
(0.000734755 0.0028909 0.0320988)
(1.92118e-06 3.4637e-05 0.111442)
(7.74725e-06 3.36443e-05 0.111437)
(1.10367e-05 3.44344e-05 0.111425)
(1.61745e-05 3.04738e-05 0.111399)
(1.8074e-05 3.10756e-05 0.111357)
(2.16826e-05 2.4738e-05 0.111303)
(2.13852e-05 2.12012e-05 0.111241)
(2.36602e-05 1.54614e-05 0.111175)
(6.35312e-06 1.95296e-05 0.11112)
(7.88256e-05 9.3212e-07 0.111308)
(-7.37496e-05 9.02342e-05 0.11198)
(0.000349838 -7.03929e-05 0.0943874)
(-0.00166063 -0.00234435 0.0358475)
(0.00317682 0.00276842 0.0180364)
(1.72295e-06 4.95042e-05 0.111403)
(9.69833e-06 4.70333e-05 0.111404)
(1.16493e-05 4.43592e-05 0.1114)
(1.67663e-05 3.7398e-05 0.111376)
(1.7206e-05 3.45298e-05 0.111329)
(1.49044e-05 2.2703e-05 0.111261)
(1.56251e-05 2.35845e-05 0.111177)
(2.14252e-05 2.12904e-05 0.111072)
(8.46935e-06 -3.32928e-05 0.110998)
(4.61502e-05 1.74687e-05 0.111623)
(-0.000256517 -0.000141365 0.112194)
(0.000390909 0.000403802 0.0837695)
(0.000591031 0.0019672 0.0317467)
(-4.64476e-07 1.53274e-05 0.111357)
(2.65656e-06 1.43466e-05 0.111372)
(1.42591e-06 2.42354e-05 0.111385)
(6.36651e-06 1.7299e-05 0.111371)
(3.41326e-06 3.09937e-05 0.111316)
(1.07823e-05 2.11415e-05 0.111228)
(1.96892e-05 5.61218e-06 0.111125)
(-3.32239e-05 6.64137e-06 0.111004)
(4.01142e-06 -5.09574e-08 0.111176)
(-4.93568e-05 0.000249274 0.111891)
(0.000324755 -0.000227569 0.0953393)
(-0.00117234 -0.00369875 0.0388534)
(0.00110485 0.000832903 0.0136806)
(6.86628e-07 7.24376e-05 0.11128)
(1.83515e-05 6.82533e-05 0.111324)
(1.44258e-05 5.6518e-05 0.111376)
(2.36225e-05 4.67833e-05 0.111374)
(2.09743e-05 3.45525e-05 0.111312)
(-1.13453e-05 -3.21302e-06 0.111229)
(-3.02108e-07 7.93138e-05 0.111312)
(1.4113e-05 4.32279e-05 0.111629)
(0.000250971 -3.72544e-05 0.111895)
(-0.000468557 -0.000471134 0.112739)
(0.000410199 0.000535205 0.0801862)
(-0.000706495 -0.00565765 0.0256725)
(-4.22659e-06 -4.78186e-05 0.111178)
(-1.22681e-05 -5.24332e-05 0.111276)
(-1.94999e-05 -1.04153e-05 0.11139)
(-1.60877e-05 -3.83586e-05 0.111438)
(-4.90224e-05 6.03986e-05 0.111532)
(5.27494e-05 4.51284e-05 0.111897)
(8.75833e-05 -7.20957e-05 0.111983)
(-0.000130265 -0.000252868 0.112198)
(-0.000223867 0.000337725 0.0953468)
(0.000527334 0.000415001 0.0802267)
(-0.0113872 -0.0113605 0.0314793)
(-4.92374e-06 0.000139042 0.111175)
(5.2939e-05 0.00013407 0.111331)
(2.51889e-05 9.18893e-05 0.111633)
(9.1918e-05 0.000111874 0.112154)
(0.000125901 -4.57088e-05 0.112248)
(-0.00010988 -0.000244248 0.112123)
(-6.92123e-05 0.000349566 0.0943901)
(0.000408773 0.000394861 0.0837737)
(-0.00369835 -0.00117634 0.0388623)
(-0.00563689 -0.00070633 0.0257028)
(-7.11735e-06 -0.000159436 0.111631)
(-5.01764e-05 -0.000189057 0.111752)
(-4.10794e-05 -6.63379e-05 0.113094)
(-0.000131319 -0.000320505 0.112689)
(-0.000180435 0.000256078 0.0952901)
(0.000415172 0.000325779 0.0822761)
(-0.00234403 -0.00166106 0.0358477)
(0.00196724 0.000591082 0.0317467)
(0.000833937 0.00110433 0.0136829)
(-3.07884e-05 0.000237198 0.0952475)
(9.91242e-05 0.000259155 0.0953989)
(-0.000113175 0.000143052 0.0997839)
(0.000364736 0.000442499 0.0844534)
(-0.0022299 -0.00145456 0.0390929)
(0.00289085 0.00073479 0.0320988)
(0.00276844 0.00317699 0.0180365)
(-2.11129e-05 0.00142468 0.0290197)
(-0.000111176 0.00145899 0.0294162)
(-0.00213162 0.000134428 0.0279066)
(-0.00325457 -0.00806052 0.024402)
(0.00343955 0.0020431 0.0112946)
(2.87641e-06 2.64068e-06 0.111605)
(9.63036e-06 2.69997e-06 0.111588)
(1.56633e-05 2.58467e-06 0.111561)
(2.18627e-05 2.46875e-06 0.111532)
(2.47831e-05 2.15143e-06 0.111502)
(3.15936e-05 1.91515e-06 0.11147)
(2.59858e-05 1.05061e-06 0.111438)
(4.12455e-05 1.02916e-06 0.111401)
(4.62926e-06 -1.157e-06 0.111356)
(6.83407e-05 2.10312e-07 0.111282)
(-5.31874e-05 -4.94665e-06 0.111181)
(0.000133893 -5.11569e-06 0.11118)
(-0.000161056 -7.82505e-06 0.111636)
(0.000235597 -3.1046e-05 0.0952533)
(0.00142533 -2.05091e-05 0.0290215)
(2.96145e-06 9.34857e-06 0.111588)
(9.58538e-06 9.30135e-06 0.111574)
(1.5412e-05 8.99873e-06 0.111551)
(2.14287e-05 8.53901e-06 0.111523)
(2.42546e-05 7.78066e-06 0.111493)
(3.05436e-05 7.5642e-06 0.111463)
(2.52134e-05 5.55598e-06 0.111433)
(3.90321e-05 7.85877e-06 0.111401)
(3.79551e-06 1.15645e-06 0.111371)
(6.40466e-05 1.8094e-05 0.111325)
(-5.75176e-05 -1.42821e-05 0.111277)
(0.000128877 5.25481e-05 0.111335)
(-0.000190726 -5.119e-05 0.111756)
(0.000257659 9.90763e-05 0.0954051)
(0.00145992 -0.000111249 0.0294174)
(2.83934e-06 1.54928e-05 0.111562)
(9.28085e-06 1.52357e-05 0.111552)
(1.49014e-05 1.47223e-05 0.111533)
(2.06444e-05 1.37405e-05 0.111506)
(2.3807e-05 1.24211e-05 0.111477)
(2.93654e-05 1.12619e-05 0.111448)
(2.62907e-05 7.80163e-06 0.111421)
(3.67856e-05 8.89895e-06 0.111397)
(1.5137e-05 -8.60013e-07 0.111384)
(5.18669e-05 1.36051e-05 0.111377)
(-1.58864e-05 -2.20704e-05 0.111392)
(8.77072e-05 2.51895e-05 0.111638)
(-6.76054e-05 -4.29071e-05 0.113098)
(0.000141153 -0.000112797 0.0997899)
(0.000134706 -0.00213197 0.0279084)
(2.71154e-06 2.16382e-05 0.111532)
(8.81425e-06 2.12119e-05 0.111524)
(1.39178e-05 2.04411e-05 0.111507)
(1.9128e-05 1.89281e-05 0.111483)
(2.1773e-05 1.72808e-05 0.111453)
(2.59209e-05 1.54356e-05 0.111422)
(2.28545e-05 1.20086e-05 0.111395)
(3.03437e-05 1.33676e-05 0.111375)
(8.69287e-06 3.18607e-06 0.11137)
(4.22556e-05 2.28693e-05 0.111376)
(-4.25821e-05 -1.99735e-05 0.11144)
(0.000107399 9.24386e-05 0.112159)
(-0.000321715 -0.000133205 0.112694)
(0.000441572 0.000365899 0.0844581)
(-0.00806043 -0.00325513 0.0244027)
(2.42343e-06 2.46859e-05 0.111502)
(8.08289e-06 2.41308e-05 0.111494)
(1.26169e-05 2.36825e-05 0.111478)
(1.74851e-05 2.16313e-05 0.111454)
(2.03109e-05 2.0161e-05 0.111422)
(2.40881e-05 1.73496e-05 0.111387)
(2.42e-05 1.31224e-05 0.111354)
(2.79465e-05 1.30523e-05 0.111327)
(2.45421e-05 -2.30499e-07 0.111315)
(2.91995e-05 1.99155e-05 0.111313)
(5.62073e-05 -5.20003e-05 0.111533)
(-4.78763e-05 0.000125693 0.112253)
(0.000255484 -0.000181364 0.0952939)
(-0.00145515 -0.00222936 0.0390942)
(0.00204322 0.00343939 0.0112948)
(2.12799e-06 3.14375e-05 0.11147)
(7.81201e-06 3.03888e-05 0.111463)
(1.14201e-05 2.92291e-05 0.111448)
(1.56103e-05 2.57865e-05 0.111423)
(1.74914e-05 2.39622e-05 0.111388)
(1.88781e-05 1.87544e-05 0.111346)
(1.85376e-05 1.64412e-05 0.111301)
(1.69623e-05 1.06328e-05 0.111259)
(1.56312e-05 7.25347e-06 0.111227)
(-7.06039e-06 -1.33719e-05 0.11123)
(4.17247e-05 5.14832e-05 0.1119)
(-0.000246706 -0.000110943 0.112127)
(0.000325983 0.000414996 0.0822804)
(0.00073449 0.00289101 0.0321)
(1.33965e-06 2.59734e-05 0.111438)
(5.87755e-06 2.51462e-05 0.111433)
(8.0173e-06 2.62053e-05 0.111421)
(1.22227e-05 2.27182e-05 0.111396)
(1.32831e-05 2.40579e-05 0.111355)
(1.65672e-05 1.83519e-05 0.111302)
(1.60745e-05 1.57845e-05 0.111241)
(1.87153e-05 1.08556e-05 0.111177)
(1.40715e-06 1.62213e-05 0.111123)
(7.62414e-05 -9.97323e-07 0.111312)
(-7.53586e-05 8.8464e-05 0.111984)
(0.000348761 -7.08206e-05 0.0943915)
(-0.00166065 -0.00234426 0.0358487)
(0.00317684 0.00276832 0.0180373)
(1.17843e-06 4.11976e-05 0.1114)
(8.03334e-06 3.89435e-05 0.111402)
(8.98774e-06 3.67207e-05 0.111398)
(1.34852e-05 3.02859e-05 0.111376)
(1.31446e-05 2.79356e-05 0.111329)
(1.06076e-05 1.68181e-05 0.111262)
(1.10421e-05 1.87521e-05 0.11118)
(1.76887e-05 1.76705e-05 0.111076)
(5.21807e-06 -3.51227e-05 0.111003)
(4.36659e-05 1.59484e-05 0.111628)
(-0.000257931 -0.000142754 0.112199)
(0.0003905 0.000403897 0.0837736)
(0.000591263 0.00196685 0.0317477)
(-8.09852e-07 4.58294e-06 0.111356)
(1.46029e-06 3.78632e-06 0.111371)
(-6.1422e-07 1.50921e-05 0.111385)
(3.454e-06 8.62886e-06 0.111371)
(-1.56513e-07 2.44358e-05 0.111317)
(7.42491e-06 1.53113e-05 0.11123)
(1.66356e-05 1.05174e-06 0.111128)
(-3.51606e-05 4.42163e-06 0.111008)
(1.22275e-06 1.57162e-08 0.111182)
(-5.1653e-05 0.000247212 0.111894)
(0.000324215 -0.000228512 0.0953423)
(-0.00117287 -0.00369904 0.0388548)
(0.001105 0.000832863 0.0136811)
(3.61882e-07 6.83779e-05 0.111281)
(1.82687e-05 6.4098e-05 0.111326)
(1.36385e-05 5.18457e-05 0.111378)
(2.2924e-05 4.22479e-05 0.111377)
(1.97509e-05 2.93378e-05 0.111315)
(-1.36502e-05 -7.22379e-06 0.111233)
(-1.27452e-06 7.67892e-05 0.111318)
(1.51745e-05 4.22069e-05 0.111637)
(0.000248105 -4.26007e-05 0.111905)
(-0.000472813 -0.000473466 0.112742)
(0.000410261 0.000533968 0.08019)
(-0.00070666 -0.00565811 0.0256732)
(-4.66881e-06 -5.31656e-05 0.111181)
(-1.40354e-05 -5.7456e-05 0.111278)
(-2.18839e-05 -1.58309e-05 0.111393)
(-1.95467e-05 -4.24147e-05 0.111441)
(-5.20811e-05 5.6551e-05 0.111535)
(5.20821e-05 4.23373e-05 0.111902)
(8.7697e-05 -7.38515e-05 0.111987)
(-0.000134115 -0.000256139 0.112208)
(-0.000227147 0.000330937 0.095334)
(0.000528311 0.000413093 0.0802249)
(-0.0113881 -0.0113629 0.0314777)
(-4.92448e-06 0.000133992 0.11118)
(5.27535e-05 0.000128982 0.111335)
(2.53275e-05 8.77932e-05 0.111638)
(9.27852e-05 0.000107475 0.112159)
(0.000125976 -4.79107e-05 0.112253)
(-0.000109993 -0.000246404 0.112128)
(-6.99166e-05 0.00034841 0.0943924)
(0.000407246 0.000392584 0.0837759)
(-0.00370835 -0.0011764 0.0388574)
(-0.0056295 -0.000709723 0.0256882)
(-7.57032e-06 -0.000160966 0.111635)
(-5.09626e-05 -0.000190674 0.111756)
(-4.27423e-05 -6.75552e-05 0.113098)
(-0.000132889 -0.000321782 0.112694)
(-0.000181229 0.000255351 0.0952941)
(0.000415278 0.000326017 0.0822803)
(-0.00234405 -0.00166101 0.035849)
(0.00196633 0.00059113 0.0317481)
(0.000832718 0.00110559 0.0136822)
(-3.08355e-05 0.000235689 0.0952529)
(9.92418e-05 0.000257682 0.095404)
(-0.000112788 0.000141224 0.0997894)
(0.000366029 0.00044159 0.0844581)
(-0.00222935 -0.00145523 0.0390943)
(0.00289093 0.000734546 0.0321)
(0.00276834 0.003177 0.0180373)
(-2.10117e-05 0.00142527 0.0290208)
(-0.000111415 0.00145988 0.0294171)
(-0.00213174 0.000134533 0.0279076)
(-0.00325497 -0.00806053 0.0244028)
(0.00343942 0.00204323 0.0112949)
(2.13572e-06 1.89445e-06 0.111596)
(7.59691e-06 2.00303e-06 0.111579)
(1.21232e-05 1.93151e-06 0.111553)
(1.707e-05 1.82107e-06 0.111525)
(1.8981e-05 1.55616e-06 0.111495)
(2.51646e-05 1.37984e-06 0.111466)
(1.88594e-05 5.76658e-07 0.111434)
(3.50503e-05 7.23915e-07 0.111398)
(-3.80712e-06 -1.50337e-06 0.111356)
(6.53019e-05 1.26038e-07 0.111283)
(-5.72857e-05 -5.70976e-06 0.111182)
(0.000129601 -5.12431e-06 0.111184)
(-0.000162287 -8.46402e-06 0.111638)
(0.000234189 -3.0903e-05 0.0952572)
(0.00142604 -2.06207e-05 0.0290219)
(2.29207e-06 7.27528e-06 0.111579)
(7.47109e-06 7.13532e-06 0.111566)
(1.19255e-05 6.88854e-06 0.111543)
(1.67227e-05 6.52766e-06 0.111516)
(1.86014e-05 5.91577e-06 0.111487)
(2.4277e-05 5.88915e-06 0.111458)
(1.83019e-05 4.04359e-06 0.111429)
(3.29227e-05 6.89222e-06 0.111399)
(-4.44806e-06 -4.04382e-07 0.111371)
(6.06044e-05 1.80311e-05 0.111328)
(-6.14864e-05 -1.60019e-05 0.111279)
(0.000124682 5.23543e-05 0.111339)
(-0.000191888 -5.18417e-05 0.111759)
(0.000256488 9.92329e-05 0.0954091)
(0.0014603 -0.000111485 0.029418)
(2.21572e-06 1.19731e-05 0.111554)
(7.21069e-06 1.17428e-05 0.111544)
(1.15156e-05 1.13342e-05 0.111525)
(1.60969e-05 1.0531e-05 0.1115)
(1.83412e-05 9.43913e-06 0.111472)
(2.3289e-05 8.54982e-06 0.111444)
(1.98732e-05 5.40739e-06 0.111418)
(3.05365e-05 7.12242e-06 0.111396)
(7.61982e-06 -2.86942e-06 0.111383)
(4.86329e-05 1.32033e-05 0.111379)
(-2.00891e-05 -2.40641e-05 0.111394)
(8.4467e-05 2.52963e-05 0.111642)
(-6.84501e-05 -4.40141e-05 0.113102)
(0.00013965 -0.00011262 0.0997941)
(0.000135126 -0.00213211 0.027909)
(2.08104e-06 1.6843e-05 0.111525)
(6.83178e-06 1.64776e-05 0.111517)
(1.07144e-05 1.58761e-05 0.111501)
(1.48283e-05 1.46088e-05 0.111477)
(1.66174e-05 1.3252e-05 0.111448)
(2.02428e-05 1.17934e-05 0.111419)
(1.68792e-05 8.80931e-06 0.111393)
(2.46178e-05 1.06087e-05 0.111374)
(1.83648e-06 9.82844e-07 0.11137)
(3.88011e-05 2.25543e-05 0.111378)
(-4.60083e-05 -2.32044e-05 0.111442)
(0.000104066 9.31532e-05 0.112163)
(-0.000322717 -0.000134647 0.112698)
(0.000440848 0.000366786 0.0844618)
(-0.00806036 -0.00325534 0.0244033)
(1.84645e-06 1.88953e-05 0.111495)
(6.24294e-06 1.84631e-05 0.111488)
(9.6462e-06 1.82114e-05 0.111472)
(1.34736e-05 1.64619e-05 0.111449)
(1.55226e-05 1.53597e-05 0.111418)
(1.88427e-05 1.29689e-05 0.111385)
(1.86679e-05 9.32136e-06 0.111352)
(2.26979e-05 9.66769e-06 0.111327)
(1.94708e-05 -2.779e-06 0.111316)
(2.49426e-05 1.89426e-05 0.111315)
(5.30334e-05 -5.4185e-05 0.111536)
(-4.93147e-05 0.000125748 0.112256)
(0.000254893 -0.000182042 0.0952969)
(-0.00145569 -0.00222886 0.039095)
(0.00204335 0.00343915 0.0112951)
(1.59691e-06 2.49959e-05 0.111465)
(6.14882e-06 2.41013e-05 0.111458)
(8.71485e-06 2.3147e-05 0.111444)
(1.19797e-05 2.00992e-05 0.11142)
(1.31246e-05 1.87125e-05 0.111385)
(1.42011e-05 1.40695e-05 0.111344)
(1.35609e-05 1.23996e-05 0.1113)
(1.24932e-05 7.36231e-06 0.11126)
(1.11882e-05 4.61592e-06 0.111229)
(-1.01444e-05 -1.53534e-05 0.111234)
(3.92935e-05 5.10008e-05 0.111904)
(-0.000248532 -0.000111247 0.112131)
(0.000326055 0.000414925 0.0822834)
(0.000734467 0.00289097 0.0321008)
(8.90397e-07 1.88243e-05 0.111434)
(4.39669e-06 1.82108e-05 0.111429)
(5.64606e-06 1.97855e-05 0.111418)
(9.04222e-06 1.67169e-05 0.111393)
(9.49625e-06 1.85128e-05 0.111353)
(1.25295e-05 1.33774e-05 0.111301)
(1.19566e-05 1.16322e-05 0.111241)
(1.48742e-05 7.54857e-06 0.111179)
(-2.37686e-06 1.34774e-05 0.111125)
(7.41343e-05 -2.71695e-06 0.111316)
(-7.68536e-05 8.68871e-05 0.111987)
(0.000348162 -7.1272e-05 0.0943945)
(-0.00166081 -0.00234405 0.0358495)
(0.00317695 0.00276869 0.0180377)
(8.78704e-07 3.5032e-05 0.111398)
(7.09923e-06 3.28523e-05 0.111399)
(7.21584e-06 3.05049e-05 0.111396)
(1.0727e-05 2.45564e-05 0.111375)
(9.8021e-06 2.27067e-05 0.111329)
(7.32311e-06 1.22709e-05 0.111262)
(7.73341e-06 1.49817e-05 0.111181)
(1.46303e-05 1.45828e-05 0.111079)
(2.35836e-06 -3.6591e-05 0.111005)
(4.17481e-05 1.42661e-05 0.111631)
(-0.000259199 -0.000144234 0.112203)
(0.000390242 0.000403505 0.0837767)
(0.000591309 0.0019664 0.0317488)
(-1.14053e-06 -3.83155e-06 0.111356)
(-6.54501e-08 -4.4344e-06 0.111371)
(-2.62224e-06 7.57466e-06 0.111384)
(1.25601e-06 1.80601e-06 0.111371)
(-2.76546e-06 1.93636e-05 0.111318)
(4.84495e-06 1.10626e-05 0.111232)
(1.3977e-05 -2.3687e-06 0.11113)
(-3.67096e-05 2.01801e-06 0.111011)
(-1.15394e-06 -1.17499e-06 0.111185)
(-5.37734e-05 0.000245334 0.111898)
(0.000323635 -0.000229319 0.0953447)
(-0.00117346 -0.00369947 0.0388554)
(0.00110523 0.000832782 0.0136813)
(2.80593e-07 6.53374e-05 0.111283)
(1.8216e-05 6.0686e-05 0.111328)
(1.32522e-05 4.86104e-05 0.11138)
(2.26095e-05 3.88003e-05 0.111379)
(1.89823e-05 2.51096e-05 0.111317)
(-1.52788e-05 -1.01119e-05 0.111237)
(-2.76015e-06 7.43059e-05 0.111321)
(1.43088e-05 4.14788e-05 0.11164)
(0.000245826 -5.00912e-05 0.111907)
(-0.000474843 -0.000474533 0.112746)
(0.000409917 0.000532517 0.0801923)
(-0.000707267 -0.0056584 0.0256736)
(-5.38683e-06 -5.72661e-05 0.111182)
(-1.57189e-05 -6.14625e-05 0.111279)
(-2.38994e-05 -2.00414e-05 0.111395)
(-2.27416e-05 -4.58643e-05 0.111443)
(-5.41365e-05 5.33388e-05 0.111537)
(5.12296e-05 3.96553e-05 0.111906)
(8.71259e-05 -7.59825e-05 0.11199)
(-0.00014062 -0.000258555 0.112211)
(-0.000228755 0.000325678 0.0953381)
(0.000529676 0.000409964 0.0802257)
(-0.0113891 -0.0113641 0.0314777)
(-4.95703e-06 0.0001297 0.111184)
(5.25647e-05 0.000124761 0.111339)
(2.54638e-05 8.45275e-05 0.111642)
(9.34701e-05 0.000104138 0.112163)
(0.000126 -4.9398e-05 0.112257)
(-0.000110579 -0.000248367 0.112131)
(-7.09381e-05 0.000348019 0.0943947)
(0.000404587 0.000390786 0.0837781)
(-0.00370924 -0.00117428 0.0388585)
(-0.00562887 -0.000711963 0.0256901)
(-8.191e-06 -0.000162201 0.111638)
(-5.1605e-05 -0.000191815 0.111759)
(-4.385e-05 -6.83973e-05 0.113102)
(-0.000134317 -0.000322782 0.112698)
(-0.000181908 0.000254786 0.095297)
(0.000415136 0.000326096 0.0822833)
(-0.00234398 -0.00166106 0.0358498)
(0.00196599 0.000591241 0.0317491)
(0.000832063 0.00110629 0.0136825)
(-3.0702e-05 0.000234277 0.0952569)
(9.94117e-05 0.000256486 0.095408)
(-0.000112598 0.000139695 0.0997936)
(0.000366914 0.000440836 0.0844617)
(-0.00222885 -0.00145577 0.0390951)
(0.0028909 0.000734522 0.0321008)
(0.00276871 0.00317712 0.0180377)
(-2.11322e-05 0.00142599 0.0290213)
(-0.00011166 0.00146026 0.0294176)
(-0.00213188 0.000134946 0.0279082)
(-0.00325518 -0.00806047 0.0244034)
(0.00343918 0.00204336 0.0112951)
(1.57089e-06 1.33346e-06 0.111589)
(5.80003e-06 1.44699e-06 0.111573)
(9.29384e-06 1.40026e-06 0.111547)
(1.31808e-05 1.29291e-06 0.111519)
(1.4372e-05 1.05302e-06 0.111491)
(1.999e-05 9.21279e-07 0.111462)
(1.26594e-05 1.27649e-07 0.111431)
(3.07165e-05 5.03267e-07 0.111396)
(-1.02657e-05 -1.88843e-06 0.111357)
(6.25034e-05 3.42925e-07 0.111285)
(-6.05064e-05 -6.37697e-06 0.111183)
(0.000125923 -5.03606e-06 0.111187)
(-0.000163267 -8.91893e-06 0.11164)
(0.00023276 -3.08771e-05 0.0952603)
(0.0014265 -2.06822e-05 0.0290223)
(1.76398e-06 5.42249e-06 0.111573)
(5.7497e-06 5.34423e-06 0.11156)
(9.15348e-06 5.16218e-06 0.111537)
(1.28889e-05 4.84326e-06 0.111511)
(1.40973e-05 4.34219e-06 0.111483)
(1.91944e-05 4.40471e-06 0.111455)
(1.23579e-05 2.66379e-06 0.111426)
(2.86039e-05 6.187e-06 0.111397)
(-1.05018e-05 -2.18381e-06 0.111371)
(5.75159e-05 1.79781e-05 0.111329)
(-6.47956e-05 -1.74844e-05 0.111279)
(0.000121236 5.22333e-05 0.111342)
(-0.000192937 -5.22252e-05 0.111762)
(0.000255329 9.93601e-05 0.0954122)
(0.00146058 -0.000111584 0.0294183)
(1.72959e-06 9.18152e-06 0.111547)
(5.54019e-06 8.97057e-06 0.111538)
(8.79276e-06 8.61704e-06 0.11152)
(1.23604e-05 7.93626e-06 0.111495)
(1.3932e-05 7.01375e-06 0.111467)
(1.83083e-05 6.31057e-06 0.11144)
(1.44531e-05 3.45432e-06 0.111415)
(2.57971e-05 5.8891e-06 0.111394)
(1.82602e-06 -4.71494e-06 0.111384)
(4.61014e-05 1.28425e-05 0.11138)
(-2.33562e-05 -2.57979e-05 0.111395)
(8.18762e-05 2.54235e-05 0.111645)
(-6.914e-05 -4.48821e-05 0.113104)
(0.000138182 -0.000112412 0.0997973)
(0.000135192 -0.00213217 0.0279096)
(1.57296e-06 1.29705e-05 0.11152)
(5.18516e-06 1.26122e-05 0.111512)
(8.11956e-06 1.21239e-05 0.111496)
(1.12859e-05 1.10469e-05 0.111473)
(1.24691e-05 9.93802e-06 0.111444)
(1.56331e-05 8.79154e-06 0.111416)
(1.19417e-05 6.19635e-06 0.111391)
(2.04038e-05 8.59342e-06 0.111373)
(-3.33512e-06 -1.13641e-06 0.111371)
(3.5803e-05 2.24712e-05 0.11138)
(-4.88015e-05 -2.60853e-05 0.111444)
(0.000101464 9.37144e-05 0.112166)
(-0.000323652 -0.000135981 0.112701)
(0.000439945 0.000367263 0.0844645)
(-0.00806036 -0.00325561 0.0244037)
(1.35855e-06 1.43148e-05 0.111491)
(4.69287e-06 1.39454e-05 0.111483)
(7.22702e-06 1.38033e-05 0.111468)
(1.0175e-05 1.23083e-05 0.111445)
(1.16736e-05 1.15048e-05 0.111415)
(1.45644e-05 9.44863e-06 0.111382)
(1.42358e-05 6.38185e-06 0.11135)
(1.84561e-05 7.1991e-06 0.111327)
(1.56112e-05 -4.85744e-06 0.111316)
(2.16542e-05 1.83054e-05 0.111317)
(5.041e-05 -5.58449e-05 0.111538)
(-5.0361e-05 0.000125675 0.112259)
(0.000254039 -0.000182683 0.095299)
(-0.00145619 -0.00222882 0.0390957)
(0.00204342 0.00343907 0.0112952)
(1.14171e-06 1.9809e-05 0.111462)
(4.67458e-06 1.89956e-05 0.111455)
(6.4841e-06 1.81625e-05 0.111441)
(8.99027e-06 1.54846e-05 0.111417)
(9.60978e-06 1.44315e-05 0.111383)
(1.05076e-05 1.03734e-05 0.111343)
(9.67699e-06 9.24336e-06 0.1113)
(9.14301e-06 4.79563e-06 0.111261)
(7.84883e-06 2.85945e-06 0.111231)
(-1.27174e-05 -1.70056e-05 0.111236)
(3.70379e-05 5.07025e-05 0.111906)
(-0.000250149 -0.00011157 0.112134)
(0.000325849 0.000414682 0.0822855)
(0.000734269 0.00289138 0.0321012)
(4.6659e-07 1.2609e-05 0.111431)
(3.04874e-06 1.22471e-05 0.111427)
(3.71729e-06 1.43818e-05 0.111415)
(6.44546e-06 1.17905e-05 0.111391)
(6.56474e-06 1.40889e-05 0.111351)
(9.37586e-06 9.51414e-06 0.1113)
(8.65335e-06 8.41798e-06 0.111241)
(1.20346e-05 5.08739e-06 0.111179)
(-5.32088e-06 1.09165e-05 0.111127)
(7.23022e-05 -4.2888e-06 0.111318)
(-7.81603e-05 8.54582e-05 0.111989)
(0.000347403 -7.16598e-05 0.0943968)
(-0.0016608 -0.0023441 0.0358497)
(0.00317698 0.00276875 0.0180377)
(6.64221e-07 3.07283e-05 0.111396)
(6.43565e-06 2.85566e-05 0.111398)
(6.02208e-06 2.5783e-05 0.111395)
(8.71614e-06 2.03372e-05 0.111374)
(7.34855e-06 1.84817e-05 0.111328)
(4.84023e-06 8.96167e-06 0.111263)
(5.25086e-06 1.20606e-05 0.111182)
(1.19359e-05 1.19555e-05 0.111081)
(-9.2678e-08 -3.80276e-05 0.111007)
(4.03037e-05 1.29586e-05 0.111634)
(-0.000260365 -0.000145472 0.112206)
(0.000389883 0.000403221 0.083779)
(0.000591409 0.00196636 0.0317491)
(-1.526e-06 -1.02693e-05 0.111357)
(-1.82559e-06 -1.04772e-05 0.111371)
(-4.47149e-06 1.7696e-06 0.111384)
(-8.47543e-07 -3.34823e-06 0.111372)
(-4.7898e-06 1.55283e-05 0.111318)
(2.99366e-06 7.81748e-06 0.111234)
(1.13565e-05 -5.24796e-06 0.111132)
(-3.80617e-05 -2.53348e-07 0.111012)
(-2.7874e-06 -2.57027e-06 0.111187)
(-5.53913e-05 0.000243783 0.111901)
(0.000323056 -0.000229881 0.0953469)
(-0.00117367 -0.00369969 0.0388561)
(0.00110526 0.000832731 0.0136817)
(4.95536e-07 6.25877e-05 0.111285)
(1.81728e-05 5.75452e-05 0.11133)
(1.29373e-05 4.60939e-05 0.111381)
(2.25663e-05 3.58197e-05 0.111381)
(1.84369e-05 2.18014e-05 0.111319)
(-1.68032e-05 -1.26409e-05 0.111239)
(-4.2639e-06 7.23481e-05 0.111323)
(1.30714e-05 4.03746e-05 0.111643)
(0.000244039 -5.39062e-05 0.111909)
(-0.0004755 -0.000474814 0.112749)
(0.000409994 0.000532106 0.0801943)
(-0.000707328 -0.00565843 0.0256744)
(-6.09207e-06 -6.05259e-05 0.111183)
(-1.72156e-05 -6.47197e-05 0.11128)
(-2.55679e-05 -2.33135e-05 0.111396)
(-2.56412e-05 -4.86995e-05 0.111444)
(-5.57143e-05 5.05968e-05 0.111539)
(5.07304e-05 3.72176e-05 0.111908)
(8.58948e-05 -7.77119e-05 0.111992)
(-0.000144036 -0.000260101 0.112212)
(-0.00022939 0.000324125 0.0953442)
(0.00053049 0.000409261 0.0802274)
(-0.0113894 -0.0113646 0.0314785)
(-4.82338e-06 0.000125966 0.111187)
(5.24864e-05 0.000121386 0.111343)
(2.55436e-05 8.19135e-05 0.111645)
(9.39576e-05 0.000101524 0.112166)
(0.000125878 -5.04673e-05 0.11226)
(-0.000111101 -0.000250085 0.112134)
(-7.15639e-05 0.000347377 0.0943971)
(0.000403514 0.000389929 0.0837803)
(-0.00370959 -0.00117379 0.0388591)
(-0.00562862 -0.000712346 0.0256911)
(-8.62615e-06 -0.000163146 0.11164)
(-5.19686e-05 -0.000192913 0.111761)
(-4.47366e-05 -6.90844e-05 0.113104)
(-0.00013567 -0.00032371 0.112701)
(-0.000182557 0.000253995 0.0952991)
(0.00041484 0.000325902 0.0822853)
(-0.00234412 -0.00166098 0.03585)
(0.00196608 0.000591411 0.0317491)
(0.000831911 0.00110645 0.0136828)
(-3.06698e-05 0.000232855 0.0952599)
(9.95475e-05 0.00025529 0.0954112)
(-0.000112383 0.000138228 0.0997968)
(0.000367391 0.00043994 0.0844645)
(-0.00222882 -0.00145626 0.0390958)
(0.00289132 0.000734322 0.0321012)
(0.00276876 0.00317715 0.0180377)
(-2.11927e-05 0.00142644 0.0290216)
(-0.000111762 0.00146055 0.029418)
(-0.00213195 0.000135045 0.0279087)
(-0.00325545 -0.00806046 0.0244038)
(0.0034391 0.00204343 0.0112953)
(1.18286e-06 9.14641e-07 0.111585)
(4.08766e-06 9.5093e-07 0.111568)
(6.93491e-06 9.07892e-07 0.111542)
(9.81729e-06 7.95998e-07 0.111515)
(1.06172e-05 6.00442e-07 0.111487)
(1.56345e-05 4.75934e-07 0.111459)
(7.19407e-06 -2.55584e-07 0.111429)
(2.77758e-05 3.56513e-07 0.111395)
(-1.50354e-05 -2.20295e-06 0.111357)
(5.97016e-05 3.9196e-07 0.111286)
(-6.31496e-05 -7.00155e-06 0.111183)
(0.00012326 -4.81419e-06 0.111189)
(-0.000163872 -9.1525e-06 0.111642)
(0.000231507 -3.07999e-05 0.0952631)
(0.00142662 -2.06038e-05 0.0290227)
(1.22181e-06 3.6204e-06 0.111568)
(4.17535e-06 3.70048e-06 0.111555)
(6.85662e-06 3.56221e-06 0.111533)
(9.65337e-06 3.30674e-06 0.111507)
(1.04628e-05 2.91498e-06 0.111479)
(1.49621e-05 3.0104e-06 0.111452)
(7.184e-06 1.45759e-06 0.111424)
(2.56918e-05 5.47636e-06 0.111396)
(-1.49907e-05 -3.69819e-06 0.111371)
(5.44668e-05 1.779e-05 0.111331)
(-6.72693e-05 -1.83995e-05 0.11128)
(0.000119015 5.21392e-05 0.111345)
(-0.000193684 -5.25118e-05 0.111764)
(0.000254258 9.94059e-05 0.095415)
(0.0014607 -0.000111663 0.0294189)
(1.33244e-06 6.85391e-06 0.111543)
(4.02964e-06 6.68934e-06 0.111534)
(6.54105e-06 6.38794e-06 0.111515)
(9.16972e-06 5.79823e-06 0.111491)
(1.03194e-05 5.04118e-06 0.111464)
(1.41742e-05 4.48536e-06 0.111438)
(9.6726e-06 1.94817e-06 0.111413)
(2.25422e-05 5.08271e-06 0.111393)
(-2.41258e-06 -6.18815e-06 0.111384)
(4.38787e-05 1.26587e-05 0.111382)
(-2.58821e-05 -2.67387e-05 0.111396)
(7.98289e-05 2.52987e-05 0.111648)
(-6.95896e-05 -4.57975e-05 0.113106)
(0.000136871 -0.000112409 0.0998001)
(0.000135037 -0.00213226 0.02791)
(1.11727e-06 9.6635e-06 0.111515)
(3.70931e-06 9.34142e-06 0.111508)
(5.96579e-06 8.92007e-06 0.111492)
(8.30651e-06 8.05002e-06 0.111469)
(9.14769e-06 7.19976e-06 0.111441)
(1.1868e-05 6.32705e-06 0.111414)
(7.787e-06 4.12086e-06 0.111389)
(1.75207e-05 7.36193e-06 0.111372)
(-7.19341e-06 -3.37801e-06 0.111371)
(3.32713e-05 2.23915e-05 0.111381)
(-5.11927e-05 -2.85499e-05 0.111445)
(9.92531e-05 9.40511e-05 0.112168)
(-0.00032428 -0.000137181 0.112703)
(0.00043911 0.000367538 0.0844669)
(-0.00806033 -0.00325597 0.0244042)
(9.181e-07 1.06252e-05 0.111487)
(3.2856e-06 1.02918e-05 0.111479)
(5.24941e-06 1.01921e-05 0.111465)
(7.44955e-06 8.9886e-06 0.111442)
(8.59363e-06 8.42401e-06 0.111412)
(1.10945e-05 6.64407e-06 0.111381)
(1.06888e-05 4.14216e-06 0.111349)
(1.50384e-05 5.38832e-06 0.111327)
(1.25273e-05 -6.86196e-06 0.111316)
(1.92131e-05 1.76379e-05 0.111318)
(4.83027e-05 -5.74043e-05 0.11154)
(-5.11396e-05 0.000125662 0.112261)
(0.000253427 -0.000183282 0.0953009)
(-0.00145681 -0.00222891 0.0390966)
(0.00204356 0.00343913 0.0112956)
(6.97686e-07 1.54413e-05 0.111459)
(3.27745e-06 1.47304e-05 0.111452)
(4.66408e-06 1.40256e-05 0.111438)
(6.5409e-06 1.17192e-05 0.111415)
(6.80352e-06 1.09573e-05 0.111381)
(7.58449e-06 7.45263e-06 0.111342)
(6.51733e-06 6.73643e-06 0.111299)
(6.49735e-06 2.57492e-06 0.111261)
(5.13468e-06 1.94029e-06 0.111231)
(-1.47975e-05 -1.83742e-05 0.111237)
(3.52806e-05 5.0481e-05 0.111908)
(-0.000251461 -0.000111804 0.112136)
(0.000325506 0.00041424 0.0822873)
(0.000733821 0.00289153 0.0321018)
(1.1367e-07 7.12824e-06 0.111429)
(1.87211e-06 7.08296e-06 0.111424)
(2.23845e-06 9.59526e-06 0.111413)
(4.38116e-06 7.656e-06 0.11139)
(4.32845e-06 1.05496e-05 0.11135)