/*--------------------------------*- C++ -*----------------------------------*\
| =========                 |                                                 |
| \\      /  F ield         | OpenFOAM: The Open Source CFD Toolbox           |
|  \\    /   O peration     | Version:  2.1.1                                 |
|   \\  /    A nd           | Web:      www.OpenFOAM.org                      |
|    \\/     M anipulation  |                                                 |
\*---------------------------------------------------------------------------*/
FoamFile
{
    version     2.0;
    format      ascii;
    class       volScalarField;
    location    "0.004";
    object      Th;
}
// * * * * * * * * * * * * * * * * * * * * * * * * * * * * * * * * * * * * * //

dimensions      [0 0 0 0 0 0 0];

internalField   nonuniform List<scalar> 
10154
(
4.59835e-13
1e-14
2.6495e-14
1.05574e-14
1.28387e-14
1.10831e-14
5.15189e-14
1.37209e-14
1.01327e-14
1.00692e-14
1e-14
1.00122e-14
1.00046e-14
3.64157e-13
1.65544e-14
1.01146e-14
1.00103e-14
1.00002e-14
1.00001e-14
1.00001e-14
1.00001e-14
1e-14
4.92376e-14
1.06367e-14
1.00105e-14
1.00001e-14
1e-14
1.00001e-14
1e-14
1.00001e-14
1.00001e-14
1e-14
4.8884e-14
1.06927e-14
1.00009e-14
1.00001e-14
1e-14
1e-14
1e-14
1e-14
1e-14
1e-14
1.00001e-14
3.64174e-13
1.0635e-14
1.00009e-14
1.00001e-14
1e-14
1e-14
1.00001e-14
1e-14
1e-14
1e-14
1e-14
1.00002e-14
1.65608e-14
1.00105e-14
1.00001e-14
1e-14
1e-14
1e-14
1e-14
1e-14
1e-14
1e-14
1e-14
1.00001e-14
5.15106e-14
1.01146e-14
1.00001e-14
1e-14
1e-14
1e-14
1e-14
1e-14
1e-14
1e-14
1e-14
1e-14
1.00002e-14
1.37205e-14
1.00103e-14
1e-14
1e-14
1.00001e-14
1e-14
1e-14
1e-14
1.00001e-14
1.00001e-14
1.00001e-14
1e-14
1e-14
1e-14
1.01326e-14
1.00002e-14
1e-14
1e-14
1e-14
1e-14
1e-14
1.00001e-14
1.00001e-14
1.00001e-14
1e-14
1.00001e-14
1e-14
2.64953e-14
1.00692e-14
1.00001e-14
1e-14
1e-14
1e-14
1e-14
1e-14
1.00001e-14
1.00001e-14
1.00001e-14
1.00001e-14
1.00001e-14
1.00002e-14
1.05574e-14
1e-14
1.00001e-14
1.00001e-14
1e-14
1e-14
1e-14
1e-14
1.00001e-14
1e-14
1.00001e-14
1.00001e-14
1.00001e-14
1.00002e-14
1.28386e-14
1.00122e-14
1.00001e-14
1.00001e-14
1e-14
1e-14
1e-14
1e-14
1e-14
1.00001e-14
1.00001e-14
1.00001e-14
1e-14
1.00003e-14
4.59709e-13
1.10835e-14
1.00045e-14
1.00001e-14
1e-14
1.00001e-14
1.00002e-14
1.00001e-14
1.00002e-14
1e-14
1e-14
1.00001e-14
1.00002e-14
1.00003e-14
1.00004e-14
4.65662e-13
1e-14
2.54374e-14
1.04854e-14
1.25975e-14
1.09645e-14
5.14358e-14
1.35226e-14
1.01116e-14
1.00583e-14
1e-14
1.00062e-14
1.0002e-14
3.75649e-13
1.62055e-14
1.01008e-14
1.00057e-14
1.00001e-14
1.00001e-14
1.00001e-14
1.00001e-14
1e-14
5.20239e-14
1.05944e-14
1.00063e-14
1e-14
1e-14
1e-14
1e-14
1.00001e-14
1.00001e-14
1e-14
5.16507e-14
1.06421e-14
1.00001e-14
1.00001e-14
1e-14
1e-14
1e-14
1e-14
1e-14
1.00001e-14
1.00001e-14
3.75646e-13
1.05925e-14
1.00001e-14
1.00001e-14
1e-14
1e-14
1.00001e-14
1e-14
1e-14
1e-14
1e-14
1.00001e-14
1.62067e-14
1.00063e-14
1.00001e-14
1e-14
1e-14
1e-14
1e-14
1e-14
1e-14
1e-14
1e-14
1e-14
5.14302e-14
1.01008e-14
1e-14
1e-14
1e-14
1e-14
1e-14
1.00001e-14
1e-14
1e-14
1e-14
1e-14
1e-14
1.35222e-14
1.00057e-14
1e-14
1e-14
1.00001e-14
1e-14
1.00001e-14
1.00001e-14
1.00001e-14
1e-14
1e-14
1e-14
1e-14
1e-14
1.01116e-14
1.00001e-14
1e-14
1e-14
1e-14
1e-14
1e-14
1.00001e-14
1.00001e-14
1e-14
1e-14
1.00001e-14
1e-14
2.54369e-14
1.00583e-14
1.00001e-14
1e-14
1e-14
1e-14
1e-14
1e-14
1.00001e-14
1e-14
1.00001e-14
1.00001e-14
1.00001e-14
1.00001e-14
1.04853e-14
1e-14
1.00001e-14
1.00001e-14
1e-14
1e-14
1e-14
1e-14
1e-14
1e-14
1.00001e-14
1.00001e-14
1e-14
1.00001e-14
1.25976e-14
1.00062e-14
1.00001e-14
1.00001e-14
1e-14
1e-14
1e-14
1e-14
1e-14
1e-14
1.00001e-14
1e-14
1.00001e-14
1.00001e-14
4.65548e-13
1.09651e-14
1.0002e-14
1e-14
1e-14
1e-14
1.00001e-14
1e-14
1.00001e-14
1e-14
1e-14
1.00001e-14
1.00001e-14
1.00001e-14
1.00002e-14
4.66108e-13
1e-14
2.55318e-14
1.04889e-14
1.25269e-14
1.09331e-14
5.21222e-14
1.34581e-14
1.01078e-14
1.00549e-14
1e-14
1.00007e-14
1.00002e-14
3.75882e-13
1.60859e-14
1.00972e-14
1.00027e-14
1e-14
1e-14
1.00001e-14
1.00001e-14
1.00001e-14
5.30273e-14
1.05859e-14
1.0004e-14
1e-14
1e-14
1e-14
1e-14
1.00001e-14
1.00001e-14
1e-14
5.26501e-14
1.06296e-14
1e-14
1e-14
1e-14
1e-14
1e-14
1e-14
1e-14
1.00001e-14
1e-14
3.75876e-13
1.05839e-14
1e-14
1.00001e-14
1e-14
1e-14
1e-14
1e-14
1e-14
1e-14
1e-14
1e-14
1.60848e-14
1.00039e-14
1e-14
1e-14
1e-14
1e-14
1.00001e-14
1e-14
1e-14
1e-14
1e-14
1e-14
5.21176e-14
1.00972e-14
1e-14
1e-14
1e-14
1e-14
1.00001e-14
1.00001e-14
1e-14
1e-14
1e-14
1.00001e-14
1e-14
1.34577e-14
1.00027e-14
1e-14
1e-14
1e-14
1.00001e-14
1.00001e-14
1e-14
1e-14
1e-14
1e-14
1e-14
1e-14
1e-14
1.01078e-14
1e-14
1e-14
1e-14
1e-14
1e-14
1e-14
1e-14
1e-14
1e-14
1e-14
1.00001e-14
1e-14
2.55312e-14
1.00549e-14
1e-14
1e-14
1e-14
1e-14
1e-14
1e-14
1e-14
1e-14
1e-14
1.00001e-14
1.00001e-14
1e-14
1.04888e-14
1e-14
1.00001e-14
1e-14
1e-14
1e-14
1e-14
1e-14
1e-14
1e-14
1.00001e-14
1.00001e-14
1e-14
1e-14
1.2527e-14
1.00007e-14
1.00001e-14
1.00001e-14
1.00001e-14
1e-14
1e-14
1.00001e-14
1e-14
1.00001e-14
1.00001e-14
1e-14
1e-14
1e-14
4.65999e-13
1.09338e-14
1.00001e-14
1.00001e-14
1e-14
1e-14
1.00001e-14
1e-14
1e-14
1e-14
1e-14
1e-14
1e-14
1e-14
1.00001e-14
4.65933e-13
1e-14
2.55943e-14
1.04946e-14
1.24907e-14
1.08885e-14
5.22187e-14
1.34232e-14
1.01052e-14
1.00534e-14
1e-14
1e-14
1e-14
3.761e-13
1.60914e-14
1.00944e-14
1e-14
1e-14
1e-14
1.00001e-14
1e-14
1e-14
5.31809e-14
1.05871e-14
1e-14
1e-14
1e-14
1e-14
1e-14
1e-14
1.00001e-14
1e-14
5.28024e-14
1.06285e-14
1e-14
1e-14
1e-14
1e-14
1e-14
1e-14
1e-14
1e-14
1e-14
3.76102e-13
1.05851e-14
1e-14
1.00001e-14
1e-14
1e-14
1e-14
1e-14
1e-14
1e-14
1e-14
1.00001e-14
1.60896e-14
1e-14
1e-14
1e-14
1.00001e-14
1e-14
1e-14
1e-14
1e-14
1e-14
1e-14
1.00001e-14
5.22139e-14
1.00943e-14
1e-14
1e-14
1e-14
1e-14
1.00001e-14
1e-14
1e-14
1e-14
1e-14
1.00001e-14
1.00001e-14
1.34228e-14
1e-14
1e-14
1e-14
1e-14
1e-14
1e-14
1e-14
1e-14
1e-14
1e-14
1e-14
1.00001e-14
1e-14
1.01051e-14
1e-14
1e-14
1e-14
1e-14
1e-14
1e-14
1e-14
1e-14
1e-14
1e-14
1e-14
1e-14
2.55941e-14
1.00534e-14
1e-14
1e-14
1e-14
1e-14
1e-14
1e-14
1e-14
1e-14
1e-14
1e-14
1e-14
1e-14
1.04946e-14
1e-14
1.00001e-14
1e-14
1e-14
1e-14
1e-14
1e-14
1e-14
1e-14
1e-14
1e-14
1e-14
1e-14
1.24908e-14
1e-14
1e-14
1e-14
1e-14
1e-14
1e-14
1.00001e-14
1e-14
1e-14
1e-14
1e-14
1e-14
1e-14
4.65825e-13
1.08894e-14
1e-14
1e-14
1e-14
1e-14
1.00001e-14
1.00001e-14
1.00001e-14
1.00001e-14
1e-14
1e-14
1e-14
1e-14
1e-14
4.65038e-13
1e-14
2.57252e-14
1.05026e-14
1.26719e-14
1.10392e-14
5.22155e-14
1.35336e-14
1.01211e-14
1.0054e-14
1e-14
1e-14
1e-14
3.7627e-13
1.5939e-14
1.0092e-14
1e-14
1e-14
1e-14
1e-14
1e-14
1.00001e-14
5.32207e-14
1.05709e-14
1e-14
1e-14
1e-14
1e-14
1e-14
1e-14
1e-14
1.00001e-14
5.2839e-14
1.06203e-14
1e-14
1e-14
1e-14
1e-14
1e-14
1e-14
1e-14
1e-14
1e-14
3.76273e-13
1.05688e-14
1e-14
1e-14
1e-14
1e-14
1e-14
1e-14
1e-14
1e-14
1e-14
1.00001e-14
1.59371e-14
1e-14
1e-14
1e-14
1e-14
1e-14
1e-14
1e-14
1e-14
1e-14
1e-14
1.00002e-14
5.22097e-14
1.00919e-14
1e-14
1e-14
1e-14
1e-14
1e-14
1e-14
1e-14
1e-14
1e-14
1.00001e-14
1.00002e-14
1.35331e-14
1e-14
1e-14
1e-14
1e-14
1e-14
1e-14
1.00001e-14
1e-14
1e-14
1e-14
1e-14
1.00001e-14
1e-14
1.01211e-14
1e-14
1e-14
1e-14
1e-14
1e-14
1e-14
1e-14
1e-14
1e-14
1e-14
1e-14
1e-14
2.57251e-14
1.0054e-14
1e-14
1e-14
1e-14
1e-14
1e-14
1e-14
1e-14
1e-14
1e-14
1e-14
1e-14
1.00001e-14
1.05025e-14
1e-14
1e-14
1e-14
1e-14
1e-14
1e-14
1e-14
1e-14
1e-14
1e-14
1e-14
1e-14
1e-14
1.26724e-14
1e-14
1e-14
1e-14
1e-14
1e-14
1e-14
1.00001e-14
1.00001e-14
1e-14
1e-14
1e-14
1.00001e-14
1e-14
4.64934e-13
1.10399e-14
1e-14
1.00001e-14
1.00001e-14
1e-14
1.00001e-14
1.00002e-14
1.00002e-14
1.00001e-14
1e-14
1.00001e-14
1e-14
1e-14
1e-14
4.61836e-13
1e-14
2.62637e-14
1.05214e-14
1.22534e-14
1.06149e-14
5.22993e-14
1.31379e-14
1.00759e-14
1.00475e-14
1e-14
1e-14
1e-14
3.76012e-13
1.61748e-14
1.00818e-14
1e-14
1e-14
1e-14
1e-14
1e-14
1e-14
5.35109e-14
1.06552e-14
1e-14
1e-14
1e-14
1e-14
1e-14
1e-14
1e-14
1.00001e-14
5.31297e-14
1.06613e-14
1e-14
1e-14
1e-14
1e-14
1e-14
1e-14
1e-14
1e-14
1e-14
3.76012e-13
1.0653e-14
1e-14
1e-14
1e-14
1e-14
1e-14
1e-14
1e-14
1e-14
1e-14
1.00001e-14
1.61723e-14
1e-14
1e-14
1e-14
1e-14
1e-14
1e-14
1e-14
1e-14
1e-14
1e-14
1.00001e-14
5.22949e-14
1.00817e-14
1e-14
1e-14
1e-14
1e-14
1e-14
1.00001e-14
1e-14
1e-14
1e-14
1.00001e-14
1.00001e-14
1.31376e-14
1e-14
1e-14
1e-14
1e-14
1e-14
1.00001e-14
1e-14
1e-14
1e-14
1e-14
1e-14
1.00001e-14
1e-14
1.00758e-14
1e-14
1e-14
1e-14
1e-14
1e-14
1e-14
1e-14
1e-14
1e-14
1e-14
1e-14
1e-14
2.62637e-14
1.00475e-14
1e-14
1e-14
1e-14
1e-14
1e-14
1e-14
1e-14
1e-14
1e-14
1e-14
1e-14
1.00001e-14
1.05212e-14
1e-14
1e-14
1e-14
1e-14
1e-14
1e-14
1e-14
1e-14
1e-14
1e-14
1e-14
1e-14
1e-14
1.22531e-14
1e-14
1e-14
1e-14
1e-14
1e-14
1e-14
1.00001e-14
1e-14
1e-14
1e-14
1e-14
1e-14
1e-14
4.6174e-13
1.06173e-14
1e-14
1e-14
1.00001e-14
1e-14
1.00001e-14
1.00001e-14
1.00001e-14
1.00001e-14
1e-14
1.00001e-14
1e-14
1e-14
1e-14
4.41744e-13
1e-14
3.00101e-14
1e-14
1.45328e-14
1.21706e-14
5.46751e-14
1.49419e-14
1.02478e-14
1.00687e-14
1e-14
1e-14
1e-14
3.74056e-13
1.65258e-14
1.00755e-14
1e-14
1e-14
1e-14
1e-14
1e-14
1e-14
6.11422e-14
1.04131e-14
1e-14
1e-14
1e-14
1e-14
1e-14
1e-14
1e-14
1.00001e-14
6.07688e-14
1.05046e-14
1e-14
1e-14
1e-14
1e-14
1e-14
1e-14
1e-14
1e-14
1.00001e-14
3.74054e-13
1.04097e-14
1e-14
1e-14
1e-14
1e-14
1e-14
1e-14
1e-14
1e-14
1e-14
1.00001e-14
1.65243e-14
1e-14
1e-14
1e-14
1e-14
1e-14
1e-14
1e-14
1e-14
1e-14
1e-14
1.00001e-14
5.46719e-14
1.00752e-14
1e-14
1e-14
1e-14
1e-14
1e-14
1e-14
1e-14
1e-14
1e-14
1.00001e-14
1e-14
1.49413e-14
1e-14
1e-14
1e-14
1e-14
1e-14
1e-14
1e-14
1e-14
1e-14
1e-14
1e-14
1e-14
1e-14
1.02479e-14
1e-14
1e-14
1e-14
1e-14
1e-14
1e-14
1e-14
1e-14
1e-14
1e-14
1e-14
1e-14
3.00106e-14
1.00687e-14
1e-14
1e-14
1e-14
1e-14
1e-14
1e-14
1e-14
1e-14
1e-14
1e-14
1e-14
1e-14
1e-14
1e-14
1e-14
1e-14
1e-14
1e-14
1e-14
1e-14
1e-14
1e-14
1e-14
1e-14
1e-14
1e-14
1.45395e-14
1e-14
1e-14
1e-14
1e-14
1e-14
1e-14
1.00001e-14
1e-14
1e-14
1e-14
1e-14
1e-14
1e-14
4.41627e-13
1.21708e-14
1e-14
1e-14
1.00001e-14
1.00001e-14
1.00001e-14
1.00001e-14
1e-14
1e-14
1e-14
1e-14
1e-14
1e-14
1.00001e-14
6.86556e-14
2.97124e-14
1.2703e-14
1e-14
1.12297e-14
1.07885e-14
2.33229e-14
1.09575e-14
1.00786e-14
1.00185e-14
1e-14
1e-14
1e-14
4.20279e-14
1.12994e-14
1.00121e-14
1e-14
1e-14
1e-14
1e-14
1e-14
1e-14
2.10767e-14
1.00726e-14
1e-14
1e-14
1e-14
1e-14
1e-14
1e-14
1e-14
1e-14
2.09904e-14
1.00994e-14
1e-14
1e-14
1e-14
1e-14
1e-14
1e-14
1e-14
1e-14
1e-14
4.20415e-14
1.0072e-14
1e-14
1e-14
1e-14
1e-14
1e-14
1e-14
1e-14
1e-14
1e-14
1.00001e-14
1.1299e-14
1e-14
1e-14
1e-14
1e-14
1e-14
1e-14
1e-14
1e-14
1e-14
1e-14
1.00001e-14
2.33229e-14
1.0012e-14
1e-14
1e-14
1e-14
1e-14
1e-14
1e-14
1e-14
1e-14
1e-14
1.00001e-14
1.00001e-14
1.09571e-14
1e-14
1e-14
1e-14
1e-14
1e-14
1e-14
1e-14
1e-14
1e-14
1e-14
1e-14
1e-14
2.97076e-14
1.00786e-14
1e-14
1e-14
1e-14
1e-14
1e-14
1e-14
1e-14
1e-14
1e-14
1e-14
1e-14
1e-14
1.2704e-14
1.00185e-14
1e-14
1e-14
1e-14
1e-14
1e-14
1e-14
1e-14
1e-14
1e-14
1e-14
1e-14
1e-14
1e-14
1e-14
1e-14
1e-14
1e-14
1e-14
1e-14
1e-14
1e-14
1e-14
1e-14
1e-14
1e-14
1e-14
1.12321e-14
1e-14
1e-14
1e-14
1e-14
1e-14
1e-14
1.00001e-14
1e-14
1e-14
1e-14
1e-14
1e-14
1e-14
6.8708e-14
1.07886e-14
1e-14
1e-14
1e-14
1e-14
1.00001e-14
1.00001e-14
1.00001e-14
1e-14
1e-14
1e-14
1e-14
1e-14
1e-14
1.00217e-14
1.15274e-14
1.00074e-14
1.01206e-14
1.00191e-14
1e-14
1.03415e-14
1.02245e-14
1.00353e-14
1.0373e-14
1.02198e-14
1.00222e-14
1.00047e-14
1e-14
1e-14
1e-14
1.02548e-14
1.02959e-14
1.00016e-14
1e-14
1e-14
1e-14
1e-14
1e-14
1e-14
1.02317e-14
1.001e-14
1e-14
1e-14
1e-14
1e-14
1e-14
1e-14
1e-14
1e-14
1.02287e-14
1.00176e-14
1e-14
1e-14
1e-14
1e-14
1e-14
1e-14
1e-14
1e-14
1e-14
1.0255e-14
1.00099e-14
1e-14
1e-14
1e-14
1e-14
1e-14
1e-14
1e-14
1e-14
1e-14
1e-14
1.00353e-14
1.02958e-14
1e-14
1e-14
1e-14
1e-14
1e-14
1e-14
1e-14
1e-14
1e-14
1e-14
1e-14
1.0373e-14
1.00015e-14
1e-14
1e-14
1e-14
1e-14
1e-14
1e-14
1e-14
1e-14
1e-14
1e-14
1e-14
1.00074e-14
1.02197e-14
1e-14
1e-14
1e-14
1e-14
1e-14
1e-14
1e-14
1e-14
1e-14
1e-14
1e-14
1e-14
1.01203e-14
1.00222e-14
1e-14
1e-14
1e-14
1e-14
1e-14
1e-14
1e-14
1e-14
1e-14
1e-14
1e-14
1e-14
1.00191e-14
1.00047e-14
1e-14
1e-14
1e-14
1e-14
1e-14
1e-14
1e-14
1e-14
1e-14
1e-14
1e-14
1e-14
1e-14
1e-14
1e-14
1e-14
1e-14
1e-14
1e-14
1e-14
1e-14
1e-14
1e-14
1e-14
1e-14
1e-14
1.00219e-14
1.03424e-14
1e-14
1e-14
1e-14
1e-14
1e-14
1e-14
1e-14
1e-14
1e-14
1e-14
1e-14
1e-14
1e-14
1.153e-14
1.02244e-14
1e-14
1e-14
1e-14
1e-14
1e-14
1e-14
1e-14
1e-14
1e-14
1e-14
1e-14
1e-14
1e-14
1.00007e-14
1.00304e-14
1.00004e-14
1.00014e-14
1.00015e-14
1.00007e-14
1.00843e-14
1.00541e-14
1.00005e-14
1.00067e-14
1.00448e-14
1.00051e-14
1.00011e-14
1e-14
1e-14
1e-14
1.0003e-14
1.00591e-14
1.00002e-14
1e-14
1e-14
1e-14
1e-14
1e-14
1e-14
1.00013e-14
1.00011e-14
1e-14
1e-14
1e-14
1e-14
1e-14
1e-14
1e-14
1e-14
1.00012e-14
1.00027e-14
1e-14
1e-14
1e-14
1e-14
1e-14
1e-14
1e-14
1e-14
1e-14
1.0003e-14
1.00011e-14
1e-14
1e-14
1e-14
1e-14
1e-14
1e-14
1e-14
1e-14
1e-14
1e-14
1.00005e-14
1.00591e-14
1e-14
1e-14
1e-14
1e-14
1e-14
1e-14
1e-14
1e-14
1e-14
1e-14
1e-14
1.00066e-14
1.00002e-14
1e-14
1e-14
1e-14
1e-14
1e-14
1.00001e-14
1e-14
1e-14
1e-14
1e-14
1e-14
1.00004e-14
1.00448e-14
1e-14
1e-14
1e-14
1e-14
1e-14
1.00001e-14
1e-14
1e-14
1e-14
1e-14
1e-14
1e-14
1.00014e-14
1.00051e-14
1e-14
1e-14
1e-14
1e-14
1e-14
1e-14
1e-14
1e-14
1e-14
1e-14
1e-14
1e-14
1.00015e-14
1.00011e-14
1e-14
1e-14
1e-14
1e-14
1e-14
1e-14
1e-14
1e-14
1e-14
1e-14
1e-14
1e-14
1.00007e-14
1e-14
1e-14
1e-14
1e-14
1e-14
1e-14
1e-14
1e-14
1e-14
1e-14
1e-14
1e-14
1e-14
1.00007e-14
1.00845e-14
1e-14
1e-14
1e-14
1e-14
1e-14
1e-14
1e-14
1e-14
1e-14
1e-14
1e-14
1e-14
1e-14
1.00304e-14
1.00541e-14
1e-14
1e-14
1e-14
1e-14
1e-14
1e-14
1e-14
1e-14
1e-14
1e-14
1e-14
1e-14
1e-14
1.00002e-14
1.00004e-14
1e-14
1e-14
1.00001e-14
1.00002e-14
1.00182e-14
1.00116e-14
1e-14
1.00003e-14
1.0008e-14
1.0001e-14
1.00002e-14
1e-14
1e-14
1e-14
1.00001e-14
1.001e-14
1e-14
1e-14
1e-14
1e-14
1e-14
1e-14
1e-14
1.00001e-14
1.00001e-14
1e-14
1e-14
1e-14
1e-14
1e-14
1e-14
1e-14
1e-14
1.00001e-14
1.00004e-14
1e-14
1e-14
1e-14
1e-14
1e-14
1e-14
1e-14
1e-14
1e-14
1.00001e-14
1.00001e-14
1e-14
1e-14
1e-14
1e-14
1e-14
1e-14
1e-14
1e-14
1e-14
1e-14
1e-14
1.001e-14
1e-14
1e-14
1e-14
1e-14
1e-14
1.00001e-14
1e-14
1e-14
1e-14
1e-14
1e-14
1.00003e-14
1e-14
1e-14
1e-14
1e-14
1e-14
1.00001e-14
1e-14
1e-14
1e-14
1e-14
1e-14
1e-14
1e-14
1.0008e-14
1e-14
1e-14
1e-14
1e-14
1.00001e-14
1e-14
1e-14
1e-14
1e-14
1e-14
1e-14
1e-14
1e-14
1.0001e-14
1e-14
1e-14
1e-14
1e-14
1e-14
1e-14
1e-14
1e-14
1e-14
1e-14
1e-14
1e-14
1.00001e-14
1.00002e-14
1e-14
1e-14
1e-14
1e-14
1e-14
1e-14
1e-14
1e-14
1e-14
1e-14
1e-14
1e-14
1.00002e-14
1e-14
1e-14
1e-14
1e-14
1e-14
1e-14
1e-14
1e-14
1e-14
1e-14
1e-14
1e-14
1e-14
1.00002e-14
1.00183e-14
1e-14
1e-14
1e-14
1e-14
1e-14
1e-14
1e-14
1e-14
1e-14
1e-14
1e-14
1e-14
1e-14
1.00004e-14
1.00116e-14
1e-14
1e-14
1e-14
1e-14
1e-14
1e-14
1e-14
1e-14
1e-14
1e-14
1e-14
1e-14
1.00001e-14
1.00001e-14
1e-14
1e-14
1e-14
1e-14
1.00001e-14
1.00035e-14
1.00023e-14
1e-14
1e-14
1.00013e-14
1.00002e-14
1.00001e-14
1e-14
1e-14
1e-14
1.00001e-14
1.00014e-14
1e-14
1e-14
1e-14
1e-14
1e-14
1e-14
1e-14
1e-14
1e-14
1e-14
1e-14
1e-14
1e-14
1e-14
1e-14
1e-14
1e-14
1e-14
1e-14
1e-14
1e-14
1e-14
1e-14
1e-14
1e-14
1e-14
1e-14
1e-14
1.00001e-14
1e-14
1e-14
1e-14
1e-14
1e-14
1e-14
1e-14
1e-14
1e-14
1e-14
1e-14
1e-14
1.00014e-14
1e-14
1e-14
1e-14
1e-14
1.00001e-14
1e-14
1e-14
1e-14
1e-14
1e-14
1e-14
1e-14
1e-14
1e-14
1e-14
1e-14
1.00001e-14
1e-14
1e-14
1e-14
1e-14
1e-14
1e-14
1e-14
1e-14
1.00013e-14
1e-14
1e-14
1e-14
1e-14
1e-14
1e-14
1e-14
1e-14
1e-14
1e-14
1e-14
1e-14
1e-14
1.00002e-14
1e-14
1e-14
1e-14
1e-14
1e-14
1e-14
1e-14
1e-14
1e-14
1e-14
1e-14
1e-14
1e-14
1.00001e-14
1e-14
1e-14
1e-14
1e-14
1e-14
1e-14
1e-14
1e-14
1.00001e-14
1e-14
1e-14
1e-14
1.00001e-14
1e-14
1e-14
1e-14
1e-14
1e-14
1e-14
1e-14
1e-14
1e-14
1e-14
1e-14
1e-14
1.00001e-14
1.00001e-14
1.00035e-14
1e-14
1e-14
1e-14
1e-14
1e-14
1e-14
1e-14
1e-14
1e-14
1e-14
1e-14
1.00001e-14
1.00001e-14
1e-14
1.00024e-14
1e-14
1e-14
1e-14
1e-14
1e-14
1e-14
1e-14
1e-14
1e-14
1e-14
1.00001e-14
1.00001e-14
1e-14
1e-14
1e-14
1e-14
1e-14
1e-14
1e-14
1.00006e-14
1.00004e-14
1.00001e-14
1e-14
1.00002e-14
1e-14
1e-14
1e-14
1e-14
1e-14
1.00001e-14
1.00002e-14
1e-14
1e-14
1e-14
1e-14
1e-14
1e-14
1.00001e-14
1e-14
1e-14
1e-14
1e-14
1e-14
1e-14
1e-14
1e-14
1e-14
1e-14
1e-14
1e-14
1e-14
1e-14
1e-14
1e-14
1e-14
1e-14
1e-14
1e-14
1.00001e-14
1.00001e-14
1e-14
1e-14
1e-14
1e-14
1e-14
1e-14
1e-14
1e-14
1e-14
1e-14
1.00001e-14
1.00001e-14
1.00002e-14
1e-14
1e-14
1e-14
1e-14
1e-14
1e-14
1e-14
1e-14
1e-14
1e-14
1.00001e-14
1e-14
1e-14
1e-14
1e-14
1e-14
1e-14
1e-14
1e-14
1e-14
1e-14
1e-14
1.00001e-14
1.00001e-14
1e-14
1.00002e-14
1e-14
1e-14
1e-14
1e-14
1e-14
1e-14
1e-14
1e-14
1e-14
1e-14
1e-14
1.00001e-14
1e-14
1e-14
1e-14
1e-14
1e-14
1e-14
1e-14
1e-14
1e-14
1e-14
1e-14
1e-14
1e-14
1.00001e-14
1e-14
1e-14
1e-14
1e-14
1e-14
1e-14
1e-14
1e-14
1e-14
1e-14
1e-14
1e-14
1e-14
1.00002e-14
1e-14
1e-14
1e-14
1e-14
1e-14
1e-14
1e-14
1e-14
1e-14
1e-14
1e-14
1e-14
1e-14
1.00001e-14
1e-14
1.00006e-14
1e-14
1e-14
1e-14
1e-14
1e-14
1e-14
1.00001e-14
1e-14
1e-14
1e-14
1e-14
1.00001e-14
1.00001e-14
1e-14
1.00004e-14
1e-14
1.00001e-14
1e-14
1.00001e-14
1.00001e-14
1.00001e-14
1.00001e-14
1.00001e-14
1.00001e-14
1.00002e-14
1.00001e-14
1.00001e-14
1.00002e-14
1e-14
1e-14
1e-14
1e-14
1e-14
1e-14
1.00001e-14
1.00002e-14
1e-14
1.00001e-14
1.00001e-14
1e-14
1e-14
1e-14
1e-14
1e-14
1e-14
1e-14
1e-14
1e-14
1e-14
1e-14
1e-14
1e-14
1.00001e-14
1e-14
1e-14
1e-14
1e-14
1e-14
1e-14
1e-14
1e-14
1e-14
1e-14
1e-14
1e-14
1e-14
1e-14
1e-14
1e-14
1e-14
1e-14
1e-14
1e-14
1.00001e-14
1e-14
1e-14
1e-14
1e-14
1e-14
1e-14
1e-14
1e-14
1e-14
1e-14
1e-14
1.00001e-14
1e-14
1e-14
1e-14
1e-14
1e-14
1e-14
1e-14
1e-14
1e-14
1e-14
1e-14
1e-14
1.00001e-14
1.00001e-14
1e-14
1e-14
1e-14
1e-14
1e-14
1e-14
1e-14
1e-14
1e-14
1e-14
1e-14
1.00001e-14
1e-14
1.00001e-14
1e-14
1e-14
1e-14
1e-14
1e-14
1e-14
1e-14
1e-14
1e-14
1e-14
1e-14
1.00001e-14
1e-14
1e-14
1e-14
1e-14
1e-14
1e-14
1e-14
1e-14
1e-14
1e-14
1e-14
1e-14
1e-14
1.00001e-14
1e-14
1e-14
1e-14
1e-14
1e-14
1e-14
1e-14
1e-14
1e-14
1e-14
1e-14
1e-14
1e-14
1.00001e-14
1e-14
1e-14
1e-14
1e-14
1e-14
1e-14
1e-14
1e-14
1e-14
1e-14
1e-14
1e-14
1.00001e-14
1e-14
1e-14
1.00001e-14
1e-14
1e-14
1e-14
1e-14
1e-14
1e-14
1e-14
1e-14
1e-14
1e-14
1.00001e-14
1.00001e-14
1e-14
1e-14
1.00002e-14
1e-14
1.00001e-14
1e-14
1.00001e-14
1.00001e-14
1.00001e-14
1.00001e-14
1.00001e-14
1.00001e-14
1.00001e-14
1e-14
1e-14
1e-14
1e-14
1e-14
1e-14
1e-14
1e-14
1e-14
1e-14
1.00001e-14
1e-14
1e-14
1.00001e-14
1e-14
1e-14
1e-14
1e-14
1e-14
1e-14
1e-14
1e-14
1e-14
1e-14
1e-14
1e-14
1e-14
1e-14
1e-14
1e-14
1e-14
1e-14
1e-14
1e-14
1e-14
1e-14
1e-14
1e-14
1e-14
1e-14
1e-14
1e-14
1e-14
1e-14
1e-14
1e-14
1e-14
1e-14
1e-14
1e-14
1e-14
1e-14
1e-14
1e-14
1e-14
1e-14
1e-14
1e-14
1e-14
1e-14
1.00001e-14
1e-14
1e-14
1e-14
1e-14
1e-14
1e-14
1e-14
1e-14
1e-14
1e-14
1e-14
1e-14
1.00001e-14
1e-14
1e-14
1e-14
1e-14
1e-14
1e-14
1e-14
1e-14
1e-14
1e-14
1e-14
1e-14
1.00001e-14
1e-14
1.00001e-14
1e-14
1e-14
1e-14
1e-14
1e-14
1e-14
1e-14
1e-14
1e-14
1e-14
1e-14
1.00001e-14
1e-14
1e-14
1e-14
1e-14
1e-14
1e-14
1e-14
1e-14
1e-14
1e-14
1e-14
1e-14
1.00001e-14
1.00001e-14
1e-14
1e-14
1e-14
1e-14
1e-14
1e-14
1e-14
1e-14
1e-14
1e-14
1e-14
1e-14
1.00001e-14
1e-14
1e-14
1e-14
1e-14
1e-14
1e-14
1e-14
1e-14
1e-14
1e-14
1e-14
1e-14
1.00001e-14
1e-14
1e-14
1e-14
1e-14
1e-14
1e-14
1e-14
1e-14
1e-14
1e-14
1e-14
1e-14
1.00001e-14
1.00001e-14
1e-14
1.00001e-14
1.00001e-14
1e-14
1.00001e-14
1e-14
1e-14
1e-14
1e-14
1.00001e-14
1.00001e-14
1.00001e-14
1.00001e-14
1.00001e-14
1e-14
1e-14
1.00001e-14
1e-14
1.51581e-12
1.69093e-13
1.24844e-13
1.15562e-14
1.57662e-14
1.0622e-13
7.2718e-13
6.0037e-14
4.2495e-14
6.88145e-13
6.44605e-13
3.52182e-14
3.1993e-14
1.31267e-12
5.53303e-13
1.06817e-14
4.35066e-13
9.65547e-14
2.72917e-14
6.65629e-14
7.17523e-14
1.01686e-14
1.49108e-14
1e-14
1.9455e-13
1.60344e-13
1.84052e-14
7.96677e-14
2.10811e-14
1.41443e-14
1.03376e-14
1.35927e-12
1.23504e-12
1.37353e-13
5.40226e-13
4.88666e-14
2.33376e-14
1.08263e-14
1.27718e-12
1.27331e-12
1.23935e-13
1.23328e-12
1.35925e-12
1.37251e-13
1e-14
5.40309e-13
2.33244e-14
4.87981e-14
1.08208e-14
1.31264e-12
1.60758e-13
1.94466e-13
1.84273e-14
5.53263e-13
1.06799e-14
7.96483e-14
1.41424e-14
2.10789e-14
1.03375e-14
9.65526e-14
4.35053e-13
2.72908e-14
1.51584e-12
1.69085e-13
6.65475e-14
1.01684e-14
7.17498e-14
1.49097e-14
1.24864e-13
1.1556e-14
1.57683e-14
1.06209e-13
6.00277e-14
7.2725e-13
4.25126e-14
6.8827e-13
3.52557e-14
6.43736e-13
3.19669e-14
1.30734e-12
1e-14
1.50487e-12
1.4562e-13
1e-14
1.041e-14
1.1324e-13
1.11811e-14
1e-14
4.55391e-14
1.46443e-14
9.39847e-14
4.90346e-13
1.75518e-14
2.82956e-14
7.19004e-13
5.26598e-14
3.83863e-14
4.42547e-13
2.08272e-14
1.93112e-14
6.79534e-13
6.35964e-13
3.21739e-14
2.90294e-14
9.02431e-13
1.29702e-12
7.59819e-14
1.03991e-14
5.52114e-13
1.28519e-14
3.04092e-13
3.62334e-14
2.01537e-14
4.31688e-13
8.64922e-14
2.51827e-14
5.17908e-14
1.02727e-14
1e-14
6.17856e-14
6.22538e-14
1.02377e-14
1.32936e-14
1e-14
1e-14
1e-14
4.94326e-14
1.59153e-14
1.69167e-13
1.49951e-13
1.82446e-14
1.12371e-14
1e-14
1.03175e-14
6.92785e-14
1.96721e-14
1.31747e-14
1.02057e-14
9.82877e-13
2.43755e-13
4.27578e-14
1.34049e-12
1.25752e-12
1.2774e-13
2.39035e-14
1.34891e-14
1.02415e-14
5.39658e-13
4.34707e-14
2.16821e-14
1.04337e-14
3.25062e-13
3.2553e-13
3.3882e-14
1.29397e-12
1.28995e-12
1.15116e-13
2.45219e-13
9.82927e-13
4.27032e-14
1.25596e-12
1.34041e-12
1.27577e-13
1e-14
1e-14
1.34909e-14
2.38931e-14
1.02425e-14
5.39661e-13
2.16632e-14
4.34616e-14
1.04316e-14
9.02401e-13
1.29697e-12
4.94264e-14
1e-14
1.59209e-14
1.49934e-13
1.69168e-13
1.82456e-14
7.60019e-14
1.03997e-14
5.52098e-13
1.28515e-14
1e-14
1.12369e-14
1.03174e-14
6.92696e-14
1.31733e-14
1.96709e-14
1.02056e-14
3.62326e-14
3.0409e-13
2.01537e-14
8.64888e-14
4.31687e-13
2.51819e-14
1.30734e-12
1e-14
1.50487e-12
1.45621e-13
1.02726e-14
5.17904e-14
1e-14
6.17829e-14
1.02377e-14
6.22535e-14
1.32931e-14
1e-14
1.04102e-14
1.13244e-13
1.11807e-14
1e-14
4.55433e-14
1.46443e-14
9.39765e-14
1.75521e-14
4.9026e-13
2.83066e-14
5.26556e-14
7.19059e-13
3.84036e-14
2.08389e-14
4.42096e-13
1.93097e-14
6.79605e-13
3.22081e-14
6.35592e-13
2.90218e-14
1.31086e-12
1e-14
1.50556e-12
1.47085e-13
1e-14
1.03796e-14
1.13841e-13
1.10849e-14
1e-14
4.80046e-14
1.45609e-14
9.34261e-14
4.98185e-13
1.71152e-14
2.7552e-14
7.18957e-13
5.21287e-14
3.82296e-14
4.47458e-13
2.06772e-14
1.91642e-14
6.79274e-13
6.35752e-13
3.20401e-14
2.88944e-14
9.24395e-13
1.2981e-12
9.62494e-14
1e-14
5.49671e-13
1.34337e-14
3.08106e-13
3.49714e-14
1.98688e-14
4.32173e-13
8.66125e-14
2.51206e-14
5.04624e-14
1.03313e-14
1e-14
6.04336e-14
6.20057e-14
1.02077e-14
1.31274e-14
1e-14
1e-14
1e-14
5.30319e-14
1.57189e-14
1.7217e-13
1.49498e-13
1.81576e-14
1.09445e-14
1e-14
1.02888e-14
7.00324e-14
1.97955e-14
1.30333e-14
1.01988e-14
9.9515e-13
2.8899e-13
4.61397e-14
1.3431e-12
1.24864e-12
1.26192e-13
2.3144e-14
1.3087e-14
1.02656e-14
5.40343e-13
4.39225e-14
2.13541e-14
1.04565e-14
3.72645e-13
3.72689e-13
3.64229e-14
1.28565e-12
1.28167e-12
1.14177e-13
2.90116e-13
9.95209e-13
4.60884e-14
1.24712e-12
1.34303e-12
1.26033e-13
1e-14
1e-14
1.30893e-14
2.31452e-14
1.02662e-14
5.40349e-13
2.13354e-14
4.39177e-14
1.0455e-14
9.24373e-13
1.29805e-12
5.3026e-14
1e-14
1.57192e-14
1.49486e-13
1.72168e-13
1.81563e-14
9.62852e-14
1e-14
5.49653e-13
1.34336e-14
1e-14
1.09446e-14
1.02888e-14
7.00247e-14
1.30324e-14
1.97944e-14
1.01987e-14
3.49707e-14
3.081e-13
1.98684e-14
8.66088e-14
4.32171e-13
2.51198e-14
1.31084e-12
1e-14
1.50556e-12
1.47083e-13
1.03312e-14
5.04618e-14
1e-14
6.04297e-14
1.02077e-14
6.20034e-14
1.31267e-14
1e-14
1.03795e-14
1.13845e-13
1.1085e-14
1e-14
4.80108e-14
1.45611e-14
9.3418e-14
1.71166e-14
4.98083e-13
2.75612e-14
5.21261e-14
7.19015e-13
3.82473e-14
2.06874e-14
4.47078e-13
1.91664e-14
6.79344e-13
3.20736e-14
6.35389e-13
2.88878e-14
1.30788e-12
1e-14
1.50577e-12
1.47329e-13
1e-14
1.03776e-14
1.13779e-13
1.10712e-14
1e-14
4.89606e-14
1.45523e-14
9.36985e-14
4.98962e-13
1.71555e-14
2.76517e-14
7.19123e-13
5.21802e-14
3.83469e-14
4.48027e-13
2.08194e-14
1.93048e-14
6.7929e-13
6.35911e-13
3.21249e-14
2.89631e-14
9.25259e-13
1.29844e-12
9.5709e-14
1e-14
5.48448e-13
1.35524e-14
3.08369e-13
3.54197e-14
1.99645e-14
4.32557e-13
8.68521e-14
2.52063e-14
5.08435e-14
1.03374e-14
1e-14
6.01089e-14
6.21587e-14
1.02031e-14
1.31065e-14
1e-14
1e-14
1e-14
5.40712e-14
1.57214e-14
1.73729e-13
1.49483e-13
1.81519e-14
1.09687e-14
1e-14
1.02797e-14
7.0339e-14
1.98833e-14
1.29912e-14
1.01921e-14
9.9433e-13
2.89472e-13
4.71919e-14
1.34355e-12
1.24703e-12
1.25996e-13
2.33044e-14
1.30182e-14
1.02688e-14
5.40454e-13
4.407e-14
2.13364e-14
1.04465e-14
3.73539e-13
3.73589e-13
3.7173e-14
1.28406e-12
1.2801e-12
1.14041e-13
2.90608e-13
9.94428e-13
4.71419e-14
1.24551e-12
1.34347e-12
1.25837e-13
1e-14
1e-14
1.30205e-14
2.3306e-14
1.02693e-14
5.40458e-13
2.13172e-14
4.40646e-14
1.04452e-14
9.25226e-13
1.29839e-12
5.40709e-14
1e-14
1.57211e-14
1.49472e-13
1.73728e-13
1.81507e-14
9.57392e-14
1e-14
5.48438e-13
1.35524e-14
1e-14
1.09687e-14
1.02798e-14
7.0332e-14
1.29903e-14
1.98819e-14
1.0192e-14
3.54178e-14
3.08368e-13
1.9964e-14
8.68482e-14
4.32557e-13
2.52057e-14
1.30787e-12
1e-14
1.50577e-12
1.47337e-13
1.03374e-14
5.08427e-14
1e-14
6.01039e-14
1.02031e-14
6.21566e-14
1.3106e-14
1e-14
1.03775e-14
1.13781e-13
1.10714e-14
1e-14
4.8965e-14
1.45529e-14
9.36906e-14
1.71566e-14
4.98858e-13
2.7661e-14
5.21773e-14
7.19179e-13
3.83648e-14
2.08292e-14
4.47657e-13
1.93068e-14
6.7937e-13
3.21591e-14
6.35539e-13
2.89563e-14
1.30665e-12
1e-14
1.50554e-12
1.47355e-13
1e-14
1.03746e-14
1.1361e-13
1.10858e-14
1e-14
4.92745e-14
1.45458e-14
9.42364e-14
4.98803e-13
1.70347e-14
2.7671e-14
7.19291e-13
5.24942e-14
3.85441e-14
4.48012e-13
2.08312e-14
1.93119e-14
6.79371e-13
6.35872e-13
3.22405e-14
2.90468e-14
9.2548e-13
1.29863e-12
9.50725e-14
1e-14
5.47478e-13
1.3647e-14
3.08394e-13
3.53389e-14
1.99814e-14
4.33138e-13
8.69876e-14
2.52634e-14
5.10125e-14
1.03344e-14
1e-14
5.97348e-14
6.23309e-14
1.01995e-14
1.30951e-14
1e-14
1e-14
1e-14
5.40606e-14
1.57023e-14
1.75155e-13
1.49255e-13
1.8141e-14
1.10023e-14
1e-14
1.02736e-14
7.04008e-14
1.9933e-14
1.29477e-14
1.0182e-14
9.94277e-13
2.88998e-13
4.72909e-14
1.34352e-12
1.24676e-12
1.25999e-13
2.33469e-14
1.30078e-14
1.02648e-14
5.40461e-13
4.4074e-14
2.13253e-14
1.04363e-14
3.73288e-13
3.73351e-13
3.72447e-14
1.28363e-12
1.27968e-12
1.14066e-13
2.90143e-13
9.94352e-13
4.72374e-14
1.24525e-12
1.34345e-12
1.25838e-13
1e-14
1e-14
1.30104e-14
2.33472e-14
1.02653e-14
5.40459e-13
2.13056e-14
4.40674e-14
1.04352e-14
9.25462e-13
1.29858e-12
5.40588e-14
1e-14
1.57018e-14
1.49242e-13
1.75157e-13
1.81404e-14
9.51022e-14
1e-14
5.47469e-13
1.36474e-14
1e-14
1.10023e-14
1.02736e-14
7.0393e-14
1.29468e-14
1.99312e-14
1.01819e-14
3.53367e-14
3.08393e-13
1.99811e-14
8.69835e-14
4.33142e-13
2.52631e-14
1.30662e-12
1e-14
1.50554e-12
1.47358e-13
1.03345e-14
5.10127e-14
1e-14
5.97296e-14
1.01994e-14
6.23289e-14
1.30945e-14
1e-14
1.03745e-14
1.13613e-13
1.10859e-14
1e-14
4.92798e-14
1.45462e-14
9.42305e-14
1.70358e-14
4.9871e-13
2.76801e-14
5.24921e-14
7.19347e-13
3.85626e-14
2.08412e-14
4.47644e-13
1.93137e-14
6.79447e-13
3.22759e-14
6.35492e-13
2.90398e-14
1.30568e-12
1e-14
1.50515e-12
1.48039e-13
1e-14
1.03593e-14
1.13596e-13
1.12178e-14
1e-14
4.98718e-14
1.46513e-14
9.53683e-14
4.97418e-13
1.67776e-14
2.76891e-14
7.19322e-13
5.35485e-14
3.9093e-14
4.4702e-13
2.0809e-14
1.92821e-14
6.80029e-13
6.36065e-13
3.2528e-14
2.92233e-14
9.25504e-13
1.29883e-12
9.38093e-14
1e-14
5.46085e-13
1.37768e-14
3.08441e-13
3.50392e-14
1.99658e-14
4.34635e-13
8.73796e-14
2.53859e-14
5.13845e-14
1.03236e-14
1e-14
5.86313e-14
6.29926e-14
1.01899e-14
1.30754e-14
1e-14
1e-14
1e-14
5.36537e-14
1.56142e-14
1.77056e-13
1.49236e-13
1.8182e-14
1.10581e-14
1e-14
1.02751e-14
7.0612e-14
1.99964e-14
1.29033e-14
1.01678e-14
9.94127e-13
2.88689e-13
4.72257e-14
1.34339e-12
1.246e-12
1.26494e-13
2.32903e-14
1.29813e-14
1.02402e-14
5.40373e-13
4.41246e-14
2.1359e-14
1.0429e-14
3.72966e-13
3.73038e-13
3.72228e-14
1.28295e-12
1.27901e-12
1.14363e-13
2.89855e-13
9.94203e-13
4.71678e-14
1.24448e-12
1.34332e-12
1.26337e-13
1e-14
1e-14
1.29844e-14
2.32897e-14
1.02406e-14
5.40356e-13
2.13379e-14
4.41171e-14
1.04281e-14
9.25489e-13
1.29879e-12
5.36494e-14
1e-14
1.56137e-14
1.49221e-13
1.77057e-13
1.81821e-14
9.3842e-14
1e-14
5.46071e-13
1.3778e-14
1e-14
1.1058e-14
1.02751e-14
7.06044e-14
1.29026e-14
1.99945e-14
1.01678e-14
3.50363e-14
3.08443e-13
1.99654e-14
8.73754e-14
4.3464e-13
2.53858e-14
1.30567e-12
1e-14
1.50515e-12
1.48045e-13
1.03236e-14
5.13843e-14
1e-14
5.86288e-14
1.01899e-14
6.29912e-14
1.30749e-14
1e-14
1.03594e-14
1.136e-13
1.12178e-14
1e-14
4.98783e-14
1.46518e-14
9.53636e-14
1.67779e-14
4.9731e-13
2.76981e-14
5.35474e-14
7.19382e-13
3.91136e-14
2.08191e-14
4.46639e-13
1.92842e-14
6.80125e-13
3.25672e-14
6.35679e-13
2.92158e-14
1.29971e-12
1e-14
1.50529e-12
1.5006e-13
1e-14
1.02808e-14
1.17312e-13
1.16815e-14
1e-14
5.21268e-14
1.54258e-14
9.86474e-14
4.92963e-13
1.59341e-14
2.74705e-14
7.2099e-13
5.66538e-14
4.09835e-14
4.43594e-13
2.02056e-14
1.87426e-14
6.82837e-13
6.37949e-13
3.4257e-14
3.04502e-14
9.24478e-13
1.30163e-12
8.96655e-14
1e-14
5.41301e-13
1.37908e-14
3.07547e-13
3.43282e-14
1.96959e-14
4.38998e-13
8.88968e-14
2.59227e-14
5.24643e-14
1.02728e-14
1e-14
5.94917e-14
6.70618e-14
1.02171e-14
1.31133e-14
1e-14
1e-14
1e-14
5.2303e-14
1.54512e-14
1.85448e-13
1.50588e-13
1.83365e-14
1.1073e-14
1e-14
1.02379e-14
7.18522e-14
2.00935e-14
1.29005e-14
1.01508e-14
9.92645e-13
2.8707e-13
4.70337e-14
1.34424e-12
1.2428e-12
1.29347e-13
2.2936e-14
1.28702e-14
1.02953e-14
5.43865e-13
4.49988e-14
2.1592e-14