/*--------------------------------*- C++ -*----------------------------------*\
| =========                 |                                                 |
| \\      /  F ield         | OpenFOAM: The Open Source CFD Toolbox           |
|  \\    /   O peration     | Version:  2.1.1                                 |
|   \\  /    A nd           | Web:      www.OpenFOAM.org                      |
|    \\/     M anipulation  |                                                 |
\*---------------------------------------------------------------------------*/
FoamFile
{
    version     2.0;
    format      ascii;
    class       volVectorField;
    location    "0.004";
    object      U;
}
// * * * * * * * * * * * * * * * * * * * * * * * * * * * * * * * * * * * * * //

dimensions      [0 1 -1 0 0 0 0];

internalField   nonuniform List<vector> 
10154
(
(0.000212473 -0.00182865 0.00812592)
(-0.00209722 -0.00238727 0.00778636)
(-0.000418091 -0.00695743 0.0249803)
(-0.00604788 -0.00669488 0.0194752)
(-0.00063367 0.000176588 0.078849)
(0.000124718 0.000345145 0.0988231)
(-0.00567812 -0.00615635 0.0177499)
(-0.000654168 7.56119e-05 0.0805201)
(-9.26365e-05 3.99221e-05 0.0974081)
(-0.000265298 -0.000172178 0.0960267)
(-7.22232e-06 -0.000160825 0.0952671)
(0.000264617 0.00104849 0.119629)
(-0.000168962 0.00109982 0.122359)
(-0.00135875 -0.000891016 0.00515668)
(-0.000480968 -6.09211e-05 0.0811587)
(7.6435e-05 -0.000367601 0.0941295)
(0.000167089 0.000920962 0.119299)
(8.48482e-05 0.000974982 0.121936)
(5.93429e-05 0.000994408 0.120754)
(-0.000160921 0.00109569 0.119803)
(-7.50754e-05 0.000895493 0.120949)
(-1.32056e-05 0.000979125 0.119515)
(-0.00434918 -0.00429029 0.0163494)
(-0.000458352 -0.000374284 0.0761494)
(0.000585613 0.000561532 0.118699)
(6.02114e-05 0.000865377 0.120202)
(1.49834e-05 0.000694502 0.120294)
(9.79638e-05 0.000830379 0.119203)
(4.79509e-05 0.000815971 0.118819)
(0.000213183 0.000912973 0.118882)
(0.000283196 0.00102799 0.118118)
(-1.00265e-05 0.00101502 0.117778)
(-0.004304 -0.00435691 0.0163897)
(-0.000263281 -0.00026439 0.0753562)
(0.000496717 0.000610004 0.116806)
(9.8345e-05 0.000563972 0.121721)
(0.000402813 0.000556438 0.11894)
(0.000160605 0.000682488 0.117843)
(0.000135979 0.000770099 0.11763)
(4.33244e-05 0.000785809 0.117602)
(2.4322e-05 0.000890274 0.117732)
(3.73752e-05 0.000728965 0.117575)
(-3.40435e-06 0.000736397 0.117595)
(-0.000891527 -0.00135783 0.00515658)
(-0.000373019 -0.000459088 0.0761738)
(0.000612445 0.000496566 0.116813)
(0.000244706 0.000244244 0.121765)
(0.000515592 0.00054911 0.118696)
(0.000228622 0.000480064 0.117656)
(0.000213137 0.000519178 0.117435)
(0.000155186 0.000565125 0.117434)
(0.000121543 0.000583994 0.117307)
(0.000121305 0.000639239 0.117322)
(0.000126034 0.00064421 0.11717)
(1.53637e-06 0.00065469 0.117177)
(-5.40379e-05 -0.000478597 0.0811632)
(0.000561118 0.000587905 0.118715)
(0.000565121 9.93004e-05 0.121728)
(0.000550144 0.000515111 0.118702)
(0.00035386 0.000352918 0.117519)
(0.000347942 0.00044472 0.117352)
(0.000229982 0.000455925 0.117213)
(0.00020478 0.000515414 0.11711)
(0.000125526 0.000502684 0.116984)
(8.79312e-05 0.000550219 0.116957)
(5.75499e-05 0.000493516 0.11688)
(9.87103e-06 0.000506609 0.116872)
(-0.00615779 -0.00568073 0.0177498)
(-0.000366855 7.71409e-05 0.0941343)
(0.00086593 6.25776e-05 0.120211)
(0.000557262 0.000404092 0.118945)
(0.000480163 0.000229246 0.11766)
(0.000445366 0.000347884 0.117353)
(0.000321597 0.000321847 0.117231)
(0.000285338 0.000372605 0.117007)
(0.000210285 0.000380763 0.116878)
(0.000163334 0.000390414 0.116746)
(0.000115967 0.000412304 0.116696)
(8.4524e-05 0.000410363 0.116615)
(1.4901e-05 0.000419346 0.116596)
(7.55204e-05 -0.000654895 0.080521)
(0.00091935 0.000167261 0.119301)
(0.000693932 1.54722e-05 0.120298)
(0.000682596 0.000160413 0.117846)
(0.00051893 0.00021323 0.117438)
(0.000456238 0.000229436 0.117214)
(0.000372607 0.000285197 0.117008)
(0.000290809 0.000290475 0.116789)
(0.000224283 0.000316694 0.11666)
(0.000157456 0.000309362 0.116542)
(0.000107926 0.000327114 0.116486)
(6.45114e-05 0.000309651 0.116429)
(1.78886e-05 0.00031516 0.116411)
(-0.00238718 -0.0020972 0.0077863)
(3.97523e-05 -9.24397e-05 0.0974097)
(0.000973795 8.55305e-05 0.121939)
(0.00083085 9.84893e-05 0.119207)
(0.000770696 0.000136552 0.117633)
(0.000564749 0.000155684 0.117437)
(0.000515694 0.000204815 0.117112)
(0.00038072 0.00021058 0.116879)
(0.00031686 0.000224339 0.116661)
(0.000228943 0.000229065 0.116528)
(0.00017327 0.000232559 0.11641)
(0.000116004 0.000240413 0.116346)
(7.24895e-05 0.000238769 0.11629)
(1.96315e-05 0.000242216 0.11627)
(-0.00695706 -0.000418226 0.0249804)
(-0.000171627 -0.000265216 0.0960279)
(0.000993409 5.86159e-05 0.120755)
(0.000815454 4.85853e-05 0.118822)
(0.000785887 4.22849e-05 0.117604)
(0.000583207 0.000121929 0.11731)
(0.000502807 0.000125188 0.116985)
(0.000390443 0.000163463 0.116747)
(0.000309534 0.00015724 0.116543)
(0.000232507 0.000173257 0.11641)
(0.000168707 0.000168559 0.116302)
(0.000114123 0.000176022 0.11624)
(6.63347e-05 0.000170012 0.116193)
(2.06706e-05 0.00017249 0.116176)
(-0.00669436 -0.00604658 0.0194755)
(-0.000161446 -7.00629e-06 0.0952705)
(0.00109563 -0.000160153 0.119808)
(0.000913139 0.000213743 0.118886)
(0.000890586 2.4431e-05 0.117734)
(0.000639572 0.000121686 0.117323)
(0.000550257 8.84789e-05 0.116958)
(0.000412389 0.000116263 0.116696)
(0.000327137 0.000108032 0.116487)
(0.000240365 0.000116155 0.116346)
(0.000176043 0.000114175 0.116241)
(0.000117478 0.000117533 0.116178)
(6.89819e-05 0.000116368 0.116135)
(2.17572e-05 0.000117334 0.116118)
(0.000177 -0.000636015 0.0788556)
(0.00104676 0.000262913 0.119635)
(0.000894835 -7.74658e-05 0.120951)
(0.00102688 0.000282691 0.11812)
(0.00072885 3.66528e-05 0.117576)
(0.000643856 0.00012599 0.117171)
(0.000493556 5.75287e-05 0.11688)
(0.000409949 8.45738e-05 0.116615)
(0.00030967 6.44476e-05 0.116429)
(0.000238657 7.25064e-05 0.11629)
(0.000170062 6.62974e-05 0.116195)
(0.00011632 6.89976e-05 0.116137)
(6.61527e-05 6.61881e-05 0.116103)
(2.23998e-05 6.67356e-05 0.116091)
(-0.00182933 0.000212606 0.00812707)
(0.00034534 0.000124828 0.0988316)
(0.00110224 -0.000168712 0.122365)
(0.000980524 -1.32597e-05 0.11952)
(0.00101671 -9.94341e-06 0.117779)
(0.000737105 -3.59971e-06 0.117595)
(0.000655709 1.52886e-06 0.117177)
(0.000506734 9.5352e-06 0.116872)
(0.000419385 1.49032e-05 0.116596)
(0.000315146 1.7837e-05 0.116411)
(0.000242197 1.96816e-05 0.11627)
(0.0001725 2.06874e-05 0.116176)
(0.000117356 2.18026e-05 0.116119)
(6.67195e-05 2.24391e-05 0.116091)
(2.30397e-05 2.30751e-05 0.116085)
(0.00020326 -0.00192959 0.00837679)
(-0.00204296 -0.00237602 0.00805451)
(-0.000305373 -0.00622059 0.0259868)
(-0.00557868 -0.00609427 0.0209087)
(-0.000651096 -0.000253257 0.078776)
(0.000289074 -0.000110386 0.0986107)
(-0.00532852 -0.00540708 0.0192441)
(-0.000599015 -0.000168046 0.0805518)
(-4.70307e-05 -0.000342214 0.0973482)
(-0.000211566 -0.000599518 0.096033)
(8.2166e-05 -0.00053484 0.0953274)
(0.000306318 0.000576396 0.119823)
(-3.11679e-05 0.000421082 0.122459)
(-0.00135043 -0.00111167 0.00539734)
(-0.000602819 -9.25941e-05 0.0813378)
(0.000104816 -0.000673553 0.094102)
(0.00026004 0.00054117 0.119407)
(0.000107172 0.000417491 0.121894)
(4.64979e-05 0.000491116 0.120655)
(-0.000178797 0.000528002 0.11971)
(-9.93628e-05 0.000239642 0.121006)
(2.15955e-05 0.000208981 0.119673)
(-0.00390654 -0.00387615 0.0178047)
(-0.000598674 -0.000640779 0.0761529)
(0.000607707 0.000331317 0.118682)
(-0.000116968 0.000426067 0.120247)
(-5.55621e-05 0.000146123 0.120481)
(1.56032e-05 0.000149218 0.119354)
(-1.76214e-05 0.000109855 0.118956)
(9.70037e-05 0.000151815 0.118994)
(0.00014144 0.000253883 0.118332)
(-1.13834e-06 0.000219202 0.11799)
(-0.00388637 -0.00391402 0.0178435)
(-0.000461191 -0.00045992 0.0753593)
(0.000391933 0.000393984 0.116882)
(-0.000192081 0.000125013 0.121855)
(0.000165627 8.96853e-05 0.11911)
(3.51792e-05 0.000184728 0.117985)
(5.93116e-05 0.000185957 0.117752)
(5.57856e-06 0.000201246 0.117729)
(-5.9473e-06 0.000240905 0.11784)
(-8.77833e-06 0.000146646 0.117693)
(-1.02272e-06 0.000145022 0.117698)
(-0.00111133 -0.00135035 0.00539798)
(-0.000639176 -0.000598782 0.0761771)
(0.000394738 0.000392438 0.11689)
(-0.000139886 -0.000138089 0.121895)
(0.000191557 0.000177026 0.118859)
(-2.02533e-06 0.000105019 0.117753)
(5.76944e-05 0.000126466 0.117512)
(3.61634e-05 0.000120397 0.117514)
(3.83874e-05 0.000122621 0.117396)
(4.5792e-05 0.000134761 0.117415)
(4.93987e-05 0.000147175 0.11727)
(-2.36881e-06 0.000151845 0.11727)
(-9.1951e-05 -0.000602202 0.0813436)
(0.00033028 0.000608731 0.118697)
(0.000125635 -0.000192354 0.121863)
(0.000176744 0.000191586 0.118864)
(4.1368e-05 4.19782e-05 0.117614)
(0.000109821 0.000121166 0.117424)
(5.33385e-05 0.000117559 0.117278)
(6.67323e-05 0.000139694 0.117183)
(3.098e-05 0.000129254 0.11706)
(2.50524e-05 0.000144375 0.117033)
(1.07492e-05 0.000115578 0.116958)
(3.72643e-06 0.000121471 0.11695)
(-0.00540649 -0.00532845 0.019244)
(-0.000673718 0.000104651 0.0941079)
(0.000426618 -0.00011651 0.120255)
(8.97466e-05 0.000165545 0.119114)
(0.000104223 -2.43391e-06 0.117757)
(0.000121003 0.000109941 0.117426)
(7.27166e-05 7.30913e-05 0.117301)
(7.98173e-05 0.000103485 0.11708)
(5.08813e-05 9.15933e-05 0.116957)
(4.44407e-05 9.72678e-05 0.116819)
(3.26482e-05 9.92105e-05 0.116771)
(2.62883e-05 0.000101107 0.116689)
(3.1257e-06 0.000103267 0.116672)
(-0.000167879 -0.00059914 0.0805527)
(0.000540302 0.000260021 0.11941)
(0.000145886 -5.57317e-05 0.120485)
(0.000184732 3.42511e-05 0.117988)
(0.000126104 5.74353e-05 0.117515)
(0.000117517 5.29973e-05 0.117279)
(0.000103358 7.97932e-05 0.117081)
(7.25077e-05 7.23125e-05 0.116863)
(5.98025e-05 8.28378e-05 0.116732)
(3.74013e-05 7.68141e-05 0.116609)
(2.82182e-05 8.27082e-05 0.116552)
(1.44045e-05 7.32388e-05 0.116492)
(5.36355e-06 7.51572e-05 0.116476)
(-0.00237629 -0.00204278 0.00805445)
(-0.000342307 -4.68122e-05 0.0973499)
(0.000417128 0.00010746 0.121897)
(0.000149531 1.57555e-05 0.119358)
(0.000186005 5.9436e-05 0.117755)
(0.000120092 3.63042e-05 0.117516)
(0.000139737 6.68303e-05 0.117184)
(9.14014e-05 5.1144e-05 0.116958)
(8.2877e-05 5.98976e-05 0.116733)
(5.49758e-05 5.51288e-05 0.116598)
(4.39785e-05 5.81467e-05 0.116472)
(2.89754e-05 5.78668e-05 0.116406)
(1.87444e-05 5.79373e-05 0.116348)
(4.8104e-06 5.83332e-05 0.116328)
(-0.00622068 -0.000305486 0.025987)
(-0.000599298 -0.000211795 0.0960345)
(0.000490619 4.57989e-05 0.120657)
(0.000109637 -1.75917e-05 0.118959)
(0.000201225 4.85015e-06 0.117731)
(0.000122236 3.85499e-05 0.117398)
(0.00012936 3.06228e-05 0.117061)
(9.71458e-05 4.44647e-05 0.116821)
(7.68979e-05 3.72181e-05 0.11661)
(5.80524e-05 4.39639e-05 0.116473)
(4.01645e-05 4.0057e-05 0.116359)
(2.80723e-05 4.24866e-05 0.116294)
(1.49191e-05 3.90174e-05 0.116245)
(5.48284e-06 3.98216e-05 0.116226)
(-0.00609386 -0.00557729 0.0209091)
(-0.000535019 8.21e-05 0.0953306)
(0.000528257 -0.000178523 0.119714)
(0.00015208 9.72591e-05 0.118997)
(0.000241061 -5.93847e-06 0.117843)
(0.000134832 4.60846e-05 0.117416)
(0.000144291 2.52679e-05 0.117034)
(9.91942e-05 3.28693e-05 0.116771)
(8.27032e-05 2.83405e-05 0.116552)
(5.77931e-05 2.91323e-05 0.116407)
(4.25044e-05 2.81575e-05 0.116295)
(2.79535e-05 2.80218e-05 0.116229)
(1.60934e-05 2.77799e-05 0.116183)
(5.3263e-06 2.75102e-05 0.116165)
(-0.000253055 -0.000652037 0.0787835)
(0.000575697 0.000305665 0.11983)
(0.000239433 -0.000100616 0.121009)
(0.000253407 0.000141013 0.118334)
(0.000146654 -9.3945e-06 0.117693)
(0.000146998 4.9138e-05 0.117271)
(0.000115614 1.04656e-05 0.116958)
(0.000100892 2.61932e-05 0.116689)
(7.32548e-05 1.42418e-05 0.116492)
(5.7806e-05 1.86947e-05 0.116348)
(3.90359e-05 1.48457e-05 0.116246)
(2.76952e-05 1.60618e-05 0.116185)
(1.44172e-05 1.44174e-05 0.116148)
(5.56866e-06 1.44535e-05 0.116136)
(-0.00193008 0.000204205 0.00837884)
(-0.00011034 0.000289331 0.09862)
(0.000422272 -3.11244e-05 0.122464)
(0.000209496 2.15163e-05 0.119678)
(0.000220003 -1.07231e-06 0.117991)
(0.000145322 -1.16963e-06 0.117699)
(0.00015225 -2.29019e-06 0.11727)
(0.000121552 3.65644e-06 0.116949)
(0.000103371 3.2392e-06 0.116671)
(7.51943e-05 5.42181e-06 0.116475)
(5.83502e-05 4.92431e-06 0.116328)
(3.9854e-05 5.56153e-06 0.116226)
(2.75173e-05 5.40655e-06 0.116166)
(1.44861e-05 5.64531e-06 0.116136)
(5.86968e-06 5.89743e-06 0.116128)
(0.000204102 -0.00197413 0.00839938)
(-0.00205911 -0.00241814 0.00808836)
(-0.000249923 -0.00614244 0.0262642)
(-0.00544589 -0.00601575 0.0212578)
(-0.000434588 -0.000315695 0.0789205)
(0.000330105 -0.00011324 0.0986606)
(-0.00519864 -0.00528257 0.0195523)
(-0.000277133 -0.000112255 0.0806318)
(1.12931e-05 -0.000280918 0.0974464)
(-0.000133231 -0.000638355 0.0961271)
(-4.51056e-05 -0.000734512 0.0954696)
(5.85775e-05 -0.00012266 0.119843)
(-5.77878e-05 -0.000322976 0.122463)
(-0.00133701 -0.00120298 0.00540935)
(-0.000451023 2.32362e-05 0.0813792)
(-3.16026e-05 -0.000706431 0.0941273)
(0.000193095 0.000105264 0.119418)
(7.83085e-05 -0.000173526 0.121841)
(0.000114191 -0.000127752 0.120551)
(-0.000111938 -0.000244941 0.119605)
(-0.00010842 -0.000502013 0.121004)
(3.42841e-05 -0.000485212 0.119707)
(-0.003827 -0.00379747 0.0180732)
(-0.000499399 -0.00065223 0.0762478)
(0.000534441 1.8239e-05 0.118635)
(-0.000214903 -7.65119e-06 0.120226)
(-5.56042e-05 -0.000332359 0.120533)
(-2.15972e-05 -0.000373905 0.119398)
(-1.26087e-05 -0.000451983 0.118992)
(4.26931e-05 -0.000517137 0.119024)
(1.23453e-05 -0.000443481 0.118354)
(-4.50904e-06 -0.000473175 0.117984)
(-0.00380764 -0.0038346 0.0181115)
(-0.000403406 -0.000401332 0.0754637)
(0.000284924 0.000195342 0.116828)
(-0.00036956 -0.000193731 0.121898)
(2.32073e-06 -0.000271425 0.119116)
(-6.74114e-05 -0.000251558 0.117961)
(-1.11045e-05 -0.000322945 0.117714)
(-1.89094e-05 -0.000320654 0.117694)
(-1.7763e-05 -0.00035992 0.117803)
(-4.10823e-05 -0.000395356 0.117655)
(5.23608e-06 -0.000392311 0.11765)
(-0.00120249 -0.00133711 0.00540947)
(-0.000651596 -0.000499413 0.0762723)
(0.000193855 0.000285762 0.116837)
(-0.000381292 -0.000378877 0.121928)
(-4.86234e-05 -0.000115065 0.118865)
(-0.000188171 -0.000229366 0.117726)
(-8.06888e-05 -0.000238436 0.117483)
(-8.4799e-05 -0.000288552 0.117486)
(-4.56195e-05 -0.000302892 0.11737)
(-2.49776e-05 -0.000336635 0.117395)
(-2.34819e-05 -0.000322987 0.117247)
(-5.56486e-06 -0.00032847 0.117243)
(2.26177e-05 -0.000451509 0.0813851)
(1.65447e-05 0.000534105 0.118649)
(-0.000194941 -0.000370172 0.121906)
(-0.000116281 -4.81556e-05 0.118869)
(-0.000226613 -0.000225881 0.117593)
(-0.000113507 -0.000182883 0.117399)
(-0.000125851 -0.000215057 0.117256)
(-7.47684e-05 -0.00022894 0.117162)
(-6.60866e-05 -0.000237386 0.117038)
(-3.81234e-05 -0.000255957 0.117011)
(-3.50448e-05 -0.000261175 0.116936)
(-2.02452e-06 -0.000263352 0.116929)
(-0.0052818 -0.00519864 0.0195522)
(-0.000706191 -3.27956e-05 0.0941336)
(-7.41636e-06 -0.000215956 0.120234)
(-0.000272296 1.61184e-06 0.119121)
(-0.000230654 -0.000188204 0.11773)
(-0.000183436 -0.000113257 0.117401)
(-0.000176646 -0.00017614 0.117284)
(-0.000126946 -0.000165464 0.117068)
(-0.000108913 -0.000195684 0.116946)
(-7.44862e-05 -0.0001941 0.116805)
(-5.01182e-05 -0.000211911 0.116757)
(-3.1856e-05 -0.000207506 0.116675)
(-8.11462e-06 -0.000212657 0.116659)
(-0.000111736 -0.000277174 0.0806327)
(0.000105124 0.000192385 0.119421)
(-0.000332567 -5.64892e-05 0.120537)
(-0.000251694 -6.86608e-05 0.117963)
(-0.000238835 -8.08988e-05 0.117485)
(-0.000215279 -0.000126104 0.117257)
(-0.000165698 -0.000126868 0.117069)
(-0.000145809 -0.000145893 0.116851)
(-0.000104287 -0.000151123 0.116719)
(-8.29656e-05 -0.000156289 0.116595)
(-5.17712e-05 -0.000163248 0.116538)
(-3.58512e-05 -0.000164982 0.116479)
(-7.09837e-06 -0.00016711 0.116463)
(-0.00241836 -0.00205832 0.00808821)
(-0.000281098 1.15603e-05 0.097448)
(-0.000173396 7.78588e-05 0.121844)
(-0.000373796 -2.17758e-05 0.119403)
(-0.000323182 -1.13898e-05 0.117717)
(-0.000288866 -8.48329e-05 0.117489)
(-0.000229176 -7.47407e-05 0.117163)
(-0.000195999 -0.000108668 0.116947)
(-0.000151205 -0.000104155 0.11672)
(-0.000119383 -0.000119185 0.116586)
(-8.65133e-05 -0.000117279 0.11646)
(-5.87043e-05 -0.00012588 0.116396)
(-3.56269e-05 -0.000124381 0.116337)
(-1.0119e-05 -0.000127152 0.116318)
(-0.00614246 -0.000250033 0.0262644)
(-0.000638547 -0.000133881 0.0961288)
(-0.000128033 0.000113411 0.120552)
(-0.000452026 -1.29407e-05 0.118995)
(-0.000320713 -1.92148e-05 0.117696)
(-0.000302979 -4.57689e-05 0.117373)
(-0.000237313 -6.6443e-05 0.117039)
(-0.000194233 -7.45645e-05 0.116807)
(-0.000156265 -8.31421e-05 0.116596)
(-0.000117414 -8.65402e-05 0.116461)
(-8.95881e-05 -8.96732e-05 0.116348)
(-5.88194e-05 -9.27375e-05 0.116284)
(-3.70957e-05 -9.36917e-05 0.116234)
(-9.88244e-06 -9.47219e-05 0.116216)
(-0.00601548 -0.00544429 0.0212583)
(-0.00073436 -4.54697e-05 0.0954725)
(-0.000244286 -0.000112095 0.119609)
(-0.000516621 4.26562e-05 0.119028)
(-0.000360007 -1.78724e-05 0.117806)
(-0.000337002 -2.47483e-05 0.117397)
(-0.000256117 -3.79799e-05 0.117012)
(-0.000212048 -4.99116e-05 0.116758)
(-0.000163283 -5.1622e-05 0.116539)
(-0.000125986 -5.85258e-05 0.116396)
(-9.27098e-05 -5.869e-05 0.116284)
(-6.27284e-05 -6.26355e-05 0.11622)
(-3.7616e-05 -6.22731e-05 0.116174)
(-1.11416e-05 -6.37024e-05 0.116156)
(-0.00031542 -0.000434337 0.0789279)
(-0.000122349 5.88516e-05 0.119849)
(-0.000501832 -0.000108729 0.121006)
(-0.000443467 1.19674e-05 0.118356)
(-0.000395147 -4.18895e-05 0.117655)
(-0.000322815 -2.38977e-05 0.117248)
(-0.000261122 -3.55432e-05 0.116937)
(-0.000207631 -3.21062e-05 0.116675)
(-0.000164985 -3.61344e-05 0.116479)
(-0.000124533 -3.57788e-05 0.116337)
(-9.3694e-05 -3.72305e-05 0.116235)
(-6.24051e-05 -3.77142e-05 0.116175)
(-3.81596e-05 -3.81995e-05 0.116139)
(-1.12872e-05 -3.88794e-05 0.116127)
(-0.00197454 0.000205067 0.00840124)
(-0.00011308 0.000330305 0.0986698)
(-0.00032285 -5.77124e-05 0.122469)
(-0.000485258 3.42107e-05 0.119712)
(-0.0004732 -4.48439e-06 0.117985)
(-0.000392427 5.21736e-06 0.11765)
(-0.000328517 -5.36103e-06 0.117243)
(-0.000263344 -1.88979e-06 0.116928)
(-0.000212576 -7.88788e-06 0.116659)
(-0.000167048 -6.92854e-06 0.116462)
(-0.000127106 -9.93668e-06 0.116317)
(-9.46399e-05 -9.73033e-06 0.116216)
(-6.36992e-05 -1.102e-05 0.116157)
(-3.87807e-05 -1.11566e-05 0.116127)
(-1.12706e-05 -1.12475e-05 0.116119)
(0.000203386 -0.00198116 0.0084203)
(-0.00205525 -0.00243422 0.00810348)
(-0.000204893 -0.00622641 0.0264175)
(-0.00534687 -0.00608517 0.0214027)
(-0.00034718 -0.000486222 0.079361)
(0.000279435 -0.000215385 0.0990004)
(-0.00511844 -0.00530824 0.0196303)
(-2.76018e-05 -0.000181889 0.0807765)
(7.55583e-05 -0.000366114 0.0977221)
(-2.95446e-05 -0.000833394 0.0963624)
(-0.000217007 -0.00111741 0.0958959)
(-0.000324856 -0.000999087 0.119958)
(-0.000118515 -0.00116105 0.122552)
(-0.00132635 -0.00122014 0.00541541)
(-0.000398167 -4.84128e-06 0.0814533)
(-0.000164848 -0.000846962 0.0941726)
(0.000116503 -0.000403707 0.119447)
(6.5405e-05 -0.000851851 0.1219)
(0.000210292 -0.000823492 0.120591)
(2.86117e-05 -0.00110656 0.119688)
(-7.16176e-05 -0.00122767 0.121058)
(4.87155e-05 -0.00113491 0.119735)
(-0.0038147 -0.00379403 0.018119)
(-0.000470272 -0.000716341 0.0763511)
(0.000400797 -0.000310747 0.118702)
(-0.000266338 -0.000434771 0.120284)
(-2.15231e-05 -0.000794519 0.120566)
(-6.74322e-05 -0.000878053 0.119426)
(-1.01217e-05 -0.00098592 0.118996)
(-9.03613e-06 -0.00115253 0.119066)
(-0.000124148 -0.00113165 0.118295)
(-6.40085e-06 -0.00115866 0.117904)
(-0.00380454 -0.00382246 0.0181574)
(-0.000428419 -0.000423899 0.0755531)
(0.000137597 -2.83656e-05 0.116883)
(-0.000518827 -0.00051115 0.12194)
(-0.000171157 -0.000633508 0.119077)
(-0.000183744 -0.000715723 0.117885)
(-0.000101496 -0.000857493 0.117626)
(-5.92976e-05 -0.000855625 0.117604)
(-3.30202e-05 -0.000973034 0.117724)
(-7.09469e-05 -0.00094212 0.117562)
(1.32518e-05 -0.000938742 0.117552)
(-0.00121964 -0.0013265 0.00541524)
(-0.000716069 -0.000470098 0.076378)
(-3.35136e-05 0.000139751 0.116893)
(-0.000595226 -0.000590349 0.121966)
(-0.000297739 -0.000424673 0.118821)
(-0.000384175 -0.000578764 0.117661)
(-0.000231256 -0.000616035 0.117408)
(-0.000218297 -0.000705468 0.117407)
(-0.000137195 -0.000730507 0.117287)
(-0.000102226 -0.000807263 0.117316)
(-0.00010284 -0.000795901 0.117153)
(-9.20903e-06 -0.000814532 0.117148)
(-5.69414e-06 -0.000399557 0.0814595)
(-0.000312568 0.000398706 0.118717)
(-0.000514273 -0.000520758 0.121948)
(-0.000427344 -0.000296696 0.118825)
(-0.000510208 -0.000509359 0.117531)
(-0.000358424 -0.000502891 0.117318)
(-0.000317233 -0.000559449 0.117172)
(-0.000221275 -0.000605297 0.117071)
(-0.000164781 -0.000607933 0.116946)
(-0.000102241 -0.000659841 0.11692)
(-8.13564e-05 -0.000637484 0.116844)
(-7.33317e-06 -0.000647304 0.116837)
(-0.00530759 -0.00511869 0.0196302)
(-0.000846166 -0.000167156 0.0941795)
(-0.000434674 -0.000269003 0.120292)
(-0.000635608 -0.000172998 0.119083)
(-0.000580834 -0.000383888 0.117665)
(-0.000503926 -0.000358082 0.117319)
(-0.000435937 -0.000435215 0.117199)
(-0.000335968 -0.000436184 0.116981)
(-0.000268197 -0.000480857 0.116858)
(-0.000192344 -0.000481661 0.116718)
(-0.000132399 -0.000518202 0.116672)
(-9.05891e-05 -0.000510377 0.116589)
(-1.90927e-05 -0.000522723 0.116573)
(-0.000181566 -2.81967e-05 0.0807773)
(-0.000403535 0.000115024 0.11945)
(-0.000794687 -2.33795e-05 0.120569)
(-0.000715785 -0.000185661 0.117887)
(-0.000616468 -0.000231597 0.11741)
(-0.000559835 -0.000317521 0.117173)
(-0.00043654 -0.000335801 0.116982)
(-0.000363241 -0.000363233 0.116763)
(-0.000266633 -0.000382619 0.116631)
(-0.000201775 -0.000386021 0.116512)
(-0.000130686 -0.000405453 0.116456)
(-8.56677e-05 -0.00039854 0.116399)
(-1.94175e-05 -0.000404326 0.116383)
(-0.00243416 -0.00205425 0.00810315)
(-0.000365987 7.57783e-05 0.0977234)
(-0.000850999 6.41996e-05 0.121904)
(-0.000878186 -6.78579e-05 0.119431)
(-0.000858159 -0.000102467 0.117629)
(-0.000705898 -0.000218515 0.11741)
(-0.000605806 -0.000221353 0.117073)
(-0.0004813 -0.000267948 0.116859)
(-0.000382805 -0.000266472 0.116632)
(-0.000290868 -0.000290627 0.116503)
(-0.000214995 -0.000289231 0.116381)
(-0.000144855 -0.000305649 0.11632)
(-8.94408e-05 -0.000302514 0.116263)
(-2.47649e-05 -0.000308115 0.116244)
(-0.00622639 -0.000204807 0.0264175)
(-0.000833776 -3.07768e-05 0.0963637)
(-0.000823726 0.000209298 0.120592)
(-0.000985962 -1.07668e-05 0.118998)
(-0.000855559 -5.94623e-05 0.117605)
(-0.000730056 -0.000137571 0.117289)
(-0.000607855 -0.000165123 0.116948)
(-0.000481785 -0.000192518 0.11672)
(-0.000386053 -0.000201964 0.116512)
(-0.000289398 -0.000215046 0.116382)
(-0.000216776 -0.00021686 0.116273)
(-0.000143972 -0.00022527 0.116212)
(-8.81453e-05 -0.000223531 0.116165)
(-2.5038e-05 -0.000226263 0.116148)
(-0.00608501 -0.00534504 0.0214032)
(-0.00111663 -0.000217652 0.0958979)
(-0.00110494 2.78256e-05 0.119693)
(-0.00115193 -9.16926e-06 0.119071)
(-0.000973464 -3.29687e-05 0.117727)
(-0.000807872 -0.000102048 0.117318)
(-0.000660147 -0.00010205 0.116921)
(-0.000518495 -0.000132191 0.116673)
(-0.000405517 -0.00013051 0.116457)
(-0.000305787 -0.000144648 0.11632)
(-0.00022522 -0.000143803 0.116213)
(-0.000151548 -0.000151431 0.116152)
(-9.04478e-05 -0.000150409 0.116108)
(-2.73081e-05 -0.00015308 0.116092)
(-0.00048565 -0.000345513 0.0793667)
(-0.000997504 -0.000323347 0.119964)
(-0.00122696 -7.09929e-05 0.12106)
(-0.00113084 -0.000124741 0.118297)
(-0.000941738 -7.16244e-05 0.117563)
(-0.000795302 -0.000103483 0.117154)
(-0.000637369 -8.22122e-05 0.116844)
(-0.000510512 -9.09859e-05 0.116589)
(-0.000398569 -8.60782e-05 0.116399)
(-0.000302683 -8.96765e-05 0.116263)
(-0.000223541 -8.8339e-05 0.116166)
(-0.000150584 -9.06146e-05 0.11611)
(-8.9795e-05 -8.9863e-05 0.116076)
(-2.76455e-05 -9.12251e-05 0.116065)
(-0.00198148 0.000204399 0.00842217)
(-0.000214971 0.000279979 0.0990106)
(-0.00116184 -0.0001183 0.122558)
(-0.00113556 4.88421e-05 0.11974)
(-0.00115941 -6.2304e-06 0.117906)
(-0.000939199 1.33464e-05 0.117553)
(-0.000815307 -8.85175e-06 0.117148)
(-0.000647356 -6.9828e-06 0.116836)
(-0.000522565 -1.87517e-05 0.116573)
(-0.000404227 -1.91493e-05 0.116383)
(-0.00030803 -2.45204e-05 0.116244)
(-0.000226139 -2.48215e-05 0.116148)
(-0.00015307 -2.71618e-05 0.116093)
(-9.10591e-05 -2.74682e-05 0.116065)
(-2.78839e-05 -2.78601e-05 0.116058)
(0.000198038 -0.00198755 0.00846769)
(-0.00204203 -0.00247217 0.00813752)
(-0.000138764 -0.00646625 0.0267387)
(-0.00526494 -0.0062393 0.0216593)
(-0.000479745 -0.000860335 0.0803906)
(4.70116e-05 -0.000459797 0.0996985)
(-0.00503005 -0.00539922 0.0197401)
(0.000226382 -0.000386694 0.0811644)
(0.000116914 -0.000668873 0.0982845)
(0.000170322 -0.00133828 0.096822)
(-0.000523518 -0.00193548 0.0968505)
(-0.00103802 -0.00237255 0.120085)
(-0.000212509 -0.00232711 0.122622)
(-0.00131802 -0.00122688 0.00542034)
(-0.000481953 -0.000157835 0.0817754)
(-0.000419194 -0.00114142 0.0942902)
(2.47537e-06 -0.00113451 0.119491)
(4.66259e-05 -0.0018053 0.121982)
(0.000339132 -0.00177008 0.120632)
(0.00018472 -0.00234845 0.119891)
(-8.98025e-05 -0.00210951 0.121096)
(5.4134e-05 -0.00191192 0.119745)
(-0.00381653 -0.00380807 0.0181479)
(-0.000554941 -0.000879856 0.0766728)
(0.000154013 -0.000780394 0.118847)
(-0.000355043 -0.000975604 0.120351)
(-2.52192e-05 -0.00135066 0.12056)
(-0.000150285 -0.00150165 0.119421)
(-8.20662e-06 -0.00162302 0.118955)
(-0.000109571 -0.00193517 0.119121)
(-0.000345381 -0.00193437 0.118155)
(-1.13931e-05 -0.00195354 0.117752)
(-0.00381884 -0.00382427 0.018187)
(-0.000549925 -0.000541528 0.0757875)
(-0.000126651 -0.000383835 0.117057)
(-0.000781126 -0.00092629 0.12199)
(-0.000425361 -0.00110502 0.118986)
(-0.000338921 -0.00127418 0.117752)
(-0.000213904 -0.00149003 0.117482)
(-0.000105341 -0.00146566 0.117457)
(-6.0237e-05 -0.00169423 0.117607)
(-0.000119726 -0.00153143 0.117404)
(1.92644e-05 -0.00152813 0.117393)
(-0.00122637 -0.00131828 0.00541993)
(-0.000882115 -0.00055524 0.0767037)
(-0.000395189 -0.000123149 0.117069)
(-0.000926744 -0.000919693 0.122053)
(-0.000641838 -0.000817698 0.118746)
(-0.000626855 -0.000980685 0.11754)
(-0.000407748 -0.00102713 0.117264)
(-0.00036207 -0.0011524 0.117254)
(-0.000230799 -0.00118081 0.117134)
(-0.000190553 -0.00130718 0.11717)
(-0.000196858 -0.00128514 0.116981)
(-1.45815e-05 -0.00131642 0.116972)
(-0.000158947 -0.000484654 0.0817822)
(-0.000783269 0.000147885 0.118865)
(-0.000931897 -0.000783471 0.121999)
(-0.000821584 -0.000640211 0.11875)
(-0.0008477 -0.000846312 0.117418)
(-0.000638373 -0.000857319 0.11716)
(-0.000520698 -0.000922318 0.117009)
(-0.000371451 -0.000995241 0.116901)
(-0.000261575 -0.000986945 0.116782)
(-0.00016736 -0.00107326 0.116758)
(-0.000130822 -0.00101086 0.116677)
(-1.33257e-05 -0.00102652 0.116669)
(-0.00539878 -0.00503018 0.01974)
(-0.00114054 -0.000423573 0.0942974)
(-0.000976368 -0.000359939 0.120359)
(-0.00110829 -0.0004278 0.118992)
(-0.000983714 -0.000626612 0.117544)
(-0.000858938 -0.000637905 0.117162)
(-0.000706089 -0.000705094 0.117029)
(-0.000547574 -0.000709709 0.11681)
(-0.000426156 -0.000763731 0.116688)
(-0.00030764 -0.000764684 0.116557)
(-0.000214215 -0.000819611 0.116513)
(-0.000150016 -0.000804926 0.116431)
(-3.02822e-05 -0.000823034 0.116414)
(-0.000387136 0.000224845 0.0811651)
(-0.00113367 -4.61819e-07 0.119493)
(-0.00134979 -2.80794e-05 0.120564)
(-0.00127439 -0.000342023 0.117755)
(-0.00102798 -0.000408348 0.117266)
(-0.000922983 -0.000521072 0.117011)
(-0.000710233 -0.000547326 0.116811)
(-0.000579326 -0.000579211 0.116597)
(-0.00042585 -0.000609707 0.116469)
(-0.000316912 -0.000609791 0.116359)
(-0.000207368 -0.00064056 0.116307)
(-0.000134159 -0.000623006 0.116253)
(-3.14943e-05 -0.000631649 0.116238)
(-0.00247233 -0.00204147 0.0081372)
(-0.000668007 0.000116768 0.0982856)
(-0.0018036 4.50841e-05 0.121985)
(-0.00150238 -0.000151407 0.119425)
(-0.00149112 -0.000215908 0.117485)
(-0.00115271 -0.000362539 0.117257)
(-0.000996021 -0.000371762 0.116902)
(-0.000764276 -0.000425927 0.116689)
(-0.000609981 -0.000425665 0.11647)
(-0.0004567 -0.000456418 0.116348)
(-0.000338462 -0.000454591 0.116236)
(-0.000227497 -0.000477821 0.11618)
(-0.000141193 -0.000472366 0.116127)
(-3.87997e-05 -0.000480438 0.11611)
(-0.00646634 -0.000138526 0.0267388)
(-0.00133868 0.00016803 0.0968227)
(-0.00176997 0.000337728 0.120633)
(-0.00162277 -8.97691e-06 0.118958)
(-0.0014653 -0.000105057 0.117459)
(-0.00117999 -0.000231473 0.117136)
(-0.000986924 -0.000262031 0.116783)
(-0.000764714 -0.000307924 0.116558)
(-0.000609867 -0.000317132 0.11636)
(-0.000454784 -0.000338533 0.116237)
(-0.000338335 -0.00033843 0.116138)
(-0.000225164 -0.00035146 0.116081)
(-0.0001368 -0.000346743 0.116039)
(-3.94887e-05 -0.000350821 0.116024)
(-0.0062391 -0.0052627 0.0216598)
(-0.00193341 -0.000523864 0.0968517)
(-0.00234501 0.000183341 0.119895)
(-0.00193435 -0.000109943 0.119125)
(-0.00169528 -6.0081e-05 0.11761)
(-0.00130823 -0.000190529 0.117172)
(-0.00107365 -0.000167173 0.116759)
(-0.000819919 -0.000214003 0.116514)
(-0.000640619 -0.000207168 0.116308)
(-0.000477983 -0.00022725 0.11618)
(-0.000351392 -0.000224964 0.116082)
(-0.000235834 -0.00023569 0.116027)
(-0.000140568 -0.000233761 0.115989)
(-4.267e-05 -0.000237376 0.115974)
(-0.000858811 -0.00047519 0.0803926)
(-0.00236811 -0.00103449 0.120091)
(-0.00210851 -8.81165e-05 0.121098)
(-0.00193259 -0.000346235 0.118156)
(-0.00153067 -0.000120462 0.117405)
(-0.00128428 -0.000197538 0.116981)
(-0.00101064 -0.000131608 0.116678)
(-0.000804936 -0.000150468 0.116431)
(-0.000623039 -0.000134672 0.116253)
(-0.000472552 -0.000141489 0.116127)
(-0.000346756 -0.000137051 0.11604)
(-0.000233971 -0.00014079 0.11599)
(-0.000138491 -0.000138571 0.115961)
(-4.30928e-05 -0.000140178 0.115952)
(-0.00198781 0.000198991 0.00846962)
(-0.000459179 4.82887e-05 0.0997122)
(-0.00232984 -0.000212355 0.122628)
(-0.00191328 5.4537e-05 0.119749)
(-0.00195521 -1.09772e-05 0.117754)
(-0.00152896 1.94714e-05 0.117394)