/*--------------------------------*- C++ -*----------------------------------*\
| =========                 |                                                 |
| \\      /  F ield         | OpenFOAM: The Open Source CFD Toolbox           |
|  \\    /   O peration     | Version:  2.1.1                                 |
|   \\  /    A nd           | Web:      www.OpenFOAM.org                      |
|    \\/     M anipulation  |                                                 |
\*---------------------------------------------------------------------------*/
FoamFile
{
    version     2.0;
    format      ascii;
    class       volScalarField;
    location    "0.005";
    object      p;
}
// * * * * * * * * * * * * * * * * * * * * * * * * * * * * * * * * * * * * * //

dimensions      [0 2 -2 0 0 0 0];

internalField   nonuniform List<scalar> 
10179
(
0.134827
0.134811
0.134845
0.134928
0.135074
0.135267
0.135535
0.135846
0.136275
0.136727
0.137471
0.138279
0.140655
0.145373
0.160855
0.134811
0.134792
0.134826
0.134904
0.135044
0.135235
0.135499
0.13581
0.136246
0.136722
0.137528
0.138498
0.141043
0.145315
0.159405
0.134845
0.134824
0.134862
0.134937
0.13507
0.135258
0.135524
0.135838
0.13628
0.136794
0.137667
0.138871
0.14161
0.145916
0.151099
0.134928
0.134903
0.134937
0.135018
0.135145
0.13532
0.135576
0.135875
0.136288
0.136781
0.137618
0.139064
0.141745
0.144567
0.128019
0.135073
0.135043
0.135068
0.135139
0.135274
0.135452
0.135696
0.135987
0.136409
0.136958
0.138011
0.140184
0.143729
0.148873
0.120711
0.135266
0.135233
0.135254
0.135314
0.135443
0.135604
0.135849
0.136135
0.136571
0.137204
0.138637
0.141607
0.146391
0.152571
0.135533
0.135495
0.135519
0.135569
0.135688
0.135845
0.136114
0.136454
0.137048
0.138055
0.140399
0.144525
0.152939
0.139482
0.135844
0.135805
0.135832
0.135867
0.13598
0.136129
0.13645
0.136869
0.137657
0.139056
0.142171
0.147758
0.153534
0.136271
0.136239
0.136271
0.136278
0.136399
0.136562
0.137041
0.137653
0.138961
0.14106
0.145514
0.15426
0.133517
0.136722
0.136712
0.136782
0.136767
0.136944
0.137191
0.138042
0.139046
0.141051
0.144232
0.151392
0.159458
0.137464
0.137514
0.137651
0.1376
0.137993
0.13862
0.140381
0.142152
0.145493
0.151414
0.160651
0.138271
0.138482
0.13885
0.139041
0.140162
0.141585
0.1445
0.147728
0.154219
0.159421
0.140648
0.14103
0.141586
0.14171
0.1437
0.146365
0.152912
0.153502
0.133475
0.145367
0.145318
0.145961
0.144489
0.148838
0.152543
0.139455
0.160826
0.159369
0.151068
0.127977
0.120674
0.0879985
0.0880535
0.088176
0.0883454
0.0886121
0.0889136
0.0893803
0.0898421
0.0906651
0.091317
0.0929324
0.0935807
0.0974685
0.0952977
0.132659
0.0880538
0.0881104
0.088236
0.0884041
0.088672
0.0889774
0.0894444
0.089914
0.0907307
0.0913976
0.0929629
0.0935949
0.0972981
0.0947725
0.130028
0.0881757
0.088234
0.0883685
0.0885415
0.0888193
0.0891408
0.0896354
0.0901504
0.091026
0.0918224
0.0934853
0.094347
0.0979779
0.0955506
0.122095
0.0883452
0.0884033
0.0885428
0.0887257
0.089011
0.0893344
0.08983
0.0903568
0.0911967
0.092038
0.0933809
0.0945641
0.0961269
0.0967777
0.12013
0.0886118
0.0886704
0.088817
0.0890051
0.0893262
0.0896808
0.0902354
0.0908446
0.0918524
0.0929472
0.0947596
0.0967263
0.0988955
0.128602
0.107202
0.0889133
0.088975
0.0891377
0.0893297
0.0896759
0.0900276
0.0906116
0.0912163
0.0921991
0.0932055
0.0948672
0.096239
0.0985889
0.12537
0.08938
0.0894414
0.0896321
0.0898252
0.0902312
0.0906099
0.0913213
0.0920193
0.0932873
0.0946546
0.097175
0.0991612
0.137732
0.115652
0.0898419
0.08991
0.0901463
0.0903509
0.0908389
0.0912118
0.0920151
0.0926309
0.0937951
0.0950155
0.096602
0.0990745
0.129824
0.090665
0.0907257
0.091021
0.0911894
0.0918454
0.0921933
0.0932812
0.093796
0.0956824
0.0967799
0.0998252
0.135861
0.117725
0.0913178
0.0913896
0.0918155
0.0920271
0.092936
0.0931942
0.0946418
0.0950076
0.0967686
0.0970859
0.0971901
0.132761
0.0929326
0.092953
0.0934756
0.0933671
0.0947458
0.0948544
0.097159
0.0965988
0.0998094
0.0972571
0.141788
0.0935847
0.0935787
0.0943355
0.0945433
0.0967072
0.0962181
0.0991365
0.0990488
0.135825
0.13272
0.0974668
0.097283
0.0979564
0.0961011
0.0988734
0.0985669
0.137708
0.129798
0.117689
0.0953119
0.0947397
0.0955351
0.0967437
0.128576
0.125346
0.115627
0.132629
0.129999
0.122065
0.120099
0.107172
0.105325
0.105373
0.105478
0.105622
0.105838
0.106074
0.106418
0.106715
0.107209
0.107419
0.108076
0.107551
0.108127
0.104789
0.119161
0.105373
0.105421
0.105527
0.10567
0.105887
0.106123
0.106465
0.106766
0.107249
0.107477
0.10808
0.107621
0.107966
0.104701
0.119046
0.105478
0.105527
0.105635
0.105781
0.106002
0.106245
0.106596
0.106918
0.107422
0.107714
0.108347
0.108101
0.108493
0.105839
0.116767
0.105621
0.105669
0.105781
0.105926
0.106148
0.106388
0.10673
0.10705
0.107504
0.10781
0.1082
0.108066
0.107562
0.104743
0.119596
0.105838
0.105886
0.106001
0.106146
0.106378
0.106623
0.106978
0.10731
0.107782
0.108075
0.108434
0.108052
0.106649
0.124572
0.11153
0.106074
0.106121
0.106243
0.106385
0.106621
0.106856
0.1072
0.107513
0.10792
0.10815
0.10826
0.107683
0.104446
0.117857
0.106418
0.106463
0.106593
0.106726
0.106974
0.107198
0.107555
0.107852
0.108248
0.108381
0.108353
0.106441
0.128083
0.112204
0.106714
0.106762
0.106914
0.107045
0.107304
0.107509
0.107849
0.108125
0.108406
0.108495
0.10821
0.105257
0.120497
0.107209
0.107244
0.107417
0.107496
0.107774
0.107914
0.108242
0.108406
0.108523
0.108531
0.10681
0.12899
0.115768
0.107419
0.107469
0.107706
0.1078
0.108064
0.108139
0.10837
0.108488
0.108528
0.108483
0.106373
0.12417
0.108075
0.108071
0.108337
0.108186
0.10842
0.108247
0.108338
0.1082
0.106807
0.106386
0.134173
0.107552
0.107606
0.108088
0.108048
0.108035
0.107664
0.106419
0.105238
0.128981
0.124171
0.108123
0.10795
0.108475
0.107541
0.106629
0.104426
0.128064
0.120477
0.115742
0.104795
0.104677
0.105824
0.104718
0.124553
0.117836
0.112183
0.119142
0.119029
0.116745
0.119571
0.111506
0.104445
0.104489
0.104586
0.104716
0.104915
0.105126
0.105437
0.105704
0.106142
0.106365
0.106896
0.106732
0.106988
0.105927
0.11679
0.104489
0.104532
0.10463
0.10476
0.104959
0.10517
0.105479
0.105749
0.106176
0.106408
0.106899
0.106738
0.106912
0.10576
0.117064
0.104586
0.104629
0.104729
0.104861
0.105063
0.10528
0.105597
0.105882
0.106327
0.10659
0.107102
0.106971
0.107187
0.106047
0.115192
0.104716
0.104759
0.10486
0.104991
0.105193
0.105408
0.105717
0.106003
0.106408
0.106687
0.107034
0.106998
0.106684
0.105982
0.117817
0.104915
0.104958
0.105063
0.105192
0.105403
0.105621
0.105943
0.106239
0.106665
0.106928
0.107298
0.106955
0.106848
0.122246
0.111352
0.105126
0.105168
0.105278
0.105406
0.10562
0.105831
0.106143
0.106424
0.106801
0.107037
0.107233
0.106944
0.106163
0.115328
0.105437
0.105477
0.105595
0.105714
0.105941
0.106142
0.106464
0.106735
0.107089
0.107281
0.107236
0.106897
0.124976
0.110759
0.105703
0.105745
0.105879
0.105998
0.106234
0.10642
0.106732
0.106957
0.107244
0.107331
0.107279
0.106697
0.117126
0.106141
0.106171
0.106322
0.106401
0.106659
0.106796
0.107085
0.107247
0.107458
0.10735
0.107091
0.125058
0.113328
0.106365
0.106401
0.106584
0.106678
0.106919
0.107027
0.107271
0.107326
0.107344
0.107012
0.107164
0.120515
0.106895
0.106891
0.107093
0.107023
0.107286
0.107221
0.107222
0.107268
0.107084
0.107192
0.129852
0.106734
0.106725
0.106961
0.106983
0.10694
0.106926
0.106876
0.106672
0.125056
0.120538
0.106985
0.106899
0.107174
0.106668
0.106834
0.106144
0.124958
0.117109
0.11331
0.105937
0.105733
0.106035
0.105963
0.122232
0.11531
0.11074
0.116782
0.117054
0.11518
0.117799
0.111334
0.103873
0.103909
0.10399
0.104096
0.104256
0.104417
0.104646
0.104816
0.105071
0.10512
0.105273
0.104956
0.104839
0.104124
0.115059
0.103909
0.103945
0.104026
0.104131
0.10429
0.10445
0.104675
0.104844
0.105086
0.105137
0.105252
0.104944
0.104771
0.104064
0.115348
0.10399
0.104026
0.104107
0.104212
0.104372
0.104532
0.104759
0.10493
0.105174
0.105223
0.105342
0.105019
0.104888
0.104122
0.11361
0.104095
0.10413
0.104212
0.104314
0.10447
0.104625
0.104836
0.104998
0.105198
0.105243
0.105235
0.104981
0.104493
0.10421
0.116349
0.104255
0.104289
0.104371
0.104469
0.104625
0.104773
0.104981
0.105128
0.105318
0.105309
0.105311
0.104844
0.104589
0.120624
0.110256
0.104417
0.104449
0.104531
0.104623
0.104772
0.104905
0.105089
0.105207
0.105339
0.105289
0.105192
0.104708
0.104409
0.113689
0.104646
0.104673
0.104757
0.104834
0.104979
0.105088
0.105248
0.105336
0.105406
0.105332
0.105052
0.104661
0.122693
0.109502
0.104815
0.104841
0.104927
0.104994
0.105125
0.105204
0.105334
0.105366
0.105385
0.105243
0.104953
0.104746
0.115227
0.10507
0.105082
0.10517
0.105193
0.105313
0.105335
0.105402
0.105385
0.105364
0.10516
0.104839
0.122934
0.111542
0.10512
0.105131
0.105218
0.105235
0.105301
0.105281
0.105324
0.105239
0.105155
0.104731
0.105052
0.11847
0.105272
0.105245
0.105335
0.105226
0.105301
0.105181
0.10504
0.104942
0.10483
0.104925
0.127131
0.104956
0.104934
0.105012
0.104969
0.104832
0.104694
0.104641
0.104709
0.122825
0.118512
0.104836
0.104761
0.104878
0.104481
0.104577
0.104394
0.122678
0.115209
0.111525
0.104125
0.104051
0.104112
0.104195
0.120613
0.113675
0.109486
0.115056
0.115343
0.113602
0.116335
0.110243
0.103346
0.103373
0.103433
0.10351
0.103624
0.103732
0.103875
0.103958
0.104065
0.104008
0.103968
0.103697
0.103449
0.103059
0.113858
0.103373
0.103399
0.10346
0.103536
0.103648
0.103754
0.103892
0.103973
0.104068
0.104008
0.103945
0.103685
0.103397
0.103038
0.114172
0.103433
0.103459
0.10352
0.103594
0.103705
0.103807
0.103942
0.104017
0.104108
0.104033
0.103985
0.103695
0.103483
0.103033
0.112437
0.10351
0.103535
0.103594
0.103664
0.103769
0.103864
0.103983
0.104046
0.104099
0.104024
0.103901
0.103674
0.103226
0.103132
0.115189
0.103624
0.103647
0.103704
0.103769
0.103868
0.103951
0.104056
0.104097
0.104129
0.104015
0.103905
0.103522
0.103283
0.119435
0.109207
0.103731
0.103752
0.103806
0.103862
0.10395
0.104014
0.104095
0.104106
0.104102
0.103971
0.103833
0.103422
0.103249
0.112589
0.103875
0.10389
0.103941
0.103981
0.104054
0.104095
0.10414
0.104126
0.104069
0.103943
0.103653
0.103357
0.121214
0.108391
0.103958
0.10397
0.104015
0.104042
0.104094
0.104104
0.104124
0.104079
0.104009
0.103848
0.103586
0.103456
0.113945
0.104064
0.104064
0.104105
0.104095
0.104125
0.104098
0.104067
0.104009
0.103901
0.103748
0.10343
0.121472
0.11023
0.104007
0.104003
0.104029
0.104018
0.104009
0.103965
0.103937
0.103847
0.103754
0.103374
0.103536
0.117029
0.103967
0.10394
0.10398
0.103893
0.103897
0.103825
0.103644
0.103578
0.103443
0.103787
0.125441
0.103697
0.103678
0.103689
0.103664
0.103512
0.103411
0.103344
0.103443
0.121489
0.117103
0.103448
0.10339
0.103475
0.103217
0.103274
0.103238
0.121204
0.113935
0.110225
0.103058
0.103029
0.103025
0.103121
0.119428
0.112579
0.10838
0.113855
0.114169
0.112431
0.115179
0.109197
0.102563
0.102581
0.102622
0.10267
0.102738
0.102793
0.102855
0.102865
0.102853
0.102753
0.102625
0.102445
0.102182
0.102086
0.112814
0.102581
0.102599
0.102639
0.102686
0.102751
0.102804
0.102861
0.102868
0.102846
0.102748
0.102606
0.102438
0.10215
0.102082
0.113142
0.102621
0.102638
0.102676
0.102721
0.102783
0.10283
0.102882
0.102879
0.102855
0.102743
0.102622
0.102415
0.102225
0.10203
0.11136
0.10267
0.102685
0.102721
0.10276
0.102815
0.102853
0.10289
0.102876
0.102831
0.102724
0.102562
0.102418
0.10207
0.102175
0.114117
0.102738
0.102751
0.102782
0.102814
0.10286
0.102886
0.102907
0.102873
0.102819
0.102684
0.102549
0.102281
0.102167
0.118343
0.108213
0.102792
0.102803
0.102829
0.102852
0.102885
0.102894
0.102896
0.102844
0.10278
0.102637
0.10252
0.102239
0.102217
0.111527
0.102854
0.102859
0.10288
0.102889
0.102906
0.102895
0.102869
0.102814
0.102711
0.1026
0.102354
0.102235
0.120014
0.107352
0.102865
0.102866
0.102877
0.102873
0.102871
0.102842
0.102813
0.102741
0.102654
0.102523
0.102351
0.102352
0.112786
0.102853
0.102844
0.102852
0.102827
0.102816
0.102778
0.102709
0.102654
0.102546
0.102466
0.102259
0.120253
0.109098
0.102752
0.102744
0.102739
0.10272
0.102679
0.102633
0.102597
0.102522
0.10246
0.102153
0.102637
0.115834
0.102624
0.102601
0.102617
0.102556
0.102544
0.102515
0.10235
0.102351
0.10225
0.102416
0.124105
0.102444
0.102432
0.10241
0.102411
0.102274
0.102231
0.102228
0.102347
0.120269
0.115845
0.102181
0.102145
0.102219
0.102063
0.10216
0.102209
0.120008
0.112782
0.109099
0.102085
0.102075
0.102023
0.102168
0.118338
0.111521
0.107345
0.11281
0.11314
0.111355
0.114111
0.108206
0.101696
0.101706
0.101728
0.101752
0.101781
0.101795
0.101796
0.101755
0.101681
0.101579
0.101416
0.101306
0.101041
0.101081
0.1118
0.101706
0.101715
0.101737
0.101759
0.101786
0.101797
0.101794
0.10175
0.101672
0.101573
0.101402
0.101305
0.101021
0.101093
0.112133
0.101728
0.101736
0.101756
0.101775
0.101797
0.101803
0.101794
0.101742
0.101666
0.101553
0.101409
0.101265
0.101084
0.10101
0.110315
0.101752
0.101759
0.101775
0.101789
0.101804
0.101801
0.10178
0.101724
0.101638
0.101533
0.101366
0.101281
0.10097
0.10118
0.11308
0.101781
0.101785
0.101797
0.101804
0.10181
0.101795
0.101761
0.101696
0.101607
0.101481
0.101346
0.101151
0.101078
0.117285
0.10723
0.101794
0.101796
0.101802
0.1018
0.101794
0.101766
0.101725
0.101652
0.101568
0.101437
0.101337
0.101117
0.101179
0.110485
0.101795
0.101792
0.101793
0.101779
0.10176
0.101725
0.101667
0.101602
0.101487
0.101401
0.101181
0.101146
0.118895
0.10634
0.101755
0.101748
0.10174
0.101721
0.101694
0.101651
0.101601
0.101526
0.101439
0.101329
0.101192
0.101268
0.111684
0.10168
0.10167
0.101664
0.101636
0.101605
0.101566
0.101485
0.101439
0.10134
0.101287
0.10112
0.119117
0.108033
0.101578
0.10157
0.10155
0.10153
0.101478
0.101434
0.101399
0.101331
0.101295
0.101011
0.101302
0.114676
0.101415
0.101399
0.101405
0.101362
0.101342
0.101333
0.101177
0.101191
0.101143
0.101522
0.122893
0.101305
0.101301
0.101261
0.101276
0.101146
0.101112
0.101142
0.101265
0.119139
0.114725
0.101039
0.101016
0.101078
0.100966
0.101074
0.101174
0.118893
0.111683
0.108037
0.101079
0.101086
0.100999
0.10118
0.117284
0.110481
0.106335
0.111797
0.112132
0.110311
0.113076
0.107228
0.100738
0.100741
0.100747
0.100751
0.100748
0.100731
0.100687
0.100626
0.100528
0.100444
0.100283
0.100231
0.09998
0.100085
0.110799
0.100741
0.100743
0.100749
0.100751
0.100746
0.100726
0.10068
0.100619
0.10052
0.10044
0.100273
0.100234
0.0999652
0.100106
0.111133
0.100747
0.100749
0.100752
0.100751
0.100742
0.100717
0.100667
0.100602
0.100508
0.100415
0.100277
0.100187
0.100022
0.100005
0.109296
0.10075
0.10075
0.100751
0.100745
0.10073
0.100698
0.100645
0.100579
0.100484
0.1004
0.100248
0.100212
0.0999308
0.10019
0.11206
0.100748
0.100746
0.100742
0.10073
0.100707
0.100669
0.100611
0.100542
0.100448
0.100348
0.100228
0.10009
0.100035
0.116247
0.106244
0.10073
0.100725
0.100716
0.100697
0.100668
0.100626
0.100571
0.100499
0.100417
0.100311
0.100235
0.100059
0.100159
0.109461
0.100686
0.100678
0.100667
0.100644
0.10061
0.100571
0.100504
0.100446
0.100338
0.100282
0.100089
0.1001
0.117819
0.105335
0.100625
0.100617
0.1006
0.100578
0.100541
0.100498
0.100446
0.100381
0.100305
0.100223
0.100108
0.100219
0.110622
0.100527
0.100518
0.100506
0.100482
0.100446
0.100416
0.100337
0.100305
0.10022
0.100203
0.100072
0.118036
0.106996
0.100443
0.100437
0.100413
0.100398
0.100345
0.100309
0.100281
0.100222
0.100196
0.0999361
0.100433
0.113609
0.100281
0.10027
0.100274
0.100244
0.100225
0.100233
0.100087
0.100107
0.100053
0.100233
0.121732
0.100229
0.100231
0.100184
0.100209
0.100087
0.100056
0.100098
0.100217
0.11805
0.113616
0.0999782
0.0999618
0.100019
0.0999271
0.100032
0.100155
0.117819
0.110623
0.107
0.100083
0.100102
0.100002
0.100186
0.116246
0.109458
0.105332
0.110795
0.111133
0.109294
0.112057
0.106242
0.0996935
0.0996914
0.0996854
0.0996736
0.0996484
0.0996097
0.0995475
0.0994882
0.0993904
0.099333
0.0991863
0.0991807
0.0989517
0.0990993
0.109803
0.0996912
0.0996888
0.0996819
0.0996687
0.0996419
0.0996016
0.0995397
0.0994813
0.0993839
0.09933
0.0991803
0.099187
0.0989408
0.0991241
0.110137
0.0996852
0.0996819
0.0996732
0.0996576
0.0996276
0.0995852
0.0995235
0.0994624
0.0993717
0.0993048
0.0991836
0.0991375
0.0989948
0.0990177
0.108291
0.0996733
0.0996684
0.0996576
0.099638
0.0996039
0.0995607
0.0995007
0.0994418
0.0993536
0.0992965
0.0991653
0.0991713
0.0989184
0.0992052
0.111053
0.0996481
0.0996415
0.0996274
0.0996041
0.0995675
0.099525
0.0994638
0.0994045
0.0993195
0.0992477
0.0991499
0.0990549
0.0990203
0.115225
0.10526
0.0996091
0.0996008
0.0995847
0.0995602
0.0995246
0.0994827
0.0994282
0.0993683
0.0992997
0.0992207
0.0991684
0.099031
0.0991544
0.10845
0.0995469
0.0995387
0.0995227
0.0995
0.0994633
0.0994281
0.0993648
0.0993218
0.0992293
0.0991997
0.0990335
0.0990739
0.116772
0.10434
0.0994875
0.09948
0.0994613
0.0994407
0.0994036
0.0993678
0.0993215
0.0992717
0.0992113
0.0991527
0.0990613
0.0991979
0.109586
0.0993895
0.0993824
0.0993704
0.0993521
0.0993183
0.0992989
0.0992287
0.0992117
0.0991408
0.0991426
0.0990187
0.116978
0.105978
0.0993319
0.0993281
0.0993031
0.0992947
0.099246
0.0992193
0.0991989
0.0991537
0.0991479
0.0989065
0.0992228
0.11254
0.0991849
0.0991783
0.0991816
0.0991631
0.0991479
0.0991666
0.0990321
0.0990613
0.0990341
0.0993917
0.120653
0.0991792
0.0991846
0.0991352
0.0991687
0.0990526
0.0990288
0.0990722
0.099197
0.116997
0.11258
0.0989499
0.0989384
0.0989923
0.0989157
0.0990179
0.099152
0.116773
0.109588
0.105983
0.0990976
0.0991215
0.0990152
0.0992024
0.115225
0.108448
0.104338
0.109799
0.110138
0.108291
0.111051
0.105259
0.0985869
0.0985803
0.0985655
0.0985433
0.0985036
0.0984609
0.0984
0.0983537
0.0982701
0.0982409
0.0981181
0.0981499
0.097945
0.0981226
0.108811
0.09858
0.0985735
0.0985583
0.0985352
0.098495
0.098453
0.0983928
0.0983483
0.098266
0.0982398
0.0981155
0.098158
0.0979383
0.0981486
0.109145
0.0985653
0.0985583
0.0985423
0.0985171
0.0984771
0.0984355
0.0983778
0.0983312
0.0982563
0.0982172
0.0981201
0.098108
0.0979902
0.0980428
0.107297
0.098543
0.0985351
0.0985175
0.0984914
0.0984527
0.0984136
0.0983594
0.0983163
0.0982454
0.0982156
0.0981104
0.0981431
0.0979253
0.0982281
0.110058
0.0985032
0.0984946
0.0984769
0.0984526
0.0984163
0.0983798
0.098327
0.0982843
0.0982173
0.0981725
0.0981021
0.0980436
0.0980245
0.114215
0.104283
0.0984604
0.0984524
0.098435
0.0984132
0.0983796
0.0983462
0.0983012
0.098259
0.0982084
0.0981568
0.0981285
0.0980251
0.0981647
0.107449
0.0983993
0.0983921
0.0983772
0.0983589
0.0983267
0.0983012
0.0982493
0.0982228
0.0981503
0.098143
0.0980053
0.0980705
0.115746
0.103352
0.0983529
0.0983473
0.0983304
0.0983156
0.0982837
0.0982588
0.0982227
0.0981906
0.0981465
0.0981125
0.098038
0.0981845
0.108566
0.0982692
0.0982649
0.0982553
0.0982444
0.0982165
0.098208
0.0981499
0.0981465
0.0980929
0.0981136
0.0980175
0.115936
0.104971
0.0982397
0.0982384
0.0982159
0.0982144
0.0981715
0.0981561
0.0981426
0.0981118
0.0981101
0.0978967
0.0983494
0.111517
0.0981167
0.098114
0.0981187
0.0981089
0.0981009
0.0981276
0.0980048
0.0980371
0.0980059
0.0982205
0.11957
0.0981484
0.0981563
0.0981063
0.0981411
0.0980425
0.098024
0.0980696
0.0981839
0.115953
0.111534
0.0979433
0.0979365
0.0979884
0.0979235
0.098023
0.0981633
0.115748
0.108568
0.104976
0.098121
0.0981467
0.0980409
0.0982262
0.114215
0.107448
0.103352
0.108807
0.109147
0.107297
0.110056
0.104282
0.0974292
0.0974199
0.0974002
0.0973717
0.0973315
0.0972959
0.0972466
0.0972194
0.0971586
0.0971585
0.0970676
0.097133
0.0969552
0.0971584
0.107822
0.0974196
0.0974112
0.0973911
0.0973627
0.0973241
0.0972898
0.0972421
0.0972164
0.0971576
0.0971597
0.0970694
0.0971427
0.0969545
0.0971835
0.108156
0.0973999
0.0973913
0.0973714
0.0973441
0.097308
0.0972753
0.0972309
0.097204
0.0971524
0.0971431
0.0970785
0.0971012
0.0970078
0.097086
0.106312
0.0973713
0.0973626
0.0973444
0.0973208
0.0972881
0.0972593
0.0972195
0.0971964
0.0971498
0.0971484
0.0970788
0.0971461
0.0969576
0.0972639
0.109073
0.097331
0.0973238
0.0973079
0.097288
0.0972585
0.0972338
0.097196
0.0971732
0.0971306
0.0971126
0.0970723
0.0970321
0.0970461
0.113215
0.103314
0.0972953
0.0972893
0.097275
0.097259
0.0972337
0.0972127
0.0971828
0.0971615
0.0971334
0.0971097
0.0971061
0.097028
0.0971853
0.106457
0.0972459
0.0972415
0.0972304
0.0972192
0.0971959
0.0971828
0.0971473
0.097139
0.097091
0.097103
0.0969964
0.0970693
0.114732
0.102374
0.0972186
0.0972157
0.0972035
0.0971959
0.0971729
0.0971615
0.097139
0.0971274
0.0971013
0.0970922
0.0970341
0.0971924
0.107558
0.0971576
0.0971567
0.0971517
0.0971493
0.0971302
0.0971333
0.097091
0.0971016
0.0970686
0.0970968
0.0970155
0.114898
0.103974
0.0971573
0.0971587
0.0971423
0.0971478
0.0971122
0.0971095
0.0971031
0.0970931
0.0970995
0.0969191
0.0972537
0.110487
0.0970663
0.0970683
0.0970775
0.0970781
0.0970717
0.0971058
0.0969965
0.0970351
0.0970238
0.0973425
0.118524
0.0971316
0.0971415
0.0971002
0.0971452
0.0970315
0.0970277
0.0970692
0.0971929
0.114917
0.110519
0.0969536
0.0969533
0.0970066
0.0969566
0.0970454
0.0971848
0.114735
0.107561
0.10398
0.097157
0.0971822
0.0970848
0.0972628
0.113217
0.106457
0.102374
0.107819
0.108159
0.106313
0.109073
0.103314
0.0962322
0.0962218
0.0961993
0.0961736
0.0961419
0.0961184
0.0960867
0.0960809
0.0960485
0.0960783
0.0960267
0.0961262
0.0959789
0.0962126
0.106836
0.0962214
0.0962119
0.0961903
0.0961663
0.0961366
0.0961146
0.0960852
0.0960806
0.0960508
0.0960822
0.0960332
0.0961365
0.0959868
0.096235
0.10717
0.096199
0.0961906
0.0961719
0.0961515
0.0961247
0.0961059
0.0960796
0.096075
0.0960524
0.0960748
0.0960493
0.09611
0.0960459
0.0961571
0.105339
0.0961732
0.0961662
0.0961515
0.0961348
0.0961127
0.0960976
0.0960769
0.0960756
0.0960591
0.0960869
0.0960612
0.096153
0.096015
0.0963226
0.108102
0.0961414
0.0961363
0.0961245
0.0961126
0.0960939
0.0960834
0.096065
0.0960641
0.0960508
0.0960612
0.0960585
0.0960428
0.0960883
0.112228
0.102361
0.0961177
0.0961142
0.0961056
0.0960974
0.0960834
0.0960772
0.0960661
0.0960678
0.0960665
0.0960725
0.0960987
0.0960457
0.0962279
0.105474
0.096086
0.0960848
0.0960792
0.0960768
0.096065
0.0960662
0.0960507
0.096062
0.0960434
0.0960743
0.0960045
0.0960781
0.11373
0.101407
0.0960801
0.0960801
0.0960747
0.0960755
0.0960641
0.096068
0.0960621
0.0960737
0.0960698
0.0960891
0.0960501
0.096216
0.106561
0.0960475
0.0960503
0.0960519
0.0960589
0.0960508
0.0960668
0.0960437
0.0960702
0.0960619
0.0961024
0.0960506
0.113858
0.102989
0.0960773
0.0960816
0.0960745
0.0960868
0.0960613
0.0960728
0.0960748
0.0960898
0.0961027
0.0959681
0.0963481
0.109472
0.0960253
0.0960326
0.0960488
0.0960612
0.0960586
0.0960992
0.0960052
0.0960511
0.0960494
0.0962996
0.117458
0.0961248
0.0961359
0.0961096
0.0961528
0.0960429
0.0960462
0.0960788
0.0962171
0.113877
0.109498
0.0959774
0.0959862
0.0960454
0.0960149
0.0960883
0.0962283
0.113734
0.106565
0.102996
0.0962113
0.0962343
0.0961565
0.0963223
0.11223
0.105475
0.101408
0.106833
0.107174
0.105341
0.108102
0.102361
0.095006
0.0949948
0.0949762
0.0949582
0.0949383
0.0949287
0.0949175
0.0949341
0.0949331
0.094994
0.0949872
0.0951263
0.0950148
0.0952938
0.10585
0.0949946
0.0949855
0.0949693
0.0949534
0.0949357
0.0949277
0.0949187
0.0949367
0.094939
0.0950005
0.0949987
0.0951379
0.0950312
0.0953151
0.106184
0.0949759
0.0949693
0.0949567
0.0949443
0.09493
0.0949252
0.0949205
0.0949392
0.0949494
0.0950062
0.0950274
0.0951366
0.0951097
0.0952734
0.104379
0.0949578
0.0949532
0.0949442
0.0949358
0.0949264
0.0949259
0.0949267
0.0949489
0.0949659
0.0950251
0.0950545
0.0951717
0.0951083
0.0954238
0.107149
0.0949378
0.0949354
0.0949298
0.0949263
0.09492
0.0949247
0.0949284
0.0949509
0.0949705
0.0950122
0.0950565
0.0950691
0.0951596
0.111254
0.101434
0.094928
0.0949274
0.094925
0.0949259
0.0949248
0.0949346
0.0949449
0.0949712
0.0950013
0.0950397
0.0951039
0.0950767
0.0953008
0.104504
0.0949167
0.0949185
0.0949203
0.0949268
0.0949285
0.0949451
0.0949522
0.0949851
0.0950008
0.0950533
0.0950287
0.0950994
0.112744
0.100459
0.0949333
0.0949364
0.0949391
0.0949491
0.0949511
0.0949716
0.0949853
0.0950229
0.0950473
0.0950989
0.0950872
0.0952557
0.105576
0.094932
0.0949388
0.0949492
0.0949661
0.0949708
0.0950017
0.0950013
0.0950478
0.09507
0.0951269
0.0951091
0.112799
0.102015
0.0949929
0.0950004
0.0950062
0.0950257
0.095013
0.0950405
0.0950542
0.0951001
0.0951281
0.0950598
0.0953881
0.108447
0.0949859
0.0949986
0.0950274
0.0950552
0.0950573
0.0951052
0.0950301
0.095089
0.0951116
0.0954026
0.116368
0.0951249
0.095138
0.0951367
0.0951722
0.09507
0.0950778
0.0951007
0.0952577
0.112819
0.108472
0.0950134
0.0950312
0.0951099
0.095109
0.0951604
0.0953021
0.112748
0.105581
0.102023
0.0952925
0.0953152
0.0952734
0.0954244
0.111257
0.104506
0.100461
0.105848
0.106188
0.104382
0.10715
0.101435
0.0937575
0.0937502
0.0937386
0.0937296
0.0937226
0.0937256
0.0937348
0.093774
0.0938028
0.0938962
0.0939383
0.0941336
0.0940558
0.0944171
0.104862
0.0937499
0.0937441
0.0937348
0.0937277
0.0937227
0.0937273
0.0937391
0.0937791
0.0938122
0.0939054
0.0939539
0.0941493
0.0940842
0.0944431
0.105189
0.0937384
0.0937348
0.0937289
0.0937248
0.0937236
0.0937316
0.093749
0.0937908
0.0938341
0.0939284
0.0940049
0.0941814
0.0942063
0.0944684
0.103434
0.0937291
0.0937275
0.0937247
0.0937251
0.0937283
0.0937411
0.0937644
0.0938093
0.0938604
0.0939554
0.0940537
0.094208
0.0942515
0.0946072
0.106219
0.093722
0.0937225
0.0937234
0.0937282
0.0937338
0.0937536
0.0937805
0.0938257
0.0938799
0.0939573
0.094062
0.0941099
0.0942758
0.1103
0.100551
0.0937249
0.0937271
0.0937315
0.0937412
0.0937538
0.0937799
0.0938126
0.0938638
0.0939299
0.0940034
0.0941206
0.0941201
0.0944227
0.103549
0.093734
0.093739
0.093749
0.0937646
0.0937807
0.0938129
0.0938441
0.0939007
0.0939552
0.0940356
0.0940687
0.0941385
0.111781
0.0995449
0.0937731
0.093779
0.0937909
0.0938098
0.0938262
0.0938644
0.093901
0.0939679
0.094028
0.09412
0.0941503
0.0943137
0.104607
0.0938016
0.0938122
0.093834
0.0938609
0.0938804
0.0939305
0.093956
0.0940287
0.0940891
0.0941742
0.0942096
0.111692
0.101055
0.0938952
0.0939057
0.0939289
0.0939567
0.0939589
0.0940048
0.0940368
0.0941215
0.0941759
0.0942094
0.0945423
0.107389
0.093937
0.0939542
0.0940054
0.094055
0.0940634
0.094123
0.094071
0.0941528
0.0942124
0.094549
0.115178
0.0941324
0.09415
0.0941821
0.0942093
0.0941116
0.094122
0.0941408
0.0943165
0.111712
0.107421
0.0940543
0.0940849
0.094207
0.094253
0.0942775
0.094425
0.111786
0.104613
0.101064
0.0944156
0.0944442
0.0944692
0.0946088
0.110304
0.103552
0.0995479
0.10486
0.105194
0.103438
0.106221
0.100553
0.0924993
0.092496
0.0924908
0.0924902
0.0924944
0.0925063
0.0925354
0.0925995
0.092651
0.0928012
0.0928491
0.0931566
0.0930639
0.0936073
0.103852
0.0924957
0.0924927
0.0924901
0.0924908
0.0924971
0.0925103
0.0925428
0.0926064
0.0926649
0.0928089
0.0928762
0.0931655
0.09311
0.0936429
0.104155
0.0924906
0.0924901
0.0924899
0.0924938
0.0925038
0.0925217
0.0925615
0.0926276
0.0927053
0.0928473
0.0929685
0.0932448
0.0933194
0.0938059
0.102489
0.0924898
0.0924906
0.0924938
0.0925016
0.0925158
0.0925386
0.0925858
0.0926527
0.0927474
0.0928734
0.0930504
0.0932565
0.093452
0.093948
0.105307
0.0924938
0.0924968
0.0925036
0.0925155
0.09253
0.0925646
0.0926158
0.0926824
0.0927814
0.0928821
0.0930591
0.093141
0.0934404
0.109378
0.0997394
0.0925056
0.0925102
0.0925216
0.0925391
0.0925648
0.0926072
0.0926631
0.0927389
0.0928496
0.0929514
0.0931645
0.0931545
0.093628
0.102609
0.0925345
0.0925428
0.0925617
0.0925862
0.0926163
0.0926635
0.0927181
0.0927998
0.0928957
0.0930139
0.0931122
0.0931921
0.110856
0.0987004
0.0925987
0.0926065
0.0926279
0.0926535
0.0926832
0.0927397
0.0928003
0.0929005
0.0930017
0.0931532
0.0932424
0.0934069
0.103663
0.09265
0.0926652
0.0927057
0.0927484
0.0927826
0.092851
0.0928969
0.0930026
0.0931147
0.0932442
0.0933635
0.11041
0.100107
0.0928003
0.0928095
0.092848
0.0928749
0.0928838
0.0929533
0.093016
0.0931554
0.0932466
0.0934483
0.0938687
0.106239
0.0928478
0.0928771
0.0929695
0.0930523
0.0930611
0.0931672
0.0931149
0.0932453
0.093365
0.0938639
0.113716
0.0931552
0.0931669
0.093246
0.0932586
0.0931435
0.0931572
0.0931954
0.0934106
0.110425
0.10627
0.0930621
0.0931116
0.0933209
0.0934544
0.093443
0.0936314
0.110863
0.10367
0.100118
0.0936053
0.0936452
0.0938074
0.093951
0.109383
0.102613
0.0987044
0.103849
0.104161
0.102493
0.10531
0.0997429
0.0912372
0.091236
0.0912357
0.0912432
0.0912567
0.0912869
0.0913236
0.0914068
0.0914708
0.0916672
0.0917246
0.0921588
0.0920229
0.0928904
0.102802
0.0912357
0.0912342
0.0912374
0.0912458
0.0912617
0.0912926
0.0913327
0.0914137
0.0914872
0.0916702
0.0917578
0.0921539
0.092096
0.0929232
0.103028
0.0912355
0.0912373
0.0912427
0.0912545
0.0912751
0.0913097
0.0913607
0.0914438
0.0915491
0.0917311
0.091912
0.0923111
0.0924793
0.0933824
0.101527
0.0912427
0.0912456
0.0912544
0.0912687
0.0912945
0.0913321
0.0913915
0.0914724
0.091602
0.0917522
0.0920315
0.092291
0.0927635
0.093564
0.104392
0.0912561
0.0912615
0.091275
0.0912945
0.0913254
0.0913681
0.0914345
0.091514
0.0916515
0.0917726
0.0920421
0.0921546
0.0926428
0.108514
0.0990353
0.0912862
0.0912925
0.0913096
0.0913323
0.0913683
0.0914199
0.0914943
0.0915881
0.0917397
0.0918675
0.0921955
0.0921723
0.0929634
0.101687
0.0913228
0.0913328
0.0913608
0.0913919
0.091435
0.0914947
0.0915699
0.0916712
0.091808
0.0919609
0.0921616
0.0922502
0.110005
0.0980461
0.091406
0.0914139
0.0914441
0.0914733
0.091515
0.0915891
0.0916717
0.0918093
0.0919405
0.0921765
0.0923196
0.0925812
0.102767
0.0914699
0.0914876
0.0915499
0.0916034
0.0916531
0.0917415
0.0918095
0.0919413
0.0920914
0.0922426
0.0925906
0.108988
0.099203
0.0916662
0.0916711
0.0917321
0.0917541
0.0917748
0.0918701
0.0919639
0.0921791
0.0922468
0.0928082
0.0936282
0.104821
0.0917233
0.0917591
0.0919136
0.092034
0.0920448
0.0921992
0.0921655
0.092324
0.0925946
0.0936354
0.111536
0.0921572
0.0921561
0.0923126
0.092294
0.092158
0.0921761
0.0922552
0.0925872
0.109009
0.104856
0.0920208
0.0920986
0.0924814
0.0927668
0.0926464
0.0929676
0.110012
0.102776
0.099216
0.0928875
0.092928
0.093384
0.0935692
0.108521
0.101692
0.0980513
0.1028
0.103036
0.101532
0.104396
0.0990405
0.0899755
0.0899777
0.089983
0.089995
0.0900132
0.0900503
0.0900918
0.0901866