/*--------------------------------*- C++ -*----------------------------------*\
| =========                 |                                                 |
| \\      /  F ield         | OpenFOAM: The Open Source CFD Toolbox           |
|  \\    /   O peration     | Version:  2.1.1                                 |
|   \\  /    A nd           | Web:      www.OpenFOAM.org                      |
|    \\/     M anipulation  |                                                 |
\*---------------------------------------------------------------------------*/
FoamFile
{
    version     2.0;
    format      ascii;
    class       volScalarField;
    location    "0.0015";
    object      Th;
}
// * * * * * * * * * * * * * * * * * * * * * * * * * * * * * * * * * * * * * //

dimensions      [0 0 0 0 0 0 0];

internalField   nonuniform List<scalar> 
10314
(
1.00001e-14
1e-14
1e-14
1e-14
1e-14
1e-14
1e-14
1e-14
1e-14
1e-14
1e-14
1e-14
1.00001e-14
1.00182e-14
1.06291e-14
1e-14
1e-14
1e-14
1e-14
1e-14
1e-14
1e-14
1e-14
1e-14
1e-14
1.00001e-14
1.00001e-14
1.00001e-14
1.00607e-14
1.11217e-14
1e-14
1e-14
1e-14
1e-14
1e-14
1e-14
1e-14
1e-14
1e-14
1e-14
1e-14
1.00001e-14
1e-14
1.00024e-14
1.02489e-14
1e-14
1e-14
1e-14
1e-14
1e-14
1.00001e-14
1e-14
1e-14
1e-14
1e-14
1e-14
1e-14
1.00006e-14
1e-14
1.0018e-14
1e-14
1e-14
1e-14
1e-14
1e-14
1e-14
1e-14
1e-14
1e-14
1e-14
1e-14
1e-14
1.00008e-14
1e-14
1e-14
1e-14
1e-14
1e-14
1.00001e-14
1e-14
1e-14
1e-14
1e-14
1e-14
1e-14
1e-14
1.00001e-14
1.01084e-14
1.06693e-14
1e-14
1e-14
1e-14
1e-14
1e-14
1e-14
1e-14
1e-14
1e-14
1e-14
1e-14
1.00008e-14
1.00002e-14
1e-14
1e-14
1e-14
1e-14
1e-14
1e-14
1e-14
1e-14
1e-14
1e-14
1e-14
1.00001e-14
1.01083e-14
1.0377e-14
4.12112e-13
1e-14
1e-14
1e-14
1e-14
1e-14
1e-14
1e-14
1e-14
1e-14
1e-14
1e-14
1e-14
1.35303e-14
1e-14
1e-14
1e-14
1e-14
1e-14
1e-14
1e-14
1e-14
1e-14
1e-14
1e-14
1e-14
1e-14
1.00001e-14
1e-14
1e-14
1e-14
1e-14
1e-14
1.00001e-14
1e-14
1e-14
1e-14
1e-14
1.00001e-14
1.00001e-14
1e-14
1e-14
1.00001e-14
1.00008e-14
1.01082e-14
1e-14
1e-14
1.00001e-14
1.00001e-14
1e-14
1.00006e-14
1.00008e-14
1.01084e-14
1.00002e-14
1.0377e-14
1.35308e-14
1.00182e-14
1.00607e-14
1.00024e-14
1e-14
1e-14
1.06692e-14
1e-14
4.12115e-13
1.06288e-14
1.11211e-14
1.02486e-14
1.0018e-14
1e-14
1e-14
1e-14
1e-14
1e-14
1e-14
1e-14
1e-14
1e-14
1e-14
1e-14
1e-14
1e-14
1e-14
1.0016e-14
1.06363e-14
1e-14
1e-14
1e-14
1e-14
1e-14
1e-14
1e-14
1e-14
1e-14
1e-14
1e-14
1e-14
1.00001e-14
1.00547e-14
1.11144e-14
1e-14
1e-14
1e-14
1e-14
1e-14
1e-14
1e-14
1e-14
1e-14
1e-14
1e-14
1e-14
1e-14
1.00018e-14
1.06e-14
1e-14
1e-14
1e-14
1e-14
1e-14
1e-14
1e-14
1e-14
1e-14
1e-14
1e-14
1e-14
1.00005e-14
1e-14
1.00165e-14
1e-14
1e-14
1e-14
1e-14
1e-14
1e-14
1e-14
1e-14
1e-14
1e-14
1e-14
1e-14
1.00007e-14
1e-14
1e-14
1e-14
1e-14
1e-14
1e-14
1e-14
1e-14
1e-14
1e-14
1e-14
1e-14
1e-14
1e-14
1.01013e-14
1.06646e-14
1e-14
1e-14
1e-14
1e-14
1e-14
1e-14
1e-14
1e-14
1e-14
1e-14
1e-14
1.00007e-14
1.00003e-14
1e-14
1e-14
1e-14
1e-14
1e-14
1e-14
1e-14
1e-14
1e-14
1e-14
1e-14
1e-14
1.00997e-14
1.03686e-14
4.13067e-13
1e-14
1e-14
1e-14
1e-14
1e-14
1e-14
1e-14
1e-14
1e-14
1e-14
1e-14
1e-14
1.42868e-14
1e-14
1e-14
1e-14
1e-14
1e-14
1e-14
1e-14
1e-14
1e-14
1e-14
1e-14
1e-14
1e-14
1e-14
1e-14
1e-14
1e-14
1e-14
1e-14
1e-14
1e-14
1e-14
1e-14
1e-14
1e-14
1e-14
1e-14
1e-14
1e-14
1.00007e-14
1.00997e-14
1e-14
1e-14
1e-14
1.00001e-14
1e-14
1.00005e-14
1.00007e-14
1.01013e-14
1.00003e-14
1.03686e-14
1.42858e-14
1.00159e-14
1.00547e-14
1.00018e-14
1e-14
1e-14
1.06645e-14
1e-14
4.1307e-13
1.06361e-14
1.11139e-14
1.05994e-14
1.00165e-14
1e-14
1e-14
1e-14
1e-14
1e-14
1e-14
1e-14
1e-14
1e-14
1e-14
1e-14
1e-14
1e-14
1e-14
1.00156e-14
1.06435e-14
1e-14
1e-14
1e-14
1e-14
1e-14
1e-14
1e-14
1e-14
1e-14
1e-14
1e-14
1e-14
1e-14
1.00536e-14
1.11218e-14
1e-14
1e-14
1e-14
1e-14
1e-14
1e-14
1e-14
1e-14
1e-14
1e-14
1e-14
1e-14
1e-14
1.00017e-14
1.06886e-14
1e-14
1e-14
1e-14
1e-14
1e-14
1e-14
1e-14
1e-14
1e-14
1e-14
1e-14
1e-14
1.00005e-14
1e-14
1.00164e-14
1e-14
1e-14
1e-14
1e-14
1e-14
1e-14
1e-14
1e-14
1e-14
1e-14
1e-14
1e-14
1.00007e-14
1e-14
1e-14
1e-14
1e-14
1e-14
1e-14
1e-14
1e-14
1e-14
1e-14
1e-14
1e-14
1e-14
1e-14
1.01002e-14
1.06693e-14
1e-14
1e-14
1e-14
1e-14
1e-14
1e-14
1e-14
1e-14
1e-14
1e-14
1e-14
1.00007e-14
1.00002e-14
1e-14
1e-14
1e-14
1e-14
1e-14
1e-14
1e-14
1e-14
1e-14
1e-14
1e-14
1e-14
1.00987e-14
1.03687e-14
4.13219e-13
1e-14
1e-14
1e-14
1e-14
1e-14
1e-14
1e-14
1e-14
1e-14
1e-14
1e-14
1e-14
1.44728e-14
1e-14
1e-14
1e-14
1e-14
1e-14
1e-14
1e-14
1e-14
1e-14
1e-14
1e-14
1e-14
1e-14
1e-14
1e-14
1e-14
1e-14
1e-14
1e-14
1e-14
1e-14
1e-14
1e-14
1e-14
1e-14
1e-14
1e-14
1e-14
1e-14
1.00007e-14
1.00986e-14
1e-14
1e-14
1e-14
1e-14
1e-14
1.00005e-14
1.00007e-14
1.01002e-14
1.00002e-14
1.03687e-14
1.44714e-14
1.00157e-14
1.00536e-14
1.00017e-14
1e-14
1e-14
1.06692e-14
1e-14
4.13222e-13
1.06433e-14
1.11216e-14
1.0688e-14
1.00164e-14
1e-14
1e-14
1e-14
1e-14
1e-14
1e-14
1e-14
1e-14
1.00001e-14
1.00001e-14
1e-14
1e-14
1e-14
1e-14
1.00157e-14
1.06445e-14
1e-14
1e-14
1e-14
1e-14
1e-14
1e-14
1e-14
1e-14
1e-14
1e-14
1e-14
1e-14
1e-14
1.00539e-14
1.11243e-14
1e-14
1e-14
1e-14
1e-14
1e-14
1e-14
1e-14
1e-14
1e-14
1e-14
1e-14
1e-14
1e-14
1.00018e-14
1.07084e-14
1e-14
1e-14
1e-14
1e-14
1e-14
1e-14
1e-14
1e-14
1e-14
1e-14
1e-14
1e-14
1.00005e-14
1e-14
1.00163e-14
1e-14
1e-14
1e-14
1e-14
1e-14
1e-14
1e-14
1e-14
1e-14
1e-14
1e-14
1e-14
1.00007e-14
1e-14
1e-14
1e-14
1e-14
1e-14
1e-14
1e-14
1e-14
1e-14
1e-14
1e-14
1e-14
1e-14
1e-14
1.01e-14
1.06693e-14
1e-14
1e-14
1e-14
1e-14
1e-14
1e-14
1e-14
1e-14
1e-14
1e-14
1e-14
1.00006e-14
1.00002e-14
1e-14
1.00001e-14
1e-14
1e-14
1e-14
1e-14
1e-14
1e-14
1e-14
1e-14
1e-14
1e-14
1.00982e-14
1.03666e-14
4.13285e-13
1.00001e-14
1e-14
1e-14
1e-14
1e-14
1e-14
1e-14
1e-14
1e-14
1e-14
1e-14
1e-14
1.44936e-14
1e-14
1e-14
1e-14
1e-14
1e-14
1e-14
1e-14
1e-14
1e-14
1e-14
1e-14
1e-14
1e-14
1e-14
1e-14
1e-14
1e-14
1e-14
1e-14
1e-14
1e-14
1e-14
1e-14
1e-14
1e-14
1e-14
1e-14
1e-14
1e-14
1.00006e-14
1.00982e-14
1e-14
1e-14
1e-14
1e-14
1e-14
1.00005e-14
1.00007e-14
1.01e-14
1.00002e-14
1.03666e-14
1.4492e-14
1.00157e-14
1.0054e-14
1.00018e-14
1e-14
1e-14
1.06692e-14
1e-14
4.13287e-13
1.06444e-14
1.11248e-14
1.07081e-14
1.00163e-14
1e-14
1e-14
1e-14
1e-14
1e-14
1e-14
1.00001e-14
1.00001e-14
1e-14
1e-14
1e-14
1e-14
1.00001e-14
1e-14
1.00165e-14
1.06447e-14
1e-14
1e-14
1e-14
1e-14
1e-14
1e-14
1e-14
1e-14
1e-14
1e-14
1e-14
1e-14
1e-14
1.0056e-14
1.11308e-14
1e-14
1e-14
1e-14
1e-14
1e-14
1e-14
1e-14
1e-14
1e-14
1e-14
1e-14
1e-14
1e-14
1.00018e-14
1.07344e-14
1e-14
1e-14
1e-14
1e-14
1e-14
1e-14
1e-14
1e-14
1e-14
1e-14
1e-14
1e-14
1.00005e-14
1e-14
1.00162e-14
1e-14
1e-14
1e-14
1e-14
1e-14
1e-14
1e-14
1e-14
1e-14
1e-14
1e-14
1e-14
1.00007e-14
1e-14
1e-14
1.00001e-14
1e-14
1e-14
1e-14
1e-14
1e-14
1e-14
1e-14
1e-14
1e-14
1e-14
1e-14
1.01001e-14
1.06684e-14
1.00001e-14
1e-14
1e-14
1e-14
1e-14
1e-14
1e-14
1e-14
1e-14
1e-14
1e-14
1.00006e-14
1.00001e-14
1e-14
1e-14
1e-14
1e-14
1e-14
1e-14
1e-14
1e-14
1e-14
1e-14
1e-14
1e-14
1.00968e-14
1.03627e-14
4.13332e-13
1e-14
1e-14
1e-14
1e-14
1e-14
1e-14
1e-14
1e-14
1e-14
1e-14
1e-14
1e-14
1.45045e-14
1e-14
1e-14
1e-14
1e-14
1e-14
1e-14
1e-14
1e-14
1e-14
1e-14
1e-14
1e-14
1e-14
1e-14
1e-14
1e-14
1e-14
1e-14
1e-14
1e-14
1e-14
1e-14
1e-14
1.00001e-14
1e-14
1e-14
1e-14
1e-14
1e-14
1.00006e-14
1.00968e-14
1e-14
1e-14
1e-14
1e-14
1e-14
1.00005e-14
1.00007e-14
1.01001e-14
1.00001e-14
1.03627e-14
1.45029e-14
1.00165e-14
1.00561e-14
1.00018e-14
1e-14
1e-14
1.06684e-14
1e-14
4.13334e-13
1.06445e-14
1.11313e-14
1.07343e-14
1.00162e-14
1e-14
1e-14
1e-14
1e-14
1e-14
1e-14
1.00001e-14
1e-14
1e-14
1e-14
1e-14
1.00001e-14
1.00001e-14
1e-14
1.00145e-14
1.06388e-14
1e-14
1e-14
1e-14
1e-14
1e-14
1e-14
1e-14
1e-14
1e-14
1e-14
1e-14
1e-14
1e-14
1.00599e-14
1.11474e-14
1e-14
1e-14
1e-14
1e-14
1e-14
1e-14
1e-14
1e-14
1e-14
1e-14
1e-14
1e-14
1e-14
1.00022e-14
1.08817e-14
1e-14
1e-14
1e-14
1e-14
1e-14
1e-14
1e-14
1e-14
1e-14
1e-14
1e-14
1e-14
1.00005e-14
1e-14
1.00158e-14
1e-14
1e-14
1e-14
1e-14
1e-14
1e-14
1e-14
1e-14
1e-14
1e-14
1e-14
1e-14
1.00007e-14
1e-14
1e-14
1.00001e-14
1e-14
1e-14
1e-14
1e-14
1e-14
1e-14
1e-14
1e-14
1e-14
1e-14
1e-14
1.01011e-14
1.06625e-14
1e-14
1e-14
1e-14
1e-14
1e-14
1e-14
1e-14
1e-14
1e-14
1e-14
1e-14
1.00005e-14
1e-14
1e-14
1e-14
1e-14
1e-14
1e-14
1e-14
1e-14
1e-14
1e-14
1e-14
1e-14
1e-14
1.011e-14
1.03525e-14
4.13316e-13
1e-14
1e-14
1e-14
1e-14
1e-14
1e-14
1e-14
1e-14
1e-14
1e-14
1e-14
1e-14
1.45058e-14
1e-14
1e-14
1e-14
1e-14
1e-14
1e-14
1e-14
1e-14
1e-14
1e-14
1e-14
1e-14
1.00001e-14
1e-14
1e-14
1e-14
1e-14
1e-14
1e-14
1e-14
1e-14
1e-14
1e-14
1.00001e-14
1e-14
1e-14
1e-14
1e-14
1e-14
1.00005e-14
1.011e-14
1e-14
1e-14
1e-14
1e-14
1e-14
1.00005e-14
1.00007e-14
1.01011e-14
1e-14
1.03524e-14
1.45041e-14
1.00145e-14
1.00599e-14
1.00022e-14
1e-14
1e-14
1.06625e-14
1e-14
4.13318e-13
1.06387e-14
1.11475e-14
1.08815e-14
1.00158e-14
1e-14
1e-14
1e-14
1e-14
1.00001e-14
1.00001e-14
1.00001e-14
1e-14
1e-14
1e-14
1e-14
1e-14
1e-14
1e-14
1.00391e-14
1.04174e-14
1e-14
1e-14
1e-14
1e-14
1e-14
1e-14
1e-14
1e-14
1e-14
1e-14
1e-14
1e-14
1e-14
1.00979e-14
1.1112e-14
1e-14
1e-14
1e-14
1e-14
1e-14
1e-14
1e-14
1e-14
1e-14
1e-14
1e-14
1e-14
1e-14
1.00046e-14
1.09887e-14
1.00001e-14
1e-14
1e-14
1e-14
1e-14
1e-14
1e-14
1e-14
1e-14
1e-14
1e-14
1e-14
1.00005e-14
1e-14
1.00069e-14
1.00001e-14
1e-14
1e-14
1e-14
1e-14
1e-14
1e-14
1e-14
1e-14
1e-14
1e-14
1e-14
1.00019e-14
1e-14
1e-14
1.00001e-14
1e-14
1e-14
1e-14
1e-14
1e-14
1e-14
1e-14
1e-14
1e-14
1e-14
1e-14
1.01104e-14
1.05883e-14
1e-14
1e-14
1e-14
1e-14
1e-14
1e-14
1e-14
1e-14
1e-14
1e-14
1e-14
1.00006e-14
1e-14
1e-14
1e-14
1e-14
1e-14
1e-14
1e-14
1e-14
1e-14
1e-14
1e-14
1e-14
1e-14
1.00703e-14
1.03598e-14
4.11409e-13
1e-14
1e-14
1e-14
1e-14
1e-14
1e-14
1e-14
1e-14
1e-14
1e-14
1e-14
1e-14
1.31583e-14
1e-14
1e-14
1e-14
1e-14
1e-14
1e-14
1e-14
1e-14
1e-14
1e-14
1e-14
1e-14
1e-14
1e-14
1e-14
1e-14
1e-14
1e-14
1e-14
1e-14
1e-14
1e-14
1e-14
1e-14
1e-14
1e-14
1e-14
1e-14
1e-14
1.00006e-14
1.00703e-14
1e-14
1e-14
1e-14
1e-14
1e-14
1.00005e-14
1.00019e-14
1.01104e-14
1e-14
1.03598e-14
1.31581e-14
1.00391e-14
1.00979e-14
1.00046e-14
1e-14
1e-14
1.05883e-14
1e-14
4.11411e-13
1.04174e-14
1.11121e-14
1.09886e-14
1.00069e-14
1e-14
1e-14
1e-14
1e-14
1e-14
1e-14
1.00001e-14
1e-14
1e-14
1e-14
1.00001e-14
1.00001e-14
1e-14
1e-14
1.0006e-14
1e-14
1e-14
1e-14
1e-14
1e-14
1e-14
1e-14
1e-14
1e-14
1e-14
1e-14
1e-14
1e-14
1e-14
1.00093e-14
1e-14
1e-14
1e-14
1e-14
1e-14
1e-14
1e-14
1e-14
1e-14
1e-14
1e-14
1e-14
1e-14
1e-14
1e-14
1.08145e-14
1e-14
1e-14
1e-14
1e-14
1e-14
1e-14
1e-14
1e-14
1e-14
1e-14
1e-14
1e-14
1.00001e-14
1.00006e-14
1e-14
1e-14
1e-14
1e-14
1e-14
1e-14
1e-14
1e-14
1e-14
1e-14
1e-14
1e-14
1e-14
1.00002e-14
1.00031e-14
1e-14
1.00001e-14
1e-14
1e-14
1e-14
1e-14
1e-14
1e-14
1e-14
1e-14
1e-14
1e-14
1e-14
1.00069e-14
1e-14
1e-14
1e-14
1e-14
1e-14
1e-14
1e-14
1e-14
1e-14
1e-14
1e-14
1e-14
1e-14
1e-14
1e-14
1e-14
1e-14
1e-14
1e-14
1e-14
1e-14
1e-14
1e-14
1e-14
1e-14
1e-14
1.00037e-14
1e-14
1e-14
1e-14
1e-14
1e-14
1e-14
1e-14
1e-14
1e-14
1e-14
1e-14
1e-14
1e-14
1e-14
1e-14
1.00001e-14
1e-14
1e-14
1e-14
1e-14
1e-14
1e-14
1e-14
1e-14
1e-14
1e-14
1.01231e-14
1.00001e-14
1e-14
1e-14
1e-14
1e-14
1e-14
1e-14
1e-14
1e-14
1e-14
1.00614e-14
1.00001e-14
1e-14
1e-14
1e-14
1e-14
1e-14
1e-14
1.00037e-14
1e-14
1.0123e-14
1e-14
1e-14
1e-14
1.00001e-14
1.00002e-14
1.00069e-14
1e-14
1e-14
1e-14
1.0006e-14
1.00093e-14
1e-14
1.00006e-14
1.00031e-14
1e-14
1e-14
1e-14
1e-14
1e-14
1.08145e-14
1e-14
1e-14
1e-14
1e-14
1e-14
1e-14
1e-14
1e-14
1e-14
1e-14
1e-14
1e-14
1e-14
1e-14
1e-14
1.00007e-14
1e-14
1e-14
1e-14
1e-14
1e-14
1e-14
1e-14
1e-14
1e-14
1e-14
1e-14
1e-14
1e-14
1e-14
1.0001e-14
1e-14
1e-14
1e-14
1e-14
1e-14
1e-14
1e-14
1e-14
1e-14
1e-14
1e-14
1e-14
1e-14
1e-14
1e-14
1.0007e-14
1e-14
1e-14
1e-14
1e-14
1e-14
1e-14
1e-14
1e-14
1e-14
1e-14
1e-14
1e-14
1e-14
1e-14
1.00009e-14
1e-14
1e-14
1e-14
1e-14
1e-14
1e-14
1e-14
1e-14
1e-14
1e-14
1e-14
1e-14
1e-14
1e-14
1.00002e-14
1e-14
1e-14
1e-14
1e-14
1e-14
1e-14
1e-14
1e-14
1e-14
1e-14
1e-14
1e-14
1.00006e-14
1e-14
1e-14
1e-14
1e-14
1e-14
1e-14
1e-14
1e-14
1e-14
1e-14
1e-14
1e-14
1e-14
1e-14
1.00002e-14
1e-14
1e-14
1e-14
1e-14
1e-14
1e-14
1e-14
1e-14
1e-14
1e-14
1e-14
1.00004e-14
1e-14
1e-14
1e-14
1e-14
1e-14
1e-14
1e-14
1e-14
1e-14
1e-14
1e-14
1e-14
1e-14
1e-14
1e-14
1e-14
1e-14
1e-14
1e-14
1e-14
1e-14
1e-14
1e-14
1e-14
1e-14
1.00006e-14
1e-14
1e-14
1e-14
1e-14
1e-14
1e-14
1e-14
1e-14
1e-14
1e-14
1.00003e-14
1e-14
1e-14
1e-14
1e-14
1e-14
1e-14
1e-14
1.00004e-14
1e-14
1.00006e-14
1e-14
1e-14
1e-14
1e-14
1e-14
1.00006e-14
1e-14
1e-14
1e-14
1.00007e-14
1.0001e-14
1e-14
1e-14
1e-14
1e-14
1.00002e-14
1e-14
1e-14
1.0007e-14
1.00009e-14
1.00002e-14
1e-14
1e-14
1e-14
1e-14
1e-14
1e-14
1e-14
1e-14
1e-14
1e-14
1e-14
1e-14
1e-14
1.00001e-14
1e-14
1e-14
1e-14
1e-14
1e-14
1e-14
1e-14
1e-14
1e-14
1e-14
1e-14
1e-14
1e-14
1e-14
1.00001e-14
1e-14
1e-14
1e-14
1e-14
1e-14
1e-14
1e-14
1e-14
1e-14
1e-14
1e-14
1e-14
1e-14
1e-14
1e-14
1e-14
1e-14
1e-14
1e-14
1e-14
1e-14
1e-14
1e-14
1e-14
1e-14
1e-14
1e-14
1e-14
1e-14
1e-14
1e-14
1e-14
1e-14
1e-14
1e-14
1e-14
1e-14
1e-14
1e-14
1e-14
1e-14
1e-14
1e-14
1e-14
1e-14
1e-14
1e-14
1e-14
1e-14
1e-14
1e-14
1e-14
1e-14
1e-14
1e-14
1e-14
1e-14
1e-14
1e-14
1.00001e-14
1e-14
1e-14
1e-14
1e-14
1e-14
1e-14
1e-14
1e-14
1e-14
1e-14
1e-14
1e-14
1e-14
1e-14
1e-14
1e-14
1e-14
1e-14
1e-14
1e-14
1e-14
1e-14
1e-14
1e-14
1e-14
1e-14
1.00001e-14
1e-14
1e-14
1e-14
1e-14
1e-14
1e-14
1e-14
1e-14
1e-14
1e-14
1e-14
1.00001e-14
1e-14
1e-14
1e-14
1e-14
1e-14
1e-14
1e-14
1e-14
1e-14
1e-14
1e-14
1e-14
1e-14
1e-14
1e-14
1e-14
1e-14
1e-14
1e-14
1e-14
1e-14
1e-14
1e-14
1e-14
1e-14
1e-14
1e-14
1e-14
1e-14
1e-14
1e-14
1e-14
1.00001e-14
1e-14
1e-14
1e-14
1e-14
1e-14
1e-14
1e-14
1e-14
1.00001e-14
1e-14
1.00001e-14
1.00001e-14
1e-14
1e-14
1e-14
1.00001e-14
1e-14
1e-14
1e-14
1e-14
1e-14
1e-14
1e-14
1e-14
1e-14
1e-14
1e-14
1e-14
1e-14
1e-14
1e-14
1e-14
1e-14
1e-14
1e-14
1e-14
1e-14
1e-14
1.00001e-14
1.00001e-14
1e-14
1e-14
1e-14
1e-14
1e-14
1e-14
1e-14
1e-14
1e-14
1e-14
1e-14
1e-14
1e-14
1.00001e-14
1.00001e-14
1e-14
1e-14
1e-14
1e-14
1e-14
1e-14
1e-14
1e-14
1e-14
1e-14
1e-14
1e-14
1e-14
1e-14
1e-14
1e-14
1e-14
1e-14
1e-14
1e-14
1e-14
1e-14
1e-14
1e-14
1e-14
1e-14
1e-14
1e-14
1e-14
1e-14
1e-14
1e-14
1e-14
1e-14
1e-14
1e-14
1e-14
1e-14
1e-14
1e-14
1e-14
1e-14
1e-14
1e-14
1e-14
1e-14
1e-14
1e-14
1e-14
1e-14
1e-14
1e-14
1e-14
1e-14
1e-14
1.00001e-14
1e-14
1e-14
1e-14
1e-14
1e-14
1e-14
1e-14
1e-14
1e-14
1e-14
1e-14
1e-14
1e-14
1e-14
1e-14
1e-14
1e-14
1e-14
1e-14
1e-14
1e-14
1e-14
1e-14
1e-14
1e-14
1e-14
1e-14
1e-14
1e-14
1e-14
1e-14
1e-14
1e-14
1e-14
1e-14
1e-14
1e-14
1e-14
1e-14
1e-14
1e-14
1e-14
1e-14
1e-14
1e-14
1e-14
1e-14
1e-14
1e-14
1e-14
1e-14
1e-14
1e-14
1e-14
1e-14
1e-14
1e-14
1e-14
1e-14
1e-14
1e-14
1e-14
1e-14
1e-14
1e-14
1e-14
1e-14
1e-14
1e-14
1e-14
1e-14
1e-14
1e-14
1e-14
1e-14
1e-14
1e-14
1e-14
1e-14
1e-14
1e-14
1e-14
1e-14
1e-14
1e-14
1e-14
1e-14
1.00001e-14
1e-14
1e-14
1e-14
1e-14
1e-14
1e-14
1.00001e-14
1.00001e-14
1.00001e-14
1e-14
1e-14
1e-14
1e-14
1e-14
1e-14
1e-14
1e-14
1e-14
1e-14
1e-14
1e-14
1.00001e-14
1.00001e-14
1e-14
1e-14
1e-14
1e-14
1e-14
1e-14
1e-14
1e-14
1e-14
1e-14
1e-14
1e-14
1e-14
1.00001e-14
1e-14
1e-14
1e-14
1e-14
1e-14
1e-14
1e-14
1e-14
1e-14
1e-14
1e-14
1e-14
1e-14
1e-14
1e-14
1e-14
1e-14
1e-14
1e-14
1e-14
1e-14
1e-14
1e-14
1e-14
1e-14
1e-14
1e-14
1e-14
1e-14
1e-14
1e-14
1e-14
1e-14
1e-14
1e-14
1e-14
1e-14
1e-14
1e-14
1e-14
1e-14
1e-14
1e-14
1e-14
1e-14
1e-14
1e-14
1e-14
1e-14
1e-14
1e-14
1e-14
1e-14
1e-14
1e-14
1e-14
1e-14
1e-14
1e-14
1e-14
1e-14
1e-14
1e-14
1e-14
1e-14
1e-14
1e-14
1e-14
1e-14
1e-14
1e-14
1e-14
1e-14
1e-14
1e-14
1e-14
1e-14
1e-14
1e-14
1e-14
1e-14
1e-14
1e-14
1e-14
1.00001e-14
1e-14
1e-14
1e-14
1e-14
1e-14
1e-14
1e-14
1e-14
1e-14
1e-14
1e-14
1e-14
1e-14
1e-14
1e-14
1e-14
1e-14
1e-14
1e-14
1e-14
1e-14
1e-14
1e-14
1e-14
1.00001e-14
1e-14
1e-14
1e-14
1e-14
1e-14
1e-14
1e-14
1e-14
1e-14
1e-14
1e-14
1e-14
1e-14
1e-14
1e-14
1e-14
1e-14
1e-14
1e-14
1e-14
1.00001e-14
1e-14
1e-14
1e-14
1e-14
1e-14
1e-14
1e-14
1.00001e-14
1e-14
1e-14
1e-14
1e-14
1e-14
1e-14
1e-14
1e-14
1e-14
1e-14
1e-14
1e-14
1e-14
1.00001e-14
1.00001e-14
1e-14
1e-14
1e-14
1e-14
1e-14
1e-14
1e-14
1.00001e-14
1.00001e-14
1e-14
1e-14
1e-14
1e-14
1.00001e-14
1.00001e-14
1e-14
1e-14
1e-14
1e-14
1e-14
1e-14
1e-14
1e-14
1e-14
1e-14
1e-14
1e-14
1e-14
1e-14
1e-14
1e-14
1e-14
1e-14
1e-14
1e-14
1e-14
1.00001e-14
1e-14
1e-14
1e-14
1e-14
1e-14
1e-14
1e-14
1e-14
1e-14
1e-14
1e-14
1e-14
1e-14
1e-14
1e-14
1e-14
1e-14
1e-14
1e-14
1e-14
1e-14
1e-14
1e-14
1e-14
1e-14
1e-14
1e-14
1e-14
1e-14
1e-14
1e-14
1e-14
1e-14
1e-14
1e-14
1e-14
1e-14
1e-14
1e-14
1e-14
1e-14
1e-14
1e-14
1e-14
1e-14
1e-14
1e-14
1e-14
1e-14
1.00001e-14
1e-14
1e-14
1e-14
1e-14
1e-14
1e-14
1e-14
1e-14
1e-14
1e-14
1e-14
1e-14
1e-14
1e-14
1e-14
1e-14
1e-14
1e-14
1e-14
1e-14
1e-14
1e-14
1e-14
1e-14
1e-14
1e-14
1e-14
1e-14
1e-14
1.00001e-14
1e-14
1e-14
1e-14
1e-14
1e-14
1e-14
1e-14
1e-14
1.00001e-14
1e-14
1.00001e-14
1e-14
1e-14
1e-14
1e-14
1e-14
1e-14
1e-14
1e-14
1e-14
1e-14
1.00001e-14
1.00001e-14
1e-14
1e-14
1e-14
1e-14
1e-14
1e-14
1e-14
1e-14
1e-14
1e-14
1e-14
1e-14
1e-14
1e-14
1e-14
1e-14
1e-14
1e-14
1.00001e-14
1e-14
1e-14
1e-14
1e-14
1e-14
1e-14
1e-14
1e-14
1e-14
1e-14
1e-14
1e-14
1e-14
1e-14
1e-14
1.00001e-14
1e-14
1e-14
1e-14
1e-14
1e-14
1e-14
1e-14
1.00001e-14
1.00001e-14
1e-14
1e-14
1e-14
1e-14
1e-14
1e-14
1.00001e-14
1.00001e-14
1e-14
1e-14
1e-14
1.00001e-14
1.00001e-14
1e-14
1e-14
1e-14
1e-14
1e-14
1e-14
1e-14
1e-14
1e-14
1e-14
1e-14
1e-14
1e-14
1e-14
1.00001e-14
1e-14
1e-14
1e-14
1e-14
1e-14
1e-14
1e-14
1e-14
1e-14
1e-14
1e-14
1e-14
1e-14
1e-14
1e-14
1e-14
1e-14
1e-14
1e-14
1e-14
1e-14
1e-14
1e-14
1e-14
1e-14
1e-14
1e-14
1e-14
1e-14
1e-14
1e-14
1e-14
1e-14
1e-14
1e-14
1e-14
1e-14
1e-14
1e-14
1e-14
1e-14
1e-14
1e-14
1e-14
1e-14
1e-14
1e-14
1e-14
1e-14
1e-14
1e-14
1e-14
1e-14
1e-14
1e-14
1e-14
1e-14
1.00001e-14
1e-14
1e-14
1e-14
1e-14
1e-14
1e-14
1e-14
1e-14
1e-14
1e-14
1e-14
1e-14
1.00001e-14
1e-14
1e-14
1e-14
1e-14
1e-14
1e-14
1e-14
1e-14
1e-14
1e-14
1e-14
1e-14
1e-14
1.00001e-14
1e-14
1e-14
1e-14
1e-14
1e-14
1e-14
1e-14
1e-14
1e-14
1e-14
1e-14
1e-14
1e-14
1.00001e-14
1e-14
1e-14
1e-14
1e-14
1e-14
1e-14
1e-14
1e-14
1e-14
1e-14
1.00002e-14
1.00001e-14
1e-14
1e-14
1e-14
1e-14
1e-14
1e-14
1e-14
1e-14
1e-14
1.00001e-14
1e-14
1e-14
1e-14
1e-14
1e-14
1e-14
1e-14
1e-14
1e-14
1.00002e-14
1e-14
1e-14
1e-14
1e-14
1e-14
1e-14
1.00001e-14
1.00001e-14
1e-14
1e-14
1e-14
1e-14
1e-14
1e-14
1.00001e-14
1e-14
1.00001e-14
1e-14
1e-14
1e-14
1e-14
1e-14
1e-14
1e-14
1e-14
1e-14
1e-14
1e-14
1e-14
1e-14
1e-14
1e-14
1e-14
1e-14
1e-14
1e-14
1e-14
1e-14
1e-14
1e-14
1e-14
1e-14
1e-14
1e-14
1e-14
1e-14
1e-14
1e-14
1e-14
1e-14
1e-14
1e-14
1e-14
1e-14
1e-14
1e-14
1e-14
1e-14
1e-14
1e-14
1e-14
1e-14
1e-14
1e-14
1e-14
1e-14
1e-14
1e-14
1e-14
1e-14
1e-14
1e-14
1e-14
1e-14
1e-14
1e-14
1e-14
1e-14
1e-14
1e-14
1e-14
1e-14
1e-14
1e-14
1e-14
1e-14
1e-14
1e-14
1e-14
1e-14
1e-14
1e-14
1e-14
1e-14
1e-14
1e-14
1e-14
1e-14
1e-14
1e-14
1e-14
1e-14
1e-14
1e-14
1e-14
1e-14
1e-14
1e-14
1e-14
1.00002e-14
1e-14
1e-14
1e-14
1e-14
1e-14
1e-14
1e-14
1e-14
1e-14
1e-14
1e-14
1e-14
1e-14
1e-14
1e-14
1e-14
1e-14
1e-14
1e-14
1e-14
1e-14
1e-14
1e-14
1e-14
1e-14
1e-14
1.00001e-14
1e-14
1e-14
1e-14
1e-14
1e-14
1e-14
1e-14
1e-14
1e-14
1e-14
1.00001e-14
1.00001e-14
1e-14
1e-14
1e-14
1e-14
1e-14
1e-14
1e-14
1e-14
1e-14
1e-14
1e-14
1e-14
1e-14
1e-14
1e-14
1e-14
1e-14
1e-14
1e-14
1e-14
1e-14
1.00001e-14
1e-14
1e-14
1e-14
1e-14
1e-14
1e-14
1e-14
1e-14
1e-14
1e-14
1.00001e-14
1e-14
1e-14
1e-14
1e-14
1e-14
1e-14
1e-14
1e-14
1.00001e-14
1e-14
1e-14
1e-14
1e-14
1e-14
1e-14
1.00002e-14
1e-14
1e-14
1e-14
1e-14
1e-14
1e-14
1.13018e-14
2.29487e-13
1.14957e-14
2.44575e-13
1.1857e-14
2.60158e-13
1.33269e-14
1.95723e-14
1.03979e-14
1.00431e-14
2.84853e-14
1.00993e-14
1.35628e-14
1.00235e-14
1.98014e-14
3.28922e-14
5.54912e-13
1.10602e-14
1.58009e-13
1.67539e-14
1.00089e-14
1.06004e-14
1.0085e-14
1.41301e-14
1.07612e-14
2.1265e-13
1.04442e-14
3.97611e-14
1.89235e-14
4.67705e-13
1.0031e-14
1.2695e-14
1.03617e-14
2.02805e-13
1e-14
1.41149e-14
4.78999e-13
5.27473e-13
1.28954e-14
5.24968e-13
5.23006e-13
1.00309e-14
1.03612e-14
1.26946e-14
2.02812e-13
1.41072e-14
5.26471e-13
4.78979e-13
1.00089e-14
1.0085e-14
1.06003e-14
1.41295e-14
1.0444e-14
1.89147e-14
3.976e-14
1e-14
1.00993e-14
1.00235e-14
1.35626e-14
1.98002e-14
1.10601e-14
1.67535e-14
1.58008e-13
1.07612e-14
2.12646e-13
4.67706e-13
1.13015e-14
1.14931e-14
2.29586e-13
2.44559e-13
1.18559e-14
1.33279e-14
2.60146e-13
1.9574e-14
1.03979e-14
1.00431e-14
2.84857e-14
3.28913e-14
5.54912e-13
2.00016e-13
1.0739e-14
2.10918e-13
1.11087e-14
2.27833e-13
1.12827e-14
2.42821e-13
2.25391e-13
1e-14
1.15829e-14
2.58382e-13
1.27505e-14
1e-14
1.78726e-14
1.03123e-14
1e-14
1.00455e-14
2.70281e-14
1.13541e-14
1.00183e-14
1e-14
1.0063e-14
1.28641e-14
1.00209e-14
1.91419e-14
5.27086e-13
3.14128e-14
5.53249e-13
1.38926e-13
1.0017e-14
1.09025e-14
1.57333e-13
1.56839e-14
1.0186e-14
1e-14
1.10461e-14
1.00063e-14
1.04986e-14
1.0064e-14
1.3434e-14
1.35505e-13
1.07435e-14
2.11254e-13
1e-14
1e-14
1.03704e-14
3.80363e-14
1.69297e-14
4.66182e-13
1.08362e-14
1.0348e-14
1.76225e-13
1.00221e-14
1.24401e-14
1.03025e-14
2.01199e-13
1e-14
4.2835e-13
3.62118e-13
1.28022e-14
4.76608e-13
5.25946e-13
3.70798e-13
3.69568e-13
1.18192e-14
5.23206e-13
5.21202e-13
1.03478e-14
1.0836e-14
1.76226e-13
1.00221e-14
1.03022e-14
1.24396e-14
2.01204e-13
3.61698e-13
4.28363e-13
1.27947e-14
5.25004e-13
4.76593e-13
1e-14
1.01859e-14
1.10461e-14
1.00063e-14
1.00639e-14
1.04985e-14
1.34336e-14
1e-14
1e-14
1.03704e-14
1.69251e-14
3.80369e-14
1e-14
1.00183e-14
1.13542e-14
1e-14
1.0063e-14
1.00209e-14
1.28639e-14
1.91404e-14
1.0017e-14
1.38926e-13
1.09024e-14
1.56835e-14
1.57332e-13
1.35508e-13
1.07434e-14
2.11252e-13
4.66183e-13
1.07381e-14
2.00114e-13
2.10935e-13
1.11086e-14
1.12808e-14
2.27931e-13
2.4281e-13
1e-14
2.25406e-13
1.1582e-14
1.27515e-14
2.58374e-13
1e-14
1.78737e-14
1.03123e-14
1e-14
1.00455e-14
2.70285e-14
5.27084e-13
3.14126e-14
5.53251e-13
2.00166e-13
1.07461e-14
2.11131e-13
1.10916e-14
2.27764e-13
1.12659e-14
2.42739e-13
2.2578e-13
1e-14
1.15693e-14
2.58397e-13
1.26058e-14
1e-14
1.74799e-14
1.03051e-14
1e-14
1.00415e-14
2.69641e-14
1.14113e-14
1.0019e-14
1e-14
1.0057e-14
1.2772e-14
1.00205e-14
1.89704e-14
5.26109e-13
3.14375e-14
5.53128e-13
1.39213e-13
1.0064e-14
1.08922e-14
1.57367e-13
1.55239e-14
1.01763e-14
1e-14
1.12104e-14
1.00058e-14
1.04988e-14
1.00577e-14
1.33495e-14
1.36821e-13
1.07861e-14
2.10999e-13
1e-14
1e-14
1.037e-14
3.84844e-14
1.65239e-14
4.66458e-13
1.08375e-14
1.03399e-14
1.76455e-13
1.00219e-14
1.24556e-14
1.02999e-14
2.0138e-13
1e-14
4.2871e-13
3.65227e-13
1.24126e-14
4.76941e-13
5.25573e-13
3.73991e-13
3.72745e-13
1.15304e-14
5.22865e-13
5.20869e-13
1.03398e-14
1.08374e-14
1.76455e-13
1.00219e-14
1.02996e-14
1.24552e-14
2.01384e-13
3.64816e-13
4.28716e-13
1.24061e-14
5.24638e-13
4.76927e-13
1e-14
1.01763e-14
1.12103e-14
1.00058e-14
1.00576e-14
1.04987e-14
1.33491e-14
1e-14
1e-14
1.037e-14
1.65218e-14
3.84849e-14
1e-14
1.0019e-14
1.14113e-14
1e-14
1.0057e-14
1.00205e-14
1.27718e-14
1.89694e-14
1.0064e-14
1.39214e-13
1.08921e-14
1.55235e-14
1.57366e-13
1.36824e-13
1.0786e-14
2.10997e-13
4.66462e-13
1.07454e-14
2.00263e-13
2.1115e-13
1.10915e-14
1.12644e-14
2.27861e-13
2.42733e-13
1e-14
2.25794e-13
1.15687e-14
1.26069e-14
2.58393e-13
1e-14
1.74808e-14
1.03051e-14
1e-14
1.00415e-14
2.69645e-14
5.26108e-13
3.14374e-14
5.53127e-13
2.00255e-13
1.07539e-14
2.11208e-13
1.10918e-14
2.27762e-13
1.12672e-14
2.42749e-13
2.25893e-13
1e-14
1.15723e-14
2.58432e-13
1.25876e-14
1e-14
1.74497e-14
1.03042e-14
1e-14
1.00408e-14
2.69435e-14
1.14358e-14
1.00192e-14
1e-14
1.00561e-14
1.27612e-14
1.00204e-14
1.89297e-14
5.25677e-13
3.14661e-14
5.53131e-13
1.39257e-13
1.00679e-14
1.0893e-14
1.57421e-13
1.54982e-14
1.01767e-14
1e-14
1.12421e-14
1.00054e-14
1.04996e-14
1.00561e-14
1.33341e-14
1.36782e-13
1.07971e-14
2.10897e-13
1e-14
1e-14
1.03684e-14
3.87391e-14
1.64631e-14
4.66538e-13
1.08422e-14
1.03406e-14
1.76512e-13
1.00214e-14
1.24602e-14
1.02992e-14
2.01439e-13
1e-14
4.28618e-13
3.65228e-13
1.23434e-14
4.77002e-13
5.25567e-13
3.7404e-13
3.72807e-13
1.14789e-14
5.22823e-13
5.20823e-13
1.03405e-14
1.08421e-14
1.7651e-13
1.00213e-14
1.0299e-14
1.24598e-14
2.01441e-13
3.64824e-13
4.28625e-13
1.2337e-14
5.24624e-13
4.76988e-13
1e-14
1.01767e-14
1.12419e-14
1.00053e-14
1.00561e-14
1.04996e-14
1.33338e-14
1e-14
1e-14
1.03684e-14
1.64612e-14
3.874e-14
1e-14
1.00192e-14
1.14358e-14
1e-14
1.00561e-14
1.00204e-14
1.2761e-14
1.89286e-14
1.00679e-14
1.39257e-13
1.0893e-14
1.54979e-14
1.5742e-13
1.36785e-13
1.07971e-14
2.10896e-13
4.66537e-13
1.07535e-14
2.00351e-13
2.11231e-13
1.10921e-14
1.12671e-14
2.2786e-13
2.42752e-13
1e-14
2.25909e-13
1.15725e-14
1.25892e-14
2.58435e-13
1e-14
1.74503e-14
1.03042e-14
1e-14
1.00408e-14
2.69437e-14
5.25679e-13
3.14658e-14
5.53131e-13
2.00227e-13
1.07556e-14
2.11187e-13
1.10965e-14
2.27779e-13
1.12737e-14
2.42786e-13
2.25876e-13
1e-14
1.1584e-14
2.58466e-13
1.2611e-14
1e-14
1.74919e-14
1.03039e-14
1e-14
1.00424e-14
2.69133e-14
1.14374e-14
1.00191e-14
1e-14
1.00557e-14
1.27609e-14
1.00204e-14
1.8871e-14
5.25566e-13
3.14773e-14
5.53131e-13
1.39289e-13
1.00611e-14
1.08939e-14
1.57506e-13
1.54899e-14
1.01768e-14
1e-14
1.12335e-14
1.00051e-14
1.04995e-14
1.00548e-14
1.33171e-14
1.36665e-13
1.08071e-14
2.10797e-13
1e-14
1e-14
1.03647e-14
3.89667e-14
1.64292e-14
4.66642e-13
1.0843e-14
1.034e-14
1.76542e-13
1.0021e-14
1.24595e-14
1.0298e-14
2.01444e-13
1e-14
4.28611e-13
3.65212e-13
1.23399e-14
4.76986e-13
5.25576e-13
3.73998e-13
3.72757e-13
1.14757e-14
5.22811e-13
5.20811e-13
1.03399e-14
1.0843e-14
1.76537e-13
1.00209e-14
1.02978e-14
1.24592e-14
2.01445e-13
3.64799e-13
4.28617e-13
1.23335e-14
5.24638e-13
4.76972e-13
1e-14
1.01768e-14
1.12334e-14
1.00051e-14
1.00548e-14
1.04995e-14
1.33168e-14
1e-14
1e-14
1.03647e-14
1.6427e-14
3.89673e-14
1e-14
1.00191e-14
1.14374e-14
1e-14
1.00556e-14
1.00204e-14
1.27607e-14
1.88694e-14
1.00611e-14
1.39289e-13
1.08938e-14
1.54895e-14
1.57505e-13
1.36667e-13
1.08071e-14
2.10796e-13
4.66642e-13
1.07558e-14
2.00303e-13
2.11211e-13
1.10957e-14
1.12747e-14
2.27792e-13
2.42799e-13
1e-14
2.25894e-13
1.15849e-14
1.26127e-14
2.58477e-13
1e-14
1.74921e-14
1.03039e-14
1e-14
1.00424e-14
2.69137e-14
5.25565e-13
3.14776e-14
5.53134e-13
2.00105e-13
1.0758e-14
2.11072e-13
1.11074e-14
2.27817e-13
1.12905e-14
2.42886e-13
2.257e-13
1e-14
1.16213e-14
2.58516e-13
1.2716e-14
1e-14
1.75842e-14
1.03105e-14
1e-14
1.00502e-14
2.69346e-14
1.14443e-14
1.00191e-14
1e-14
1.00551e-14
1.27855e-14
1.00206e-14
1.87609e-14
5.25413e-13
3.16465e-14
5.53016e-13
1.3933e-13
1.00496e-14
1.08961e-14
1.57719e-13
1.55054e-14
1.01775e-14
1e-14
1.12154e-14
1.00048e-14
1.05009e-14
1.00537e-14
1.33158e-14
1.36458e-13
1.08228e-14
2.10727e-13
1e-14
1e-14
1.03604e-14
3.93074e-14
1.64366e-14
4.6664e-13
1.08421e-14
1.03394e-14
1.76575e-13
1.00207e-14
1.24622e-14
1.02978e-14
2.01444e-13
1e-14
4.28595e-13
3.6516e-13
1.23869e-14
4.76956e-13
5.2561e-13
3.73948e-13
3.7271e-13
1.14978e-14
5.22816e-13
5.20823e-13
1.03393e-14
1.08422e-14
1.76571e-13
1.00207e-14
1.02976e-14
1.24619e-14
2.01445e-13
3.64755e-13
4.286e-13
1.23808e-14
5.24676e-13
4.76943e-13
1e-14
1.01775e-14
1.12153e-14
1.00048e-14
1.00537e-14
1.05008e-14
1.33156e-14
1e-14
1e-14
1.03603e-14
1.6435e-14
3.93079e-14
1e-14
1.00191e-14
1.14443e-14
1e-14
1.0055e-14
1.00206e-14
1.27853e-14
1.87604e-14
1.00496e-14
1.39331e-13
1.08961e-14
1.55052e-14
1.57717e-13
1.36459e-13
1.08227e-14
2.10726e-13
4.66642e-13
1.07583e-14
2.00115e-13
2.1109e-13
1.11071e-14
1.12912e-14
2.27808e-13
2.42897e-13
1e-14
2.25716e-13
1.16216e-14
1.27169e-14
2.58527e-13
1e-14
1.75838e-14
1.03105e-14
1e-14
1.00502e-14
2.6935e-14
5.25416e-13
3.16469e-14
5.53011e-13
1.99664e-13
1.07564e-14
2.10688e-13
1.11487e-14
2.28052e-13
1.13564e-14
2.43348e-13
2.25103e-13
1e-14
1.17339e-14
2.58866e-13
1.30624e-14
1e-14
1.76275e-14
1.03626e-14
1e-14
1.00813e-14
2.75523e-14
1.14848e-14
1.00188e-14
1e-14
1.0054e-14
1.29203e-14
1.00231e-14
1.90075e-14
5.24729e-13
3.22841e-14
5.53465e-13
1.39329e-13
1.00317e-14
1.09137e-14
1.58438e-13
1.55875e-14
1.01788e-14
1e-14
1.12023e-14
1.00046e-14
1.05088e-14
1.00538e-14
1.34032e-14
1.35796e-13
1.08489e-14
2.10697e-13
1e-14
1e-14
1.03737e-14
4.06941e-14
1.70662e-14
4.67321e-13
1.0834e-14
1.03377e-14
1.76614e-13
1.00195e-14
1.25319e-14
1.03078e-14
2.02115e-13
1e-14
4.28423e-13
3.64962e-13
1.26225e-14
4.77221e-13
5.25728e-13
3.7377e-13
3.72536e-13
1.15829e-14
5.2297e-13
5.21005e-13
1.03376e-14
1.0834e-14
1.76611e-13
1.00195e-14
1.03076e-14
1.25317e-14
2.02117e-13
3.64558e-13
4.28429e-13
1.26167e-14
5.24803e-13
4.77207e-13
1e-14
1.01788e-14
1.12023e-14
1.00046e-14
1.00538e-14
1.05088e-14
1.3403e-14
1e-14
1e-14
1.03736e-14
1.70655e-14
4.06947e-14
1e-14
1.00188e-14
1.14848e-14
1e-14
1.0054e-14
1.00231e-14
1.29201e-14
1.90059e-14
1.00317e-14
1.39328e-13
1.09136e-14
1.55872e-14
1.58437e-13
1.35797e-13
1.08489e-14
2.10696e-13
4.67324e-13
1.07565e-14
1.9966e-13
2.10697e-13
1.11484e-14
1.13567e-14
2.28046e-13
2.43355e-13
1e-14
2.25112e-13
1.17341e-14
1.30629e-14
2.58877e-13
1e-14
1.76271e-14
1.03625e-14
1e-14
1.00813e-14
2.75533e-14
5.24728e-13
3.22856e-14
5.53466e-13
1.96749e-13
1.05271e-14
2.07881e-13
1.16317e-14
2.7851e-13
1.19436e-14
2.91808e-13
2.22184e-13
1e-14
1.20111e-14
3.07848e-13
1.37295e-14
1e-14
2.10032e-14
1.18381e-14
1e-14
1.05544e-14
2.41969e-14
1.14454e-14
1.00149e-14
1e-14
1.01174e-14
1.53311e-14
1.00216e-14
4.25571e-14
5.24948e-13
5.71136e-14
5.35432e-13
1.38894e-13
1.00137e-14
1.07069e-14
1.839e-13
1.57352e-14
1.01948e-14
1e-14
1.13578e-14
1.00043e-14
1.05255e-14
1.00631e-14
1.38968e-14
1.32097e-13
1.08839e-14
2.03807e-13
1e-14
1e-14
1.01823e-14
4.76116e-14
1.3262e-14
4.5902e-13
1.10259e-14
1.03489e-14
1.76281e-13
1e-14
1.30215e-14
1.00905e-14
2.28964e-13
1e-14
4.27499e-13
3.64284e-13
1.16768e-14
4.73494e-13
4.81275e-13
3.73517e-13