/*--------------------------------*- C++ -*----------------------------------*\
| =========                 |                                                 |
| \\      /  F ield         | OpenFOAM: The Open Source CFD Toolbox           |
|  \\    /   O peration     | Version:  2.1.1                                 |
|   \\  /    A nd           | Web:      www.OpenFOAM.org                      |
|    \\/     M anipulation  |                                                 |
\*---------------------------------------------------------------------------*/
FoamFile
{
    version     2.0;
    format      ascii;
    class       volVectorField;
    location    "0.0015";
    object      U;
}
// * * * * * * * * * * * * * * * * * * * * * * * * * * * * * * * * * * * * * //

dimensions      [0 1 -1 0 0 0 0];

internalField   nonuniform List<vector> 
10314
(
(-2.21303e-05 -2.2101e-05 0.115927)
(-6.65558e-05 -2.17316e-05 0.115935)
(-0.00011767 -2.19842e-05 0.115963)
(-0.000169633 -2.11422e-05 0.116026)
(-0.0002421 -1.99421e-05 0.116123)
(-0.000311579 -1.79104e-05 0.116274)
(-0.000421503 -1.5104e-05 0.116457)
(-0.000504182 -9.28797e-06 0.116748)
(-0.000665855 -1.12389e-06 0.117038)
(-0.000722704 5.58517e-06 0.117531)
(-0.000961492 1.54513e-05 0.117761)
(-0.000957445 -1.45698e-05 0.119209)
(-0.00112466 0.000103774 0.121946)
(-0.000327238 -0.000114772 0.0998194)
(0.00367358 0.000650664 0.0250618)
(-2.17495e-05 -6.65577e-05 0.115935)
(-6.52245e-05 -6.52204e-05 0.115949)
(-0.000116129 -6.74612e-05 0.115983)
(-0.00016807 -6.50585e-05 0.116046)
(-0.000239144 -7.13816e-05 0.116144)
(-0.000306462 -6.36429e-05 0.116293)
(-0.000413088 -8.26447e-05 0.116477)
(-0.000490632 -5.72125e-05 0.116757)
(-0.000650226 -0.000122256 0.117042)
(-0.000705225 -3.32422e-05 0.117506)
(-0.000992181 -0.000246946 0.117946)
(-0.000941895 6.5669e-05 0.120548)
(-0.00108935 -0.000296738 0.119887)
(-0.000148148 0.000679387 0.0798693)
(0.00346943 0.00211489 0.0255769)
(-2.20431e-05 -0.000117712 0.115964)
(-6.74598e-05 -0.000116165 0.115984)
(-0.000117525 -0.000117504 0.116027)
(-0.000173569 -0.000114023 0.116094)
(-0.000240717 -0.00011621 0.116201)
(-0.000322915 -0.000107766 0.116351)
(-0.000415084 -0.00011643 0.116557)
(-0.000544017 -8.85184e-05 0.116834)
(-0.000643337 -0.000124597 0.117194)
(-0.000852572 -2.37498e-05 0.11765)
(-0.000884043 -0.000172313 0.118658)
(-0.00112692 0.000168114 0.119678)
(0.000150075 -4.0848e-05 0.0960733)
(-0.00162934 -0.00174538 0.033676)
(0.00651625 0.0062844 0.0182047)
(-2.12191e-05 -0.00016973 0.116027)
(-6.50076e-05 -0.000168181 0.116048)
(-0.000113996 -0.000173693 0.116095)
(-0.00016679 -0.000166983 0.116161)
(-0.00023291 -0.000171743 0.11627)
(-0.000306719 -0.000156516 0.116411)
(-0.000393847 -0.000161821 0.116613)
(-0.000499482 -0.000125479 0.116863)
(-0.000588209 -0.000128708 0.11719)
(-0.00074591 -5.10801e-05 0.117551)
(-0.000787319 -1.42158e-05 0.118525)
(-0.00102029 -1.14544e-05 0.120482)
(0.000175182 0.000242096 0.0971265)
(0.00209162 0.00133833 0.0270995)
(5.32548e-05 -0.000158483 0.00415667)
(-2.01295e-05 -0.000242155 0.116123)
(-7.13968e-05 -0.00023933 0.116145)
(-0.000116315 -0.000240832 0.116201)
(-0.000171633 -0.000233193 0.11627)
(-0.000230265 -0.000230466 0.116389)
(-0.000313005 -0.000224159 0.11653)
(-0.000383911 -0.00021192 0.116746)
(-0.000511273 -0.000205159 0.116986)
(-0.000572221 -0.000172003 0.117329)
(-0.000729473 -0.000144656 0.117592)
(-0.000791673 -0.000110817 0.118823)
(-0.000980634 -7.699e-05 0.121562)
(-5.40781e-05 8.75717e-05 0.0985264)
(0.00296351 -0.00182001 0.0303623)
(0.00025263 -0.00065553 0.00586403)
(-1.81994e-05 -0.000311752 0.116275)
(-6.3655e-05 -0.00030667 0.116293)
(-0.000107827 -0.000323245 0.116351)
(-0.000156417 -0.000307132 0.116411)
(-0.000223879 -0.000313507 0.11653)
(-0.000288188 -0.000288982 0.116665)
(-0.00037485 -0.000287012 0.116877)
(-0.000460462 -0.000239546 0.117099)
(-0.000529945 -0.000224703 0.117356)
(-0.000673169 -0.000151496 0.117704)
(-0.000691471 -2.58846e-05 0.119849)
(-0.000920421 -0.000216547 0.119525)
(-0.000105316 0.000665683 0.0814785)
(0.00330623 0.00104822 0.0276063)
(-1.55792e-05 -0.000421473 0.116458)
(-8.28154e-05 -0.000413612 0.116477)
(-0.00011674 -0.00041537 0.116558)
(-0.000161888 -0.000394469 0.116613)
(-0.000212102 -0.000384377 0.116746)
(-0.000286509 -0.000375833 0.116877)
(-0.00033475 -0.000335549 0.117103)
(-0.000450702 -0.00035817 0.117276)
(-0.000482698 -0.000225808 0.117547)
(-0.00053194 -0.000357527 0.118576)
(-0.000885845 -0.000100822 0.11997)
(0.000361202 -5.96964e-05 0.0950158)
(-0.00242261 -0.0021186 0.0351253)
(0.000742463 0.000584297 -0.00306763)
(-1.00724e-05 -0.000504404 0.116748)
(-5.7539e-05 -0.000491064 0.116757)
(-8.86799e-05 -0.000544722 0.116834)
(-0.000125565 -0.000500263 0.116863)
(-0.000205251 -0.000512175 0.116986)
(-0.000239093 -0.00046175 0.117099)
(-0.000357184 -0.000452428 0.117276)
(-0.000350428 -0.000352666 0.117434)
(-0.000520491 -0.000488441 0.118324)
(-0.000574931 -8.83309e-05 0.121184)
(-0.000542061 -0.000618058 0.119088)
(-2.00541e-05 0.00049427 0.0822193)
(0.00275705 0.000546888 0.025309)
(0.000493668 0.000192547 0.0036395)
(-2.02777e-06 -0.000665218 0.117038)
(-0.000122906 -0.000651522 0.117043)
(-0.000125256 -0.000644147 0.117194)
(-0.000128979 -0.000589719 0.11719)
(-0.000172725 -0.000573248 0.11733)
(-0.000225041 -0.00053137 0.117358)
(-0.000225876 -0.00048428 0.117549)
(-0.000486668 -0.000523441 0.118328)
(-0.000223597 -0.000226503 0.121292)
(-0.00061659 -0.000514684 0.117293)
(0.000376602 0.00047509 0.0769417)
(-0.00423529 -0.00267592 0.0396145)
(-0.00143865 -0.000502861 -0.000763122)
(4.65433e-06 -0.000722561 0.11753)
(-3.49996e-05 -0.000706096 0.117506)
(-2.41103e-05 -0.000853726 0.117649)
(-5.13659e-05 -0.000747189 0.117552)
(-0.000144664 -0.000731093 0.117593)
(-0.000151558 -0.000674968 0.117706)
(-0.000357975 -0.000534155 0.118579)
(-8.78877e-05 -0.000578131 0.12119)
(-0.000512509 -0.000620492 0.1173)
(0.000271378 0.000270388 0.0762943)
(-0.000770337 -0.000565227 0.0348825)
(0.00491876 0.00592455 0.0165276)
(1.41447e-05 -0.000960348 0.11776)
(-0.000248879 -0.000994421 0.117945)
(-0.000173372 -0.000885576 0.118657)
(-1.49454e-05 -0.000788578 0.118525)
(-0.000112037 -0.00079351 0.118824)
(-2.6837e-05 -0.000692881 0.119852)
(-0.00010246 -0.000887559 0.119976)
(-0.000618517 -0.00054462 0.119103)
(0.000476448 0.000373884 0.0769649)
(-0.000566043 -0.000769226 0.0348948)
(0.0044951 0.00449505 0.0164259)
(-1.56875e-05 -0.00095689 0.119206)
(6.11742e-05 -0.000943276 0.120546)
(0.000168719 -0.00112837 0.119674)
(-1.21535e-05 -0.00102089 0.120482)
(-7.7284e-05 -0.000981273 0.121562)
(-0.000216605 -0.000920857 0.119528)
(-6.10734e-05 0.000360794 0.0950209)
(0.000494192 -2.17703e-05 0.082226)
(-0.00267394 -0.00423396 0.0396164)
(0.00592519 0.00491826 0.0165336)
(0.00010184 -0.00112365 0.12194)
(-0.000300683 -0.00109275 0.119883)
(-4.15774e-05 0.000148858 0.0960713)
(0.00024197 0.000174793 0.0971273)
(8.6417e-05 -5.43767e-05 0.0985271)
(0.000666749 -0.000105259 0.0814798)
(-0.00211951 -0.0024225 0.0351228)
(0.00054492 0.00275771 0.0253042)
(-0.000501116 -0.00143831 -0.000763493)
(-0.000117063 -0.000327189 0.0998094)
(0.00067565 -0.000148751 0.0798591)
(-0.00174369 -0.00163045 0.0336742)
(0.0013401 0.00209088 0.0270983)
(-0.00181948 0.00296327 0.0303614)
(0.0010482 0.00330613 0.0276059)
(0.000584355 0.000742519 -0.00306763)
(0.000192273 0.00049393 0.00363904)
(0.000649453 0.00367356 0.025057)
(0.00211604 0.00346821 0.0255684)
(0.0062845 0.00651652 0.0182045)
(-0.000158353 5.31638e-05 0.00415654)
(-0.000655497 0.000252495 0.00586386)
(-5.27582e-06 -5.21053e-06 0.115967)
(-1.44349e-05 -5.21312e-06 0.115978)
(-2.7878e-05 -5.38343e-06 0.116011)
(-3.8993e-05 -5.64388e-06 0.116077)
(-5.89925e-05 -4.91788e-06 0.116179)
(-7.46649e-05 -5.3787e-06 0.116338)
(-0.000105099 -3.56455e-06 0.116531)
(-0.000121409 -3.9388e-06 0.116826)
(-0.000164438 1.26981e-06 0.117131)
(-0.000164374 1.48933e-06 0.117608)
(-0.000222154 8.93149e-06 0.117912)
(-0.000166039 -1.39703e-05 0.119362)
(-0.000430671 1.5541e-06 0.122078)
(0.000143502 -0.000301372 0.0998348)
(0.00275862 0.00058462 0.0276568)
(-5.23135e-06 -1.44205e-05 0.115979)
(-1.41416e-05 -1.41661e-05 0.115993)
(-2.75539e-05 -1.54306e-05 0.11603)
(-3.86883e-05 -1.43893e-05 0.116098)
(-5.87699e-05 -1.78714e-05 0.116201)
(-7.30646e-05 -1.38575e-05 0.116356)
(-0.000103619 -2.4368e-05 0.11655)
(-0.000116966 -1.011e-05 0.116836)
(-0.00015868 -4.61858e-05 0.117138)
(-0.000154071 7.22879e-06 0.117601)
(-0.000237716 -0.000122134 0.118144)
(-0.000214951 0.000124316 0.120618)
(-0.000616442 -0.000327165 0.120082)
(0.000277042 0.000662764 0.0799879)
(0.00251272 0.00195032 0.0281715)
(-5.46333e-06 -2.78555e-05 0.116011)
(-1.54464e-05 -2.75842e-05 0.116031)
(-2.81116e-05 -2.80895e-05 0.116077)
(-4.14397e-05 -2.81098e-05 0.116148)
(-5.84782e-05 -2.89371e-05 0.11626)
(-8.1208e-05 -2.80443e-05 0.116416)
(-0.000101404 -3.24352e-05 0.116632)
(-0.000143174 -2.39046e-05 0.116911)
(-0.000146171 -4.65729e-05 0.117281)
(-0.000239668 -1.17401e-07 0.117742)
(-0.000129008 -9.33995e-05 0.118785)
(-0.000517702 0.00020298 0.119609)
(0.000511084 -0.00010044 0.0961684)
(-0.00193946 -0.00238555 0.0376328)
(0.00579694 0.00571247 0.020087)
(-5.71328e-06 -3.90525e-05 0.116078)
(-1.43676e-05 -3.87709e-05 0.116099)
(-2.80818e-05 -4.15333e-05 0.116149)
(-3.95427e-05 -3.96884e-05 0.116218)
(-5.87225e-05 -4.29981e-05 0.116331)
(-7.65857e-05 -3.72136e-05 0.116477)
(-9.94873e-05 -4.28249e-05 0.116686)
(-0.000130996 -2.88548e-05 0.11694)
(-0.000135385 -3.81299e-05 0.117271)
(-0.000206685 -1.75351e-05 0.117648)
(-9.11164e-05 9.91996e-06 0.118683)
(-0.000483379 -2.55213e-05 0.120436)
(0.000574964 0.000206641 0.0972026)
(0.00170354 0.00107162 0.0296271)
(-5.31253e-05 -0.000100696 0.00456375)
(-5.08296e-06 -5.90129e-05 0.11618)
(-1.79162e-05 -5.89166e-05 0.116201)
(-2.90243e-05 -5.85716e-05 0.116261)
(-4.29113e-05 -5.89514e-05 0.116332)
(-5.60147e-05 -5.61643e-05 0.116457)
(-8.10699e-05 -6.01019e-05 0.116601)
(-9.30467e-05 -5.09004e-05 0.116825)
(-0.000138314 -6.31444e-05 0.117065)
(-0.000135307 -4.05009e-05 0.117405)
(-0.000191947 -6.66306e-05 0.117675)
(-0.000131939 -3.01516e-05 0.118972)
(-0.000412017 -0.00010552 0.12158)
(0.000334586 2.11599e-05 0.0985636)
(0.00225295 -0.00187286 0.0329366)
(0.000108139 -0.000630273 0.00614512)
(-5.62047e-06 -7.48189e-05 0.116338)
(-1.39072e-05 -7.322e-05 0.116356)
(-2.80951e-05 -8.14869e-05 0.116416)
(-3.71264e-05 -7.69081e-05 0.116478)
(-5.98739e-05 -8.14426e-05 0.116601)
(-7.13426e-05 -7.18879e-05 0.116739)
(-0.000102559 -7.76152e-05 0.116955)
(-0.000120496 -5.56364e-05 0.117176)
(-0.000139167 -6.72936e-05 0.117431)
(-0.000195966 -3.57023e-05 0.117814)
(-0.000139835 6.09151e-05 0.12003)
(-0.00055365 -0.000280802 0.11966)
(0.000177494 0.000595096 0.0816502)
(0.00243 0.000549869 0.0300557)
(-3.95665e-06 -0.000105052 0.116532)
(-2.45351e-05 -0.000104064 0.11655)
(-3.26908e-05 -0.000101705 0.116632)
(-4.28362e-05 -0.000100029 0.116686)
(-5.09749e-05 -9.34954e-05 0.116825)
(-7.72377e-05 -0.000103365 0.116955)
(-7.67365e-05 -7.74834e-05 0.117182)
(-0.000128055 -0.000119541 0.117351)
(-0.000116137 -1.43106e-05 0.117625)
(-8.20502e-05 -0.000149166 0.118738)
(-0.000431535 0.000121966 0.120047)
(0.000666213 -0.000109001 0.0950453)
(-0.00310027 -0.00257217 0.0392447)
(2.00722e-05 -3.3485e-05 -0.00143997)
(-4.53629e-06 -0.000121629 0.116827)
(-1.05029e-05 -0.000117279 0.116837)
(-2.40514e-05 -0.000143783 0.116911)
(-2.89176e-05 -0.000131611 0.116941)
(-6.31887e-05 -0.000139115 0.117065)
(-5.53905e-05 -0.000121505 0.117176)
(-0.000118746 -0.000129479 0.117351)
(-5.7806e-05 -5.91681e-05 0.117503)
(-0.000175174 -0.000201887 0.118464)
(-0.000121094 0.000198435 0.121337)
(-0.000321029 -0.00063161 0.119087)
(9.32214e-05 0.000607492 0.0824177)
(0.00204291 -7.66332e-05 0.0280827)
(0.000549041 0.000142579 0.00357033)
(5.05601e-07 -0.000164037 0.117131)
(-4.67396e-05 -0.000159703 0.117138)
(-4.71314e-05 -0.000147 0.117282)
(-3.83377e-05 -0.000136646 0.117272)
(-4.09927e-05 -0.000136127 0.117407)
(-6.75655e-05 -0.000140371 0.117433)
(-1.3921e-05 -0.000117431 0.117628)
(-0.000200386 -0.000178344 0.118468)
(0.000144699 0.000142424 0.12144)
(-0.000411056 -0.000411738 0.117399)
(0.000638506 0.00059708 0.0770041)
(-0.00511697 -0.00341697 0.0438157)
(-0.00217467 -0.00108652 0.0009704)
(6.44238e-07 -0.000164229 0.117607)
(5.61859e-06 -0.000154794 0.117601)
(-4.95593e-07 -0.00024098 0.117742)
(-1.75772e-05 -0.00020771 0.117649)
(-6.6621e-05 -0.000193218 0.117676)
(-3.59261e-05 -0.000197311 0.117816)
(-0.000150214 -8.36783e-05 0.118742)
(0.00019908 -0.000123822 0.121344)
(-0.000408643 -0.000414824 0.117405)
(0.000453169 0.0004527 0.0763218)
(-0.00121372 -0.00109806 0.0387297)
(0.00442852 0.00542184 0.018173)
(7.75892e-06 -0.000221309 0.117912)
(-0.000124118 -0.000239736 0.118144)
(-9.42394e-05 -0.000130803 0.118784)
(9.78011e-06 -9.24013e-05 0.118683)
(-3.09279e-05 -0.000133635 0.118973)
(6.03171e-05 -0.000141072 0.120033)
(0.000121008 -0.00043299 0.120053)
(-0.00063249 -0.000321927 0.119101)
(0.000598255 0.000636877 0.0770271)
(-0.00109865 -0.00121165 0.0387439)
(0.00406543 0.00406877 0.0181716)
(-1.45873e-05 -0.000166066 0.119359)
(0.000120077 -0.000216315 0.120617)
(0.000203347 -0.000519026 0.119607)
(-2.54635e-05 -0.000484138 0.120435)
(-0.000105493 -0.000412913 0.12158)
(-0.000280987 -0.000554398 0.119662)
(-0.00011003 0.000665959 0.0950507)
(0.000607552 9.3148e-05 0.0824241)
(-0.00341376 -0.0051152 0.043818)
(0.00542167 0.00442684 0.0181788)
(-1.00771e-06 -0.000431547 0.122073)
(-0.00033046 -0.000620589 0.120076)
(-0.000101326 0.000509858 0.0961675)
(0.000206663 0.000574783 0.0972027)
(2.03137e-05 0.000334351 0.0985642)
(0.000595499 0.000177503 0.0816516)
(-0.00257221 -0.00310001 0.0392436)
(-7.72491e-05 0.00204272 0.0280816)
(-0.0010866 -0.0021743 0.000971025)
(-0.00030616 0.000142736 0.0998243)
(0.00065965 0.000275672 0.0799761)
(-0.00238403 -0.00194043 0.0376318)
(0.00107277 0.00170292 0.0296262)
(-0.00187254 0.00225287 0.032936)
(0.000549788 0.00242984 0.0300552)
(-3.3637e-05 2.01017e-05 -0.00143992)
(0.000142445 0.00054916 0.0035702)
(0.000583048 0.00275794 0.0276506)
(0.00195077 0.00251146 0.0281638)
(0.00571229 0.00579733 0.0200867)
(-0.000100614 -5.32184e-05 0.00456374)
(-0.000630254 0.000108125 0.006145)
(1.15714e-05 1.16918e-05 0.115958)
(3.81575e-05 1.1457e-05 0.115969)
(6.33062e-05 1.13476e-05 0.116001)
(9.35689e-05 9.98403e-06 0.116068)
(0.000125955 1.01202e-05 0.116169)
(0.000164548 7.13309e-06 0.116325)
(0.000210841 7.61868e-06 0.116518)
(0.000261132 1.32039e-06 0.116808)
(0.000326216 3.87025e-06 0.117114)
(0.00037497 -7.43165e-06 0.117574)
(0.000444774 4.04125e-06 0.117887)
(0.000468248 -2.98249e-05 0.119369)
(0.000318019 5.65449e-05 0.122046)
(0.000110415 -0.000338618 0.099884)
(0.00258749 0.000569358 0.0284306)
(1.14353e-05 3.81846e-05 0.115969)
(3.78208e-05 3.77658e-05 0.115984)
(6.23907e-05 3.77641e-05 0.116021)
(9.24962e-05 3.70999e-05 0.116088)
(0.000123286 3.64351e-05 0.11619)
(0.000162196 3.62122e-05 0.116344)
(0.000205192 3.3859e-05 0.116536)
(0.000257028 3.58274e-05 0.116817)
(0.00031706 2.78301e-05 0.117121)
(0.000377521 4.02144e-05 0.117567)
(0.000426296 -6.61503e-06 0.118155)
(0.000498437 0.000114836 0.120623)
(0.000103826 -5.27924e-05 0.120073)
(0.000314869 0.000430703 0.0801147)
(0.00235783 0.00190198 0.0288156)
(1.12519e-05 6.33795e-05 0.116002)
(3.77373e-05 6.23686e-05 0.116022)
(6.26367e-05 6.26758e-05 0.116068)
(9.22439e-05 5.86891e-05 0.116138)
(0.000125063 5.89704e-05 0.11625)
(0.00016197 5.19306e-05 0.116403)
(0.000210408 5.09199e-05 0.116619)
(0.00025507 3.9374e-05 0.116891)
(0.000331777 2.83298e-05 0.117267)
(0.000347652 1.75804e-05 0.117705)
(0.000508859 -4.79802e-05 0.118815)
(0.000246729 0.000109005 0.119526)
(0.000723011 4.33277e-05 0.096326)
(-0.00187599 -0.00259751 0.0383877)
(0.0056648 0.0056825 0.0205239)
(9.92988e-06 9.35408e-05 0.116068)
(3.71211e-05 9.24278e-05 0.116089)
(5.87134e-05 9.21826e-05 0.116139)
(8.87959e-05 8.86815e-05 0.116207)
(0.00011652 8.69329e-05 0.11632)
(0.000154153 8.25781e-05 0.116464)
(0.000192584 7.61524e-05 0.116672)
(0.000234597 6.76507e-05 0.11692)
(0.000296838 5.2147e-05 0.117254)
(0.000302604 1.8441e-05 0.117608)
(0.000439727 6.56813e-06 0.118712)
(0.00013053 -0.000123734 0.120346)
(0.000622913 0.000129405 0.0973064)
(0.00166975 0.000924301 0.0302874)
(-9.71693e-05 -9.50719e-05 0.0046443)
(9.97004e-06 0.000125975 0.116169)
(3.63777e-05 0.000123174 0.116191)
(5.88872e-05 0.000124997 0.116251)
(8.69918e-05 0.000116334 0.11632)
(0.000118955 0.000118843 0.116446)
(0.000151176 0.000103944 0.116588)
(0.000195387 0.000109669 0.116812)
(0.00023091 7.84059e-05 0.117048)
(0.000283367 8.97558e-05 0.117392)
(0.000308296 1.41456e-05 0.117634)
(0.000361442 1.6154e-05 0.118993)
(0.000174898 -8.31969e-05 0.121516)
(0.000273816 -2.49491e-05 0.0986594)
(0.0021407 -0.00193467 0.0335749)
(6.93035e-05 -0.000628018 0.006229)
(6.92491e-06 0.000164426 0.116325)
(3.61507e-05 0.000162077 0.116344)
(5.18847e-05 0.000161758 0.116403)
(8.26479e-05 0.000153904 0.116465)
(0.00010413 0.000150898 0.116588)
(0.000144983 0.000144602 0.116725)
(0.000166923 0.000129644 0.116943)
(0.000214699 0.00012883 0.117162)
(0.000234099 8.13437e-05 0.117417)
(0.000235115 6.59853e-05 0.117787)
(0.000324607 5.64725e-05 0.120061)
(-0.000109652 -0.000192394 0.119644)
(0.000113772 0.000275455 0.0817135)
(0.00231961 0.000416321 0.0306117)
(7.25416e-06 0.000210821 0.116518)
(3.37143e-05 0.000204845 0.116536)
(5.0706e-05 0.000210173 0.116619)
(7.6145e-05 0.000192137 0.116672)
(0.000109651 0.000194992 0.116812)
(0.000129925 0.000166276 0.116943)
(0.000179657 0.000179011 0.117172)
(0.000183581 0.000114837 0.117339)
(0.000224245 0.000181285 0.117605)
(0.000268137 -5.76834e-06 0.118739)
(4.8035e-06 0.000220382 0.120038)
(0.000696341 3.11519e-05 0.0950595)
(-0.00304769 -0.00273569 0.0399659)
(-0.00012915 -9.62627e-05 -0.0012315)
(7.81861e-07 0.000260834 0.116808)
(3.55554e-05 0.000256733 0.116818)
(3.923e-05 0.000254612 0.116891)
(6.75641e-05 0.000234233 0.116921)
(7.83928e-05 0.000230302 0.117049)
(0.000128964 0.000213936 0.117162)
(0.000115478 0.000182534 0.117339)
(0.000218306 0.000217389 0.117488)
(0.000108012 3.23041e-05 0.118458)
(0.000193046 0.000367888 0.121375)
(-1.18126e-05 -0.000540433 0.119024)
(-1.85879e-05 0.000450573 0.0824756)
(0.00200788 -0.000195572 0.0286425)
(0.000582186 0.000162463 0.00355493)
(3.04248e-06 0.000326378 0.117114)
(2.75301e-05 0.000316289 0.117121)
(2.80443e-05 0.000331205 0.117268)
(5.19868e-05 0.00029585 0.117256)
(8.93305e-05 0.000282538 0.117394)
(8.11784e-05 0.000233031 0.117419)
(0.000181751 0.000223207 0.117608)
(3.33736e-05 0.000106329 0.118462)
(0.000375068 0.00037323 0.121467)
(-0.000207039 -0.000296139 0.117334)
(0.000646322 0.00050176 0.0770883)
(-0.0051678 -0.0036032 0.0444634)
(-0.00230415 -0.00120004 0.00121362)
(-8.33612e-06 0.000375241 0.117574)
(3.9218e-05 0.000377046 0.117567)
(1.72173e-05 0.000346602 0.117705)
(1.80992e-05 0.000301552 0.117608)
(1.40466e-05 0.000307168 0.117636)
(6.58979e-05 0.000234085 0.11779)
(-5.70155e-06 0.000266965 0.118743)
(0.000368294 0.000191377 0.121383)
(-0.000294253 -0.000209536 0.117339)
(0.000398057 0.000397864 0.076416)
(-0.00130847 -0.00124183 0.0393534)
(0.00434871 0.00536699 0.0185708)
(2.71344e-06 0.000445171 0.117887)
(-8.21059e-06 0.00042531 0.118155)
(-4.88237e-05 0.00050652 0.118815)
(6.3468e-06 0.000438477 0.118712)
(1.57654e-05 0.000360063 0.118995)
(5.63056e-05 0.00032354 0.120064)
(0.000220306 3.68622e-06 0.120044)
(-0.000540741 -1.31005e-05 0.119038)
(0.00050244 0.000645344 0.0771108)
(-0.0012425 -0.00130666 0.0393679)
(0.0039996 0.00400333 0.0185767)
(-3.10021e-05 0.000467927 0.119367)
(0.00011115 0.000496875 0.120622)
(0.000108429 0.000245044 0.119525)
(-0.00012307 0.000129918 0.120346)
(-8.30746e-05 0.000173905 0.121517)
(-0.00019227 -0.000110351 0.119647)
(3.0772e-05 0.000695994 0.095065)
(0.000450802 -1.86343e-05 0.0824814)
(-0.00359994 -0.00516649 0.044466)
(0.00536688 0.00434714 0.0185767)
(5.28811e-05 0.000315569 0.122043)
(-5.57418e-05 9.735e-05 0.120067)
(4.27851e-05 0.000721216 0.0963251)
(0.000129633 0.000622566 0.0973067)
(-2.54548e-05 0.000273575 0.0986598)
(0.000275836 0.000113817 0.0817149)
(-0.00273557 -0.00304749 0.0399653)
(-0.000195821 0.00200778 0.0286421)
(-0.00119997 -0.00230382 0.00121432)
(-0.000346956 0.000108046 0.0998748)
(0.000427559 0.000311721 0.0801031)
(-0.00259635 -0.00187663 0.0383863)
(0.000925053 0.00166906 0.0302867)
(-0.00193461 0.00214077 0.0335742)
(0.000416219 0.00231952 0.0306113)
(-9.64281e-05 -0.000129166 -0.00123138)
(0.000162296 0.000582325 0.00355486)
(0.000569514 0.00258598 0.0284232)
(0.001899 0.00235457 0.0288084)
(0.00568147 0.00566449 0.0205234)
(-9.50862e-05 -9.7278e-05 0.00464425)
(-0.000627962 6.92378e-05 0.00622894)
(2.80818e-05 2.82527e-05 0.115898)
(8.96659e-05 2.7907e-05 0.115908)
(0.000152569 2.77259e-05 0.115937)
(0.000223553 2.53511e-05 0.116)
(0.000307144 2.49522e-05 0.116097)
(0.000399094 1.94273e-05 0.116247)
(0.00052083 1.86863e-05 0.116433)
(0.000639865 6.55576e-06 0.116715)
(0.000818753 7.90909e-06 0.117019)
(0.000932207 -1.55058e-05 0.117489)
(0.00115523 3.01916e-06 0.117819)
(0.00110758 -5.47033e-05 0.119401)
(0.00116859 0.000112192 0.122133)
(0.000216071 -0.000288072 0.100217)
(0.00255153 0.000584421 0.028623)
(2.78784e-05 8.9699e-05 0.115908)
(8.88317e-05 8.87475e-05 0.115922)
(0.00015042 9.00629e-05 0.115956)
(0.0002209 8.7665e-05 0.116019)
(0.00030143 8.98902e-05 0.116117)
(0.000393009 8.54643e-05 0.116264)
(0.000508332 9.23862e-05 0.11645)
(0.000628917 8.18643e-05 0.116724)
(0.000795796 0.000108067 0.117028)
(0.000929285 7.25269e-05 0.117481)
(0.00112229 0.000134563 0.118098)
(0.00120475 6.0051e-05 0.120686)
(0.000995461 0.000319306 0.120185)
(0.000490031 0.000332572 0.0805371)
(0.00231685 0.00191246 0.0290102)
(2.76191e-05 0.000152687 0.115938)
(9.00326e-05 0.000150407 0.115957)
(0.00015149 0.000151553 0.116001)
(0.000223393 0.00014376 0.116067)
(0.00030495 0.000145413 0.116175)
(0.000401633 0.000130882 0.116322)
(0.000517242 0.000134108 0.116534)
(0.000655607 0.000102834 0.1168)
(0.00081003 0.000107211 0.11719)
(0.000968544 3.69411e-05 0.117629)
(0.00114775 1.68478e-05 0.118858)
(0.00109656 -4.32781e-05 0.119615)
(0.00111389 0.000209198 0.0967523)
(-0.00173252 -0.00284435 0.0386605)
(0.00563808 0.00572729 0.0206823)
(2.53118e-05 0.000223556 0.116001)
(8.76978e-05 0.000220834 0.116021)
(0.00014378 0.000223363 0.116068)
(0.000214776 0.000214682 0.116133)
(0.000288553 0.000214919 0.116242)
(0.000381744 0.000200917 0.116381)
(0.00048024 0.000194669 0.116585)
(0.000602089 0.000164835 0.116828)
(0.000731363 0.000144328 0.117174)
(0.000846979 6.37428e-05 0.117523)
(0.000979354 2.04238e-05 0.118711)
(0.000821307 -0.000222224 0.120384)
(0.000827457 2.3376e-05 0.0975407)
(0.00174103 0.000808579 0.030475)
(-0.000114752 -0.000106286 0.00466653)
(2.48145e-05 0.000307207 0.116097)
(8.98268e-05 0.000301345 0.116118)
(0.000145328 0.000304913 0.116176)
(0.00021495 0.000288398 0.116242)
(0.000291185 0.000291086 0.116364)
(0.000381393 0.000266628 0.116501)
(0.000481071 0.000270339 0.116723)
(0.000604835 0.000223444 0.116955)
(0.000708768 0.000226095 0.117317)
(0.000854413 0.00011023 0.117557)
(0.000871384 7.45564e-05 0.119021)
(0.000852902 -7.1669e-05 0.121568)
(0.00036081 -8.08143e-05 0.0989287)
(0.00215626 -0.00197 0.0337561)
(5.83625e-05 -0.000622764 0.00625504)
(1.92513e-05 0.000399035 0.116247)
(8.54001e-05 0.000392922 0.116264)
(0.000130836 0.000401477 0.116322)
(0.000200955 0.000381551 0.116382)
(0.000266783 0.000381176 0.116501)
(0.000361033 0.000360732 0.116637)
(0.000436937 0.000338271 0.116854)
(0.00055753 0.000320593 0.117076)
(0.000619083 0.000240664 0.117348)
(0.000706667 0.00019033 0.117723)
(0.000790322 2.53352e-05 0.120094)
(0.000407765 -0.000117561 0.119673)
(0.000180844 3.03972e-05 0.0818403)
(0.00230581 0.000371371 0.0307355)
(1.83518e-05 0.000520842 0.116433)
(9.22303e-05 0.000508083 0.116451)
(0.000133919 0.000517065 0.116534)
(0.000194644 0.000479824 0.116586)
(0.000270333 0.000480706 0.116724)
(0.000338489 0.000436363 0.116854)
(0.00044089 0.00044024 0.117086)
(0.000507984 0.000365281 0.117262)
(0.000584864 0.000393522 0.117551)
(0.00063523 0.00017289 0.118704)
(0.000437636 0.000270414 0.120103)
(0.000839979 0.000159785 0.095101)
(-0.00286951 -0.00288493 0.0400895)
(-0.000171313 -8.16422e-05 -0.00122359)
(6.06275e-06 0.000639731 0.116716)
(8.16171e-05 0.000628756 0.116725)
(0.000102623 0.000655283 0.116801)
(0.000164694 0.000601687 0.116829)
(0.000223457 0.00060432 0.116956)
(0.000320619 0.00055694 0.117076)
(0.000365855 0.000507196 0.117262)
(0.000513004 0.000512239 0.117437)
(0.000427646 0.000296432 0.118421)
(0.0005118 0.000519613 0.121422)
(0.000319306 -0.000395264 0.119088)
(8.01581e-06 0.000397194 0.0825521)
(0.00203854 -0.000216256 0.0287109)
(0.00058029 0.000178595 0.00354916)
(7.14188e-06 0.000818933 0.11702)
(0.000107727 0.000795177 0.117029)
(0.000106778 0.000809582 0.117191)
(0.00014411 0.000730489 0.117175)
(0.000225908 0.000708046 0.117319)
(0.000240621 0.000618165 0.11735)
(0.000393997 0.000583909 0.117554)
(0.000297241 0.000426387 0.118424)
(0.00059233 0.000590601 0.121515)
(2.37197e-05 -0.000145595 0.117388)
(0.000714254 0.000474201 0.0771859)
(-0.00511638 -0.0036856 0.0445525)
(-0.00231776 -0.00121613 0.00121647)
(-1.65267e-05 0.000932331 0.117489)
(7.16595e-05 0.000928876 0.117482)
(3.64683e-05 0.000967871 0.11763)
(6.33234e-05 0.000846203 0.117524)
(0.000110195 0.000853525 0.117559)
(0.000190115 0.000705939 0.117726)
(0.000173138 0.000634441 0.118708)
(0.000519802 0.000510888 0.121428)
(-0.000144199 2.23518e-05 0.117393)
(0.000423586 0.00042386 0.0764977)
(-0.00131711 -0.00130169 0.0394572)
(0.00433868 0.0053707 0.0186486)
(1.53162e-06 0.00115539 0.117819)
(0.000133445 0.00112112 0.118098)
(1.60581e-05 0.0011461 0.118859)
(1.99961e-05 0.000978403 0.118711)
(7.44072e-05 0.000870266 0.119023)
(2.53987e-05 0.000789526 0.120097)
(0.000270754 0.000437007 0.12011)
(-0.000395123 0.00031831 0.1191)
(0.000474593 0.00071375 0.0772077)
(-0.00130229 -0.00131545 0.0394718)
(0.0039984 0.00400211 0.0186566)
(-5.68281e-05 0.00110817 0.1194)
(5.74419e-05 0.00120323 0.120684)
(-4.3454e-05 0.00109411 0.119615)
(-0.000222048 0.000821123 0.120384)
(-7.15169e-05 0.000851645 0.121569)
(-0.000117296 0.000407136 0.119676)
(0.000159687 0.000839617 0.095106)
(0.000397559 7.87933e-06 0.0825573)
(-0.0036823 -0.0051153 0.044555)
(0.00537059 0.00433735 0.0186545)
(0.00010893 0.00116647 0.122131)
(0.000315207 0.000988876 0.120182)
(0.000209202 0.00111133 0.0967517)
(2.40449e-05 0.000827029 0.0975407)
(-8.13536e-05 0.000360549 0.0989293)
(3.10671e-05 0.000180896 0.0818414)
(-0.0028847 -0.00286931 0.040089)
(-0.000216363 0.00203841 0.0287107)
(-0.00121599 -0.00231753 0.00121732)
(-0.000297551 0.00021387 0.100213)
(0.000328715 0.000485581 0.0805288)
(-0.00284334 -0.00173238 0.0386587)
(0.000808945 0.00174031 0.0304742)
(-0.00197011 0.00215634 0.0337555)
(0.000371274 0.00230557 0.0307352)
(-8.17446e-05 -0.000171249 -0.00122345)
(0.00017853 0.000580433 0.00354915)
(0.000588459 0.00255208 0.0286202)
(0.00190536 0.00230979 0.0290042)
(0.00572529 0.00563642 0.0206816)
(-0.000106316 -0.000114864 0.00466642)
(-0.000622709 5.8285e-05 0.00625496)
(4.38078e-05 4.40195e-05 0.115789)
(0.000138011 4.34771e-05 0.115796)
(0.000236915 4.32503e-05 0.115821)
(0.000346716 3.98882e-05 0.115877)
(0.000479505 3.90035e-05 0.115964)
(0.000623424 3.13172e-05 0.116102)
(0.000821361 2.99655e-05 0.116275)
(0.00101289 1.24423e-05 0.116546)
(0.00132027 1.32102e-05 0.116839)
(0.00151589 -2.21703e-05 0.117327)
(0.00196909 7.32959e-06 0.117668)
(0.0018862 -6.42415e-05 0.119425)
(0.00235775 0.00019691 0.122204)
(0.000471136 -6.06045e-05 0.100945)
(0.00254458 0.000660216 0.0287807)
(4.34417e-05 0.000138046 0.115796)
(0.000136945 0.000136836 0.115808)
(0.00023372 0.000139531 0.115837)
(0.000342623 0.000135626 0.115894)
(0.000471109 0.000140995 0.115983)
(0.000614585 0.000133222 0.116119)
(0.000802863 0.000151487 0.116293)
(0.000996136 0.000130355 0.116556)
(0.00128481 0.000201254 0.116853)
(0.00151206 0.000119774 0.117321)
(0.00193654 0.000363769 0.117953)
(0.00207843 7.47095e-05 0.120727)
(0.00238965 0.00102059 0.120301)
(0.000873117 0.000447457 0.0815694)
(0.00230205 0.00199672 0.0292552)
(4.31427e-05 0.000237075 0.115822)
(0.000139501 0.000233713 0.115839)
(0.000235714 0.000235808 0.115877)
(0.000348201 0.000224812 0.115937)
(0.000477117 0.000228294 0.116035)
(0.000633994 0.000207504 0.116173)
(0.000818574 0.000216882 0.116375)
(0.00106299 0.000167581 0.116636)
(0.00131024 0.000196078 0.11704)
(0.00169018 6.23477e-05 0.117508)
(0.00194163 0.000127783 0.118906)
(0.0023319 -0.000197177 0.119815)
(0.00194027 0.000515429 0.0976955)
(-0.00151335 -0.00316873 0.0390758)
(0.00565863 0.00587201 0.0209172)
(3.98623e-05 0.000346756 0.115877)
(0.000135673 0.000342549 0.115895)
(0.000224831 0.0003482 0.115938)
(0.000335134 0.000335046 0.115998)
(0.000453806 0.000337734 0.116098)
(0.00060323 0.000315453 0.116229)
(0.000762928 0.000310864 0.116424)
(0.000975486 0.000261042 0.116662)
(0.0011807 0.000238053 0.117018)
(0.00145465 0.000105717 0.117377)
(0.00162633 2.51172e-05 0.118667)
(0.00176707 -0.000347629 0.120422)
(0.00133634 -0.000170891 0.0979957)
(0.00195879 0.000594468 0.0307396)
(-0.00012287 -0.000122541 0.00473038)
(3.88782e-05 0.00047962 0.115964)
(0.000140923 0.000471049 0.115983)
(0.000228198 0.000477111 0.116036)
(0.000337739 0.000453675 0.116098)
(0.000457526 0.000457403 0.11621)
(0.000607133 0.0004261 0.11634)
(0.000764061 0.00043017 0.116554)
(0.000989693 0.000373262 0.116781)
(0.00115389 0.0003713 0.11716)
(0.00148671 0.000222399 0.117413)
(0.00150296 0.000165652 0.119019)
(0.00180678 -5.10576e-05 0.121649)
(0.000663213 -0.000115361 0.0994946)
(0.00226626 -0.00204641 0.0340474)
(4.82039e-05 -0.00061367 0.00631007)
(3.11732e-05 0.000623439 0.116103)
(0.000133151 0.000614526 0.116119)
(0.000207457 0.000633892 0.116173)
(0.000315437 0.000603103 0.116229)