/*--------------------------------*- C++ -*----------------------------------*\
| =========                 |                                                 |
| \\      /  F ield         | OpenFOAM: The Open Source CFD Toolbox           |
|  \\    /   O peration     | Version:  2.1.1                                 |
|   \\  /    A nd           | Web:      www.OpenFOAM.org                      |
|    \\/     M anipulation  |                                                 |
\*---------------------------------------------------------------------------*/
FoamFile
{
    version     2.0;
    format      ascii;
    class       volScalarField;
    location    "0.07";
    object      p;
}
// * * * * * * * * * * * * * * * * * * * * * * * * * * * * * * * * * * * * * //

dimensions      [0 2 -2 0 0 0 0];

internalField   nonuniform List<scalar> 
163952
(
0.0416862
0.0411099
0.0363738
0.031179
0.0299823
0.0273709
0.0267809
0.0264572
0.0366938
0.0323517
0.0273103
0.0248206
0.023577
0.0227981
0.0224838
0.0223426
0.0337249
0.0279881
0.0244844
0.0228448
0.0219323
0.0213945
0.0210559
0.0208756
0.0207902
0.0335947
0.0260959
0.0232616
0.0219151
0.0211598
0.0206811
0.0203616
0.02015
0.0200239
0.0199604
0.0335959
0.0255539
0.0227373
0.0214592
0.0207444
0.0202807
0.0199568
0.0197261
0.0195666
0.0194661
0.0194138
0.0337252
0.026096
0.0227373
0.0213157
0.0205532
0.0200645
0.0197191
0.0194653
0.0192788
0.0191468
0.0190612
0.0190158
0.0366935
0.0279881
0.0232616
0.0214592
0.0205532
0.0199949
0.0196067
0.0193201
0.0191046
0.0189441
0.0188292
0.0187538
0.0187133
0.0323518
0.0244845
0.0219151
0.0207444
0.0200646
0.0196067
0.0192733
0.0190216
0.0188304
0.0186872
0.0185841
0.0185159
0.0184792
0.0363738
0.0273103
0.0228449
0.0211599
0.0202807
0.0197192
0.0193202
0.0190216
0.0187937
0.0186194
0.0184885
0.0183939
0.018331
0.018297
0.0311792
0.0248206
0.0219323
0.0206812
0.0199569
0.0194653
0.0191046
0.0188304
0.0186195
0.0184575
0.0183354
0.0182469
0.018188
0.018156
0.0299824
0.0235771
0.0213945
0.0203616
0.0197261
0.0192788
0.0189441
0.0186872
0.0184885
0.0183354
0.0182196
0.0181356
0.0180794
0.018049
0.027371
0.0227981
0.0210559
0.0201501
0.0195667
0.0191468
0.0188292
0.0185841
0.0183939
0.0182469
0.0181356
0.0180545
0.0180004
0.017971
0.0416862
0.0267809
0.0224839
0.0208757
0.020024
0.0194662
0.0190613
0.0187538
0.018516
0.018331
0.018188
0.0180795
0.0180004
0.0179476
0.0179189
0.04111
0.0264573
0.0223427
0.0207902
0.0199605
0.0194138
0.0190159
0.0187133
0.0184792
0.018297
0.018156
0.018049
0.017971
0.0179189
0.0178905
0.0235122
0.0235691
0.0225068
0.0237161
0.0224472
0.0221331
0.0220883
0.0220675
0.0226115
0.0244255
0.0221127
0.0218005
0.02154
0.0213493
0.0212746
0.0212229
0.0233897
0.0221645
0.0217467
0.0213348
0.0209941
0.0207155
0.0205308
0.0204348
0.0203854
0.0221341
0.0218438
0.0214066
0.0209654
0.0205728
0.0202616
0.0200255
0.0198659
0.0197737
0.0197295
0.0221347
0.0217146
0.0212225
0.0207187
0.0202918
0.0199494
0.01969
0.0194988
0.019367
0.0192868
0.0192483
0.0233899
0.021844
0.0212225
0.0206387
0.0201499
0.019772
0.0194829
0.0192651
0.0191044
0.0189922
0.0189219
0.0188879
0.0226117
0.0221646
0.0214067
0.0207187
0.0201499
0.0197134
0.0193841
0.0191338
0.0189445
0.0188043
0.0187053
0.0186425
0.018612
0.0244255
0.0217467
0.0209655
0.0202918
0.019772
0.0193841
0.0190914
0.0188682
0.0186988
0.0185726
0.0184831
0.0184257
0.0183978
0.0225069
0.0221128
0.0213349
0.0205728
0.0199494
0.0194829
0.0191338
0.0188683
0.0186647
0.0185092
0.018393
0.0183102
0.0182569
0.0182309
0.0237161
0.0218006
0.0209942
0.0202617
0.01969
0.0192651
0.0189446
0.0186988
0.0185092
0.0183639
0.0182548
0.0181768
0.0181265
0.0181019
0.0224472
0.0215401
0.0207156
0.0200255
0.0194988
0.0191045
0.0188043
0.0185726
0.018393
0.0182548
0.0181507
0.0180762
0.0180281
0.0180045
0.0221332
0.0213493
0.0205309
0.0198659
0.0193671
0.0189922
0.0187054
0.0184831
0.0183102
0.0181768
0.0180762
0.0180041
0.0179575
0.0179346
0.0235123
0.0220884
0.0212746
0.0204348
0.0197738
0.0192869
0.0189219
0.0186425
0.0184258
0.0182569
0.0181265
0.0180281
0.0179575
0.0179118
0.0178894
0.0235691
0.0220675
0.0212229
0.0203854
0.0197295
0.0192483
0.018888
0.018612
0.0183978
0.0182309
0.0181019
0.0180045
0.0179346
0.0178894
0.0178672
0.0198685
0.0198829
0.0199476
0.0203295
0.020553
0.0204374
0.0203299
0.0202893
0.0199543
0.0207982
0.0203481
0.0202701
0.0201753
0.0201366
0.0201073
0.0200819
0.0201647
0.0203618
0.0202615
0.020141
0.0200044
0.01986
0.0197688
0.0197138
0.0196834
0.0205117
0.0202948
0.0201698
0.01999
0.0197982
0.0196324
0.0194927
0.0193927
0.0193305
0.0192992
0.0205125
0.0202497
0.0200968
0.0198753
0.0196505
0.019448
0.019282
0.0191508
0.0190562
0.0189963
0.0189667
0.0201647
0.0202951
0.0200968
0.0198374
0.0195717
0.0193383
0.0191419
0.0189837
0.0188611
0.0187728
0.0187162
0.0186884
0.0199544
0.0203619
0.0201699
0.0198753
0.0195717
0.0193008
0.0190726
0.0188854
0.0187365
0.0186221
0.0185397
0.0184865
0.0184605
0.0207983
0.0202616
0.0199901
0.0196505
0.0193383
0.0190726
0.0188531
0.0186754
0.0185351
0.018428
0.0183506
0.0183006
0.018276
0.0199476
0.0203481
0.0201411
0.0197982
0.019448
0.0191419
0.0188854
0.0186754
0.0185066
0.0183738
0.0182724
0.0181992
0.0181517
0.0181284
0.0203295
0.0202701
0.0200045
0.0196325
0.019282
0.0189838
0.0187365
0.0185352
0.0183738
0.0182469
0.01815
0.01808
0.0180346
0.0180122
0.0205531
0.0201754
0.0198601
0.0194927
0.0191508
0.0188612
0.0186222
0.018428
0.0182724
0.01815
0.0180566
0.017989
0.0179451
0.0179235
0.0204374
0.0201367
0.0197688
0.0193928
0.0190562
0.0187728
0.0185397
0.0183506
0.0181992
0.01808
0.017989
0.0179232
0.0178804
0.0178593
0.0198686
0.02033
0.0201073
0.0197138
0.0193305
0.0189963
0.0187162
0.0184866
0.0183006
0.0181517
0.0180346
0.0179451
0.0178804
0.0178383
0.0178176
0.0198829
0.0202894
0.020082
0.0196834
0.0192993
0.0189668
0.0186885
0.0184605
0.018276
0.0181284
0.0180122
0.0179235
0.0178593
0.0178176
0.017797
0.0185213
0.0185316
0.0186383
0.0188654
0.0191963
0.019196
0.0191435
0.0191215
0.0186532
0.0190791
0.0191192
0.0191067
0.0190775
0.019079
0.0190778
0.0190743
0.0187941
0.019123
0.0191105
0.0191036
0.0190749
0.0190233
0.0189876
0.0189623
0.0189481
0.0192263
0.0191263
0.0191204
0.0190702
0.0190042
0.01894
0.0188774
0.0188276
0.018793
0.0187747
0.0192269
0.0191067
0.0191017
0.0190388
0.0189495
0.0188563
0.0187706
0.0186962
0.0186392
0.0186011
0.0185817
0.0187941
0.0191265
0.0191017
0.0190275
0.0189189
0.0188029
0.0186928
0.0185958
0.0185156
0.0184552
0.0184152
0.0183953
0.0186533
0.019123
0.0191204
0.0190388
0.0189189
0.0187843
0.0186525
0.0185331
0.0184314
0.0183495
0.0182885
0.0182482
0.0182282
0.0190791
0.0191106
0.0190703
0.0189495
0.018803
0.0186525
0.0185119
0.0183887
0.018286
0.0182044
0.018144
0.0181042
0.0180845
0.0186384
0.0191192
0.0191036
0.0190042
0.0188563
0.0186928
0.0185331
0.0183887
0.0182648
0.0181627
0.0180823
0.018023
0.017984
0.0179647
0.0188655
0.0191068
0.019075
0.0189401
0.0187706
0.0185959
0.0184314
0.018286
0.0181627
0.0180619
0.0179829
0.0179247
0.0178866
0.0178677
0.0191963
0.0190776
0.0190233
0.0188774
0.0186962
0.0185156
0.0183495
0.0182044
0.0180823
0.0179829
0.0179052
0.0178481
0.0178106
0.0177921
0.019196
0.0190791
0.0189877
0.0188277
0.0186392
0.0184552
0.0182885
0.018144
0.018023
0.0179248
0.0178481
0.0177918
0.0177549
0.0177366
0.0185213
0.0191436
0.0190779
0.0189624
0.018793
0.0186011
0.0184153
0.0182482
0.0181043
0.017984
0.0178866
0.0178106
0.0177549
0.0177184
0.0177003
0.0185317
0.0191216
0.0190744
0.0189481
0.0187748
0.0185817
0.0183953
0.0182282
0.0180846
0.0179647
0.0178677
0.0177921
0.0177366
0.0177003
0.0176823
0.0178032
0.0178114
0.0178641
0.0180128
0.0182292
0.0182727
0.0182631
0.0182616
0.0178891
0.0181214
0.0182293
0.0182484
0.018254
0.0182664
0.0182747
0.0182792
0.0179789
0.0182307
0.018257
0.0182902
0.0183086
0.0183082
0.0183053
0.0182993
0.0182951
0.0182632
0.0182527
0.0182967
0.0183101
0.0183105
0.018303
0.0182878
0.0182718
0.0182581
0.0182502
0.0182635
0.0182474
0.0183035
0.0183191
0.0183068
0.0182818
0.0182505
0.0182178
0.01819
0.0181701
0.0181596
0.0179789
0.0182528
0.0183035
0.0183217
0.0183039
0.018265
0.0182174
0.0181688
0.0181244
0.0180888
0.0180642
0.0180516
0.0178891
0.0182307
0.0182967
0.0183191
0.0183039
0.0182589
0.0181989
0.0181352
0.0180753
0.0180238
0.0179836
0.0179563
0.0179425
0.0181215
0.018257
0.0183101
0.0183068
0.018265
0.0181989
0.0181234
0.0180492
0.0179825
0.0179269
0.0178842
0.0178554
0.017841
0.0178642
0.0182294
0.0182902
0.0183105
0.0182818
0.0182174
0.0181352
0.0180492
0.0179685
0.0178978
0.0178398
0.0177958
0.0177664
0.0177516
0.0180128
0.0182485
0.0183087
0.018303
0.0182505
0.0181688
0.0180753
0.0179826
0.0178978
0.0178249
0.0177658
0.0177212
0.0176914
0.0176765
0.0182292
0.018254
0.0183083
0.0182878
0.0182178
0.0181244
0.0180238
0.0179269
0.0178398
0.0177658
0.0177061
0.0176612
0.0176314
0.0176165
0.0182728
0.0182665
0.0183053
0.0182719
0.0181901
0.0180888
0.0179836
0.0178842
0.0177959
0.0177212
0.0176612
0.0176163
0.0175865
0.0175716
0.0178033
0.0182632
0.0182747
0.0182994
0.0182582
0.0181702
0.0180643
0.0179564
0.0178555
0.0177664
0.0176914
0.0176314
0.0175865
0.0175567
0.0175418
0.0178115
0.0182616
0.0182793
0.0182951
0.0182502
0.0181596
0.0180517
0.0179426
0.017841
0.0177517
0.0176766
0.0176165
0.0175716
0.0175418
0.017527
0.017293
0.0172998
0.0173122
0.017405
0.0175302
0.0175805
0.0175857
0.0175918
0.0173342
0.0174782
0.0175601
0.0175911
0.0176126
0.017632
0.0176427
0.0176487
0.0173891
0.0175605
0.017602
0.0176462
0.0176802
0.017701
0.017715
0.0177208
0.0177227
0.017561
0.0175878
0.0176461
0.0176847
0.017714
0.017734
0.0177443
0.0177487
0.017749
0.0177484
0.0175612
0.0175921
0.0176628
0.0177089
0.0177346
0.0177477
0.0177502
0.0177457
0.017739
0.0177328
0.0177292
0.0173891
0.0175879
0.0176627
0.0177174
0.0177453
0.0177527
0.0177471
0.0177336
0.0177168
0.0177013
0.0176895
0.0176833
0.0173343
0.0175605
0.0176461
0.0177089
0.0177453
0.0177542
0.0177437
0.017722
0.0176957
0.0176697
0.0176478
0.0176321
0.017624
0.0174782
0.0176021
0.0176847
0.0177346
0.0177527
0.0177437
0.0177175
0.0176833
0.0176477
0.0176152
0.0175889
0.0175705
0.0175612
0.0173122
0.0175602
0.0176462
0.0177141
0.0177477
0.0177472
0.017722
0.0176833
0.0176398
0.0175976
0.0175607
0.0175315
0.0175114
0.0175012
0.0174051
0.0175912
0.0176803
0.017734
0.0177502
0.0177336
0.0176957
0.0176477
0.0175976
0.017551
0.0175112
0.0174801
0.0174588
0.0174481
0.0175302
0.0176126
0.017701
0.0177443
0.0177457
0.0177168
0.0176698
0.0176152
0.0175607
0.0175112
0.0174694
0.0174371
0.0174152
0.0174041
0.0175806
0.017632
0.017715
0.0177487
0.0177391
0.0177013
0.0176478
0.0175889
0.0175315
0.0174801
0.0174371
0.017404
0.0173816
0.0173704
0.0172931
0.0175858
0.0176427
0.0177208
0.0177491
0.0177329
0.0176896
0.0176322
0.0175706
0.0175114
0.0174589
0.0174152
0.0173817
0.017359
0.0173477
0.0172998
0.0175919
0.0176488
0.0177227
0.0177484
0.0177292
0.0176833
0.0176241
0.0175612
0.0175012
0.0174481
0.0174041
0.0173704
0.0173477
0.0173362
0.0168596
0.0168671
0.0168597
0.0169195
0.0169863
0.0170324
0.0170416
0.0170494
0.0168776
0.0169787
0.017026
0.0170574
0.0170826
0.0171056
0.0171178
0.0171245
0.016912
0.017026
0.0170695
0.0171137
0.0171503
0.0171772
0.017198
0.0172098
0.0172152
0.0170131
0.0170516
0.0171102
0.017156
0.0171954
0.017227
0.0172497
0.0172652
0.0172738
0.0172775
0.0170132
0.0170592
0.0171286
0.0171839
0.0172261
0.0172585
0.0172804
0.0172935
0.0173009
0.0173043
0.0173055
0.016912
0.0170516
0.0171286
0.0171939
0.0172425
0.0172757
0.0172962
0.0173063
0.0173094
0.0173089
0.0173071
0.0173058
0.0168777
0.017026
0.0171102
0.0171839
0.0172425
0.0172815
0.0173027
0.0173104
0.0173092
0.0173033
0.0172962
0.0172902
0.0172868
0.0169788
0.0170696
0.0171561
0.0172262
0.0172757
0.0173027
0.0173113
0.0173074
0.0172966
0.0172835
0.0172712
0.017262
0.0172571
0.0168597
0.017026
0.0171137
0.0171955
0.0172585
0.0172962
0.0173105
0.0173074
0.0172939
0.0172757
0.0172572
0.0172412
0.0172296
0.0172236
0.0169195
0.0170574
0.0171503
0.017227
0.0172804
0.0173064
0.0173093
0.0172967
0.0172757
0.0172521
0.0172296
0.0172109
0.0171977
0.0171909
0.0169864
0.0170827
0.0171772
0.0172497
0.0172936
0.0173094
0.0173033
0.0172835
0.0172572
0.0172296
0.0172044
0.0171839
0.0171695
0.0171622
0.0170325
0.0171056
0.0171981
0.0172652
0.0173009
0.0173089
0.0172962
0.0172713
0.0172412
0.017211
0.0171839
0.0171622
0.017147
0.0171393
0.0168596
0.0170416
0.0171178
0.0172099
0.0172738
0.0173044
0.0173072
0.0172902
0.0172621
0.0172296
0.0171978
0.0171696
0.017147
0.0171315
0.0171235
0.0168672
0.0170495
0.0171246
0.0172153
0.0172776
0.0173056
0.0173059
0.0172869
0.0172572
0.0172236
0.0171909
0.0171622
0.0171393
0.0171235
0.0171155
0.0164694
0.0164775
0.0164661
0.0165054
0.0165373
0.0165758
0.0165856
0.0165933
0.0164794
0.0165566
0.0165779
0.0166056
0.0166292
0.016652
0.0166646
0.0166717
0.0165024
0.0165778
0.016618
0.0166582
0.0166926
0.0167195
0.0167417
0.0167556
0.0167625
0.0165598
0.0165994
0.0166533
0.0166987
0.0167396
0.0167746
0.016802
0.0168226
0.0168354
0.0168415
0.0165599
0.0166071
0.0166703
0.0167256
0.0167731
0.0168135
0.0168452
0.0168683
0.0168841
0.0168935
0.0168979
0.0165025
0.0165994
0.0166703
0.0167353
0.0167911
0.0168367
0.0168717
0.0168964
0.0169125
0.0169223
0.0169277
0.01693
0.0164795
0.0165778
0.0166533
0.0167256
0.0167911
0.0168445
0.0168841
0.0169108
0.0169269
0.0169355
0.0169396
0.0169411
0.0169415
0.0165566
0.016618
0.0166987
0.0167731
0.0168367
0.0168841
0.0169151
0.0169326
0.0169405
0.0169425
0.0169415
0.0169398
0.0169386
0.0164662
0.016578
0.0166583
0.0167396
0.0168135
0.0168717
0.0169108
0.0169326
0.0169417
0.0169425
0.016939
0.0169341
0.0169298
0.0169274
0.0165055
0.0166056
0.0166926
0.0167746
0.0168453
0.0168964
0.0169269
0.0169405
0.0169425
0.0169377
0.01693
0.0169221
0.0169159
0.0169126
0.0165374
0.0166293
0.0167195
0.016802
0.0168683
0.0169125
0.0169356
0.0169425
0.016939
0.01693
0.0169192
0.0169091
0.0169016
0.0168976
0.0165758
0.0166521
0.0167418
0.0168226
0.0168841
0.0169223
0.0169396
0.0169416
0.0169341
0.0169221
0.0169091
0.0168976
0.0168891
0.0168846
0.0164694
0.0165857
0.0166647
0.0167557
0.0168354
0.0168936
0.0169277
0.0169411
0.0169398
0.0169298
0.016916
0.0169016
0.0168891
0.01688
0.0168753
0.0164775
0.0165934
0.0166717
0.0167626
0.0168416
0.016898
0.0169301
0.0169415
0.0169386
0.0169274
0.0169126
0.0168976
0.0168846
0.0168753
0.0168704
0.016114
0.0161215
0.0161126
0.016139
0.0161504
0.0161812
0.0161903
0.016197
0.0161224
0.0161839
0.0161881
0.0162113
0.0162319
0.0162524
0.0162642
0.016271
0.0161391
0.0161881
0.0162232
0.0162585
0.0162891
0.0163137
0.0163347
0.0163486
0.0163557
0.0161694
0.0162059
0.0162534
0.0162952
0.0163337
0.0163679
0.0163959
0.0164178
0.0164322
0.0164393
0.0161695
0.0162129
0.0162683
0.0163195
0.0163663
0.0164084
0.0164437
0.0164713
0.0164914
0.0165042
0.0165105
0.0161391
0.0162059
0.0162683
0.0163283
0.0163839
0.0164335
0.0164752
0.0165077
0.0165315
0.0165479
0.0165579
0.0165626
0.0161225
0.0161881
0.0162534
0.0163195
0.0163839
0.0164421
0.0164906
0.0165281
0.0165552
0.0165737
0.0165855
0.0165924
0.0165956
0.0161839
0.0162233
0.0162952
0.0163663
0.0164335
0.0164906
0.0165347
0.016566
0.0165869
0.0165998
0.0166074
0.0166114
0.0166131
0.0161127
0.0161882
0.0162586
0.0163337
0.0164084
0.0164752
0.0165282
0.016566
0.0165908
0.0166057
0.0166138
0.0166177
0.0166193
0.0166197
0.0161391
0.0162114
0.0162891
0.0163679
0.0164438
0.0165077
0.0165553
0.0165869
0.0166057
0.0166155
0.0166196
0.0166205
0.0166202
0.0166198
0.0161504
0.0162319
0.0163137
0.0163959
0.0164713
0.0165315
0.0165737
0.0165998
0.0166138
0.0166196
0.0166206
0.0166193
0.0166175
0.0166164
0.0161813
0.0162525
0.0163348
0.0164179
0.0164915
0.0165479
0.0165856
0.0166074
0.0166177
0.0166205
0.0166193
0.0166165
0.0166137
0.0166121
0.0161139
0.0161903
0.0162643
0.0163487
0.0164323
0.0165043
0.0165579
0.0165925
0.0166114
0.0166193
0.0166202
0.0166176
0.0166137
0.0166103
0.0166083
0.0161215
0.0161971
0.016271
0.0163558
0.0164394
0.0165105
0.0165627
0.0165956
0.0166131
0.0166198
0.0166198
0.0166164
0.0166121
0.0166084
0.0166063
0.0157877
0.0157943
0.0157887
0.015807
0.0158057
0.0158303
0.015838
0.0158436
0.0157963
0.0158465
0.0158393
0.0158586
0.0158759
0.0158937
0.015904
0.01591
0.0158093
0.0158396
0.0158697
0.0159
0.0159265
0.015948
0.0159668
0.0159795
0.0159862
0.0158223
0.0158544
0.0158954
0.0159323
0.0159669
0.0159983
0.0160247
0.0160459
0.0160602
0.0160674
0.0158224
0.0158606
0.0159083
0.0159538
0.015997
0.0160372
0.0160724
0.016101
0.0161227
0.0161369
0.016144
0.0158093
0.0158545
0.0159083
0.0159616
0.0160133
0.016062
0.0161052
0.0161409
0.0161685
0.0161883
0.016201
0.0162072
0.0157964
0.0158396
0.0158954
0.0159538
0.0160133
0.0160706
0.0161217
0.0161643
0.0161974
0.0162218
0.0162387
0.0162492
0.0162542
0.0158466
0.0158697
0.0159323
0.015997
0.016062
0.0161218
0.016172
0.0162113
0.0162403
0.0162607
0.0162742
0.0162823
0.0162861
0.0157888
0.0158394
0.0159001
0.015967
0.0160373
0.0161052
0.0161643
0.0162113
0.0162462
0.0162707
0.0162871
0.0162975
0.0163035
0.0163063
0.015807
0.0158586
0.0159265
0.0159983
0.0160725
0.0161409
0.0161975
0.0162403
0.0162707
0.016291
0.016304
0.0163118
0.0163161
0.016318
0.0158057
0.015876
0.0159481
0.0160247
0.0161011
0.0161685
0.0162219
0.0162607
0.0162871
0.016304
0.0163142
0.0163199
0.0163229
0.0163241
0.0158303
0.0158937
0.0159669
0.016046
0.0161227
0.0161884
0.0162387
0.0162742
0.0162975
0.0163118
0.0163199
0.0163241
0.0163261
0.0163268
0.0157877
0.0158381
0.015904
0.0159796
0.0160603
0.016137
0.0162011
0.0162492
0.0162824
0.0163036
0.0163161
0.0163229
0.0163261
0.0163274
0.0163278
0.0157943
0.0158437
0.0159101
0.0159863
0.0160675
0.016144
0.0162073
0.0162542
0.0162862
0.0163063
0.016318
0.0163241
0.0163268
0.0163279
0.0163281
0.0154851
0.0154906
0.0154878
0.0155012
0.015491
0.0155108
0.0155171
0.0155217
0.0154939
0.0155357
0.0155205
0.0155364
0.015551
0.0155659
0.0155745
0.0155797
0.0155047
0.0155212
0.0155467
0.0155725
0.015595
0.0156135
0.0156297
0.0156408
0.0156467
0.0155061
0.0155339
0.0155688
0.0156007
0.0156308
0.0156585
0.0156822
0.0157016
0.0157149
0.0157217
0.0155062
0.0155393
0.01558
0.0156194
0.0156577
0.0156943
0.0157272
0.0157547
0.015776
0.0157903
0.0157975
0.0155047
0.0155339
0.01558
0.0156262
0.0156724
0.0157175
0.015759
0.0157947
0.0158233
0.0158445
0.0158584
0.0158653
0.015494
0.0155213
0.0155688
0.0156194
0.0156724
0.0157256
0.0157754
0.015819
0.0158545
0.0158819
0.0159015
0.015914
0.0159202
0.0155357
0.0155468
0.0156007
0.0156577
0.0157175
0.0157754
0.015827
0.0158698
0.0159033
0.0159282
0.0159455
0.0159564
0.0159616
0.0154879
0.0155205
0.0155725
0.0156309
0.0156943
0.0157591
0.015819
0.0158698
0.0159103
0.0159408
0.0159628
0.0159777
0.0159869
0.0159913
0.0155012
0.0155365
0.0155951
0.0156586
0.0157272
0.0157947
0.0158545
0.0159033
0.0159408
0.0159682
0.0159875
0.0160002
0.016008
0.0160116
0.015491
0.015551
0.0156135
0.0156823
0.0157547
0.0158233
0.0158819
0.0159282
0.0159628
0.0159875
0.0160044
0.0160154
0.0160219
0.016025
0.0155108
0.0155659
0.0156297
0.0157016
0.015776
0.0158445
0.0159015
0.0159455
0.0159777
0.0160002
0.0160154
0.0160251
0.0160307
0.0160333
0.015485
0.0155172
0.0155746
0.0156408
0.0157149
0.0157903
0.0158584
0.0159141
0.0159564
0.0159869
0.016008
0.0160219
0.0160307
0.0160358
0.0160381
0.0154906
0.0155218
0.0155798
0.0156468
0.0157218
0.0157976
0.0158653
0.0159202
0.0159617
0.0159913
0.0160116
0.016025
0.0160333
0.0160381
0.0160403
0.0152009
0.0152055
0.0152047
0.0152152
0.0151985
0.0152145
0.0152196
0.0152234
0.01521
0.0152453
0.0152243
0.0152376
0.0152496
0.015262
0.015269
0.0152734
0.0152194
0.0152257
0.0152472
0.0152689
0.0152878
0.0153032
0.0153168
0.0153261
0.0153312
0.0152129
0.0152368
0.0152663
0.0152934
0.015319
0.0153427
0.0153632
0.0153802
0.015392
0.0153981
0.015213
0.0152416
0.0152761
0.0153096
0.0153426
0.0153747
0.0154041
0.0154291
0.0154489
0.0154624
0.0154693
0.0152194
0.0152368
0.015276
0.0153155
0.0153555
0.0153956
0.0154336
0.0154672
0.0154949
0.0155159
0.0155299
0.0155368
0.0152101
0.0152258
0.0152664
0.0153096
0.0153555
0.015403
0.0154491
0.0154909
0.0155262
0.0155543
0.0155749
0.0155884
0.0155951
0.0152454
0.0152472
0.0152934
0.0153426
0.0153956
0.0154491
0.0154989
0.0155419
0.015577
0.015604
0.0156233
0.0156358
0.0156419
0.0152048
0.0152244
0.0152689
0.015319
0.0153747
0.0154337
0.0154909
0.0155419
0.0155845
0.015618
0.0156432
0.015661
0.0156722
0.0156777
0.0152153
0.0152377
0.0152878
0.0153428
0.0154041
0.0154673
0.0155262
0.015577
0.015618
0.0156497
0.0156729
0.015689
0.0156991
0.015704
0.0151986
0.0152497
0.0153032
0.0153633
0.0154292
0.0154949
0.0155543
0.015604
0.0156432
0.0156729
0.0156944
0.0157091
0.0157183
0.0157226
0.0152146
0.015262
0.0153168
0.0153803
0.015449
0.0155159
0.015575
0.0156234
0.015661
0.015689
0.0157091
0.0157228
0.0157312
0.0157352
0.0152008
0.0152197
0.0152691
0.0153262
0.015392
0.0154625
0.0155299
0.0155885
0.0156358
0.0156723
0.0156992
0.0157183
0.0157312
0.0157391
0.0157428
0.0152055
0.0152235
0.0152735
0.0153313
0.0153982
0.0154694
0.0155369
0.0155951
0.0156419
0.0156777
0.015704
0.0157227
0.0157352
0.0157429
0.0157465
0.0149308
0.0149348
0.0149357
0.0149448
0.014923
0.0149362
0.0149399
0.0149432
0.0149407
0.014971
0.0149459
0.0149569
0.0149667
0.0149767
0.0149822
0.0149859
0.0149492
0.0149481
0.014966
0.0149841
0.0149996
0.0150121
0.0150231
0.0150307
0.0150349
0.0149375
0.014958
0.0149828
0.0150053
0.0150265
0.0150463
0.0150634
0.0150776
0.0150876
0.0150929
0.0149376
0.0149623
0.0149914
0.0150194
0.015047
0.0150741
0.0150994
0.0151213
0.0151388
0.0151509
0.0151572
0.0149493
0.0149581
0.0149914
0.0150245
0.0150582
0.0150926
0.0151259
0.0151562
0.0151816
0.0152012
0.0152146
0.0152213
0.0149407
0.0149481
0.0149829
0.0150194
0.0150582
0.0150991
0.01514
0.0151782
0.0152115
0.0152387
0.0152591
0.0152726
0.0152794
0.0149711
0.0149661
0.0150053
0.015047
0.0150926
0.01514
0.0151858
0.0152268
0.0152613
0.0152886
0.0153087
0.0153218
0.0153283
0.0149357
0.014946
0.0149841
0.0150266
0.0150741
0.015126
0.0151782
0.0152268
0.0152689
0.0153033
0.0153298
0.015349
0.0153614
0.0153675
0.0149449
0.0149569
0.0149996
0.0150463
0.0150994
0.0151562
0.0152116
0.0152613
0.0153033
0.0153367
0.0153622
0.0153803
0.0153919
0.0153976
0.0149231
0.0149668
0.0150122
0.0150634
0.0151213
0.0151816
0.0152387
0.0152887
0.0153298
0.0153622
0.0153864
0.0154036
0.0154145
0.0154197
0.0149363
0.0149768
0.0150232
0.0150777
0.0151389
0.0152013
0.0152591
0.0153088
0.0153491
0.0153803
0.0154036
0.0154199
0.0154302
0.0154352
0.0149309
0.01494
0.0149823
0.0150308
0.0150877
0.015151
0.0152146
0.0152727
0.0153219
0.0153615
0.015392
0.0154145
0.0154302
0.0154402
0.015445
0.0149349
0.0149433
0.014986
0.015035
0.015093
0.0151573
0.0152213
0.0152794
0.0153284
0.0153676
0.0153976
0.0154198
0.0154352
0.015445
0.0154497
0.0146718
0.0146755
0.0146777
0.0146858
0.0146609
0.0146719
0.0146742
0.0146771
0.014683
0.0147096
0.0146817
0.0146906
0.0146983
0.0147062
0.0147102
0.0147133
0.0146912
0.0146849
0.0146997
0.0147143
0.0147266
0.0147363
0.0147448
0.0147505
0.0147539
0.0146768
0.0146941
0.0147146
0.0147327
0.0147496
0.0147652
0.0147788
0.0147902
0.0147983
0.0148026
0.0146768
0.0146981
0.0147223
0.0147449
0.014767
0.0147889
0.0148097
0.014828
0.0148428
0.0148533
0.0148587
0.0146912
0.0146942
0.0147223
0.0147493
0.0147766
0.0148048
0.0148329
0.0148589
0.0148813
0.0148989
0.014911
0.0149172
0.014683
0.014685
0.0147147
0.0147449
0.0147766
0.0148105
0.0148453
0.0148788
0.0149089
0.014934
0.0149532
0.0149662
0.0149727
0.0147096
0.0146997
0.0147327
0.0147671
0.0148049
0.0148453
0.0148857
0.0149232
0.0149557
0.014982
0.0150018
0.0150149
0.0150214
0.0146778
0.0146818
0.0147144
0.0147496
0.014789
0.0148329
0.0148788
0.0149232
0.014963
0.0149965
0.0150231
0.0150427
0.0150556
0.0150619
0.0146859
0.0146907
0.0147267
0.0147653
0.0148097
0.0148589
0.0149089
0.0149557
0.0149965
0.0150301
0.0150564
0.0150755
0.0150879
0.015094
0.0146611
0.0146984
0.0147364
0.0147789
0.014828
0.0148813
0.014934
0.0149821
0.0150231
0.0150564
0.015082
0.0151005
0.0151124
0.0151183
0.014672
0.0147064
0.0147449
0.0147903
0.0148429
0.014899
0.0149533
0.0150018
0.0150427
0.0150755
0.0151005
0.0151184
0.01513
0.0151356
0.0146719
0.0146744
0.0147104
0.0147506
0.0147984
0.0148533
0.0149111
0.0149662
0.015015
0.0150556
0.0150879
0.0151124
0.01513
0.0151412
0.0151467
0.0146756
0.0146773
0.0147135
0.014754
0.0148027
0.0148588
0.0149173
0.0149727
0.0150215
0.015062
0.015094
0.0151183
0.0151356
0.0151467
0.0151522
0.0144212
0.0144249
0.0144286
0.0144362
0.0144104
0.0144191
0.0144198
0.0144227
0.0144344
0.0144586
0.0144294
0.0144362
0.0144417
0.0144474
0.0144499
0.0144525
0.014443
0.0144338
0.0144454
0.0144568
0.0144659
0.0144725
0.0144783
0.0144822
0.0144848
0.014429
0.0144428
0.014459
0.0144725
0.0144849
0.0144963
0.0145062
0.0145146
0.0145206
0.014524
0.014429
0.0144464
0.0144658
0.0144829
0.0144994
0.0145159
0.0145318
0.0145462
0.0145581
0.0145667
0.0145712
0.014443
0.0144428
0.0144658
0.0144867
0.0145073
0.0145291
0.0145514
0.0145728
0.0145916
0.0146068
0.0146174
0.0146229
0.0144344
0.0144338
0.014459
0.0144829
0.0145074
0.0145338
0.014562
0.0145902
0.0146163
0.0146387
0.0146562
0.0146681
0.0146742
0.0144586
0.0144455
0.0144726
0.0144994
0.0145291
0.014562
0.0145963
0.0146293
0.0146588
0.0146834
0.0147022
0.0147148
0.0147211
0.0144287
0.0144294
0.0144568
0.014485
0.0145159
0.0145514
0.0145902
0.0146293
0.0146657
0.0146972
0.0147229
0.0147422
0.014755
0.0147614
0.0144363
0.0144363
0.014466
0.0144964
0.0145319
0.0145728
0.0146163
0.0146588
0.0146972
0.0147299
0.0147559
0.0147752
0.0147879
0.0147941
0.0144106
0.0144418
0.0144726
0.0145063
0.0145463
0.0145917
0.0146387
0.0146834
0.0147229
0.0147559
0.0147818
0.0148009
0.0148134
0.0148195
0.0144192
0.0144476
0.0144785
0.0145147
0.0145582
0.0146069
0.0146562
0.0147022
0.0147422
0.0147752
0.0148009
0.0148197
0.0148319
0.014838
0.0144214
0.01442
0.0144501
0.0144824
0.0145208
0.0145667
0.0146175
0.0146682
0.0147148
0.014755
0.0147879
0.0148134
0.0148319
0.014844
0.0148499
0.0144251
0.0144229
0.0144527
0.014485
0.0145242
0.0145713
0.014623
0.0146743
0.0147212
0.0147614
0.0147942
0.0148196
0.014838
0.0148499
0.0148558
0.0141765
0.0141805
0.0141866
0.0141942
0.0141704
0.014176
0.0141749
0.0141781
0.0141931
0.0142163
0.0141873
0.0141918
0.0141947
0.0141977
0.0141987
0.014201
0.0142027
0.0141933
0.0142015
0.0142091
0.0142146
0.0142179
0.0142206
0.0142226
0.0142244
0.0141949
0.0142021
0.0142136
0.014222
0.0142294
0.0142363
0.0142422
0.0142474
0.0142514
0.0142538
0.0141949
0.0142055
0.0142195
0.0142305
0.0142407
0.0142514
0.0142624
0.0142727
0.0142816
0.0142882
0.0142918
0.0142027
0.0142021
0.0142195
0.0142336
0.014247
0.0142619
0.0142783
0.0142948
0.0143099
0.0143225
0.0143315
0.0143362
0.0141932
0.0141933
0.0142136
0.0142305
0.014247
0.0142657
0.014287
0.0143096
0.0143315
0.0143508
0.0143663
0.0143771
0.0143827
0.0142163
0.0142015
0.0142221
0.0142407
0.0142619
0.014287
0.0143148
0.014343
0.0143691
0.0143915
0.0144089
0.0144208
0.0144268
0.0141867
0.0141874
0.0142091
0.0142295
0.0142515
0.0142783
0.0143096
0.014343
0.0143754
0.0144045
0.0144287
0.0144472
0.0144597
0.0144659
0.0141944
0.0141919
0.0142147
0.0142363
0.0142624
0.0142948
0.0143315
0.0143691
0.0144045
0.0144354
0.0144606
0.0144796
0.0144923
0.0144986
0.0141706
0.0141948
0.014218
0.0142423
0.0142728
0.01431
0.0143509
0.0143915
0.0144287
0.0144606
0.0144863
0.0145054
0.0145181
0.0145243
0.0141762
0.0141978
0.0142208
0.0142475
0.0142817
0.0143226
0.0143664
0.014409
0.0144473
0.0144796
0.0145054
0.0145245
0.0145371
0.0145433
0.0141768
0.0141752
0.0141989
0.0142228
0.0142515
0.0142883
0.0143316
0.0143772
0.0144209
0.0144597
0.0144923
0.0145181
0.0145371
0.0145496
0.0145557
0.0141808
0.0141783
0.0142012
0.0142246
0.014254
0.0142919
0.0143363
0.0143827
0.0144269
0.014466
0.0144986
0.0145244
0.0145433
0.0145557
0.0145619
0.013934
0.0139389
0.0139487
0.0139582
0.0139418
0.0139415
0.0139382
0.0139423
0.0139563
0.0139812
0.0139551
0.013956
0.0139552
0.0139542
0.0139536
0.013956
0.0139685
0.0139628
0.0139661
0.0139687
0.0139696
0.0139688
0.0139679
0.0139678
0.013969
0.0139853
0.0139702
0.0139757
0.0139778
0.0139793
0.013981
0.0139827
0.0139847
0.0139866
0.0139882
0.0139853
0.0139729
0.0139796
0.0139837
0.0139868
0.0139915
0.0139974
0.0140037
0.0140097
0.0140145
0.0140173
0.0139685
0.0139702
0.0139795
0.0139858
0.0139913
0.0139991
0.0140096
0.0140214
0.0140331
0.0140433
0.0140508
0.0140548
0.0139563
0.0139628
0.0139757
0.0139837
0.0139913
0.0140019
0.0140165
0.0140338
0.0140517
0.0140682
0.0140818
0.0140915
0.0140965
0.0139813
0.0139661
0.0139778
0.0139868
0.0139991
0.0140165
0.0140382
0.0140618
0.0140847
0.0141049
0.014121
0.0141321
0.0141378
0.0139488
0.0139552
0.0139687
0.0139793
0.0139915
0.0140096
0.0140338
0.0140618
0.0140904
0.014117
0.0141397
0.0141573
0.0141693
0.0141754
0.0139584
0.0139561
0.0139697
0.0139811
0.0139974
0.0140215
0.0140517
0.0140847
0.014117
0.0141461
0.0141703
0.0141888
0.0142012
0.0142075
0.013942
0.0139553
0.0139689
0.0139828
0.0140038
0.0140332
0.0140682
0.0141049
0.0141397
0.0141703
0.0141953
0.0142143
0.0142269
0.0142332
0.0139417
0.0139544
0.0139681
0.0139848
0.0140098
0.0140434
0.0140819
0.014121
0.0141574
0.0141888
0.0142143
0.0142334
0.0142461
0.0142524
0.0139343
0.0139385
0.0139539
0.013968
0.0139868
0.0140146
0.0140509
0.0140915
0.0141321
0.0141694
0.0142013
0.0142269
0.0142461
0.0142588
0.0142651
0.0139392
0.0139425
0.0139562
0.0139692
0.0139884
0.0140174
0.0140549
0.0140966
0.0141378
0.0141754
0.0142075
0.0142332
0.0142524
0.0142651
0.0142714
0.0136879
0.0136948
0.0137082
0.0137253
0.0137314
0.0137134
0.0137072
0.0137138
0.0137176
0.0137535
0.0137332
0.013727
0.0137207
0.0137132
0.0137105
0.0137132
0.0137387
0.0137421
0.0137368
0.0137314
0.0137256
0.0137196
0.0137148
0.0137127
0.0137135
0.0138268
0.0137499
0.0137404
0.0137341
0.0137288
0.0137248
0.0137223
0.0137214
0.0137216
0.0137227
0.0138267
0.0137553
0.0137424
0.0137364
0.0137319
0.0137306
0.0137319
0.0137349
0.0137386
0.0137421
0.0137442
0.0137387
0.0137499
0.0137424
0.0137375
0.0137343
0.0137355
0.0137409
0.013749
0.0137581
0.0137664
0.0137728