/*--------------------------------*- C++ -*----------------------------------*\
| =========                 |                                                 |
| \\      /  F ield         | OpenFOAM: The Open Source CFD Toolbox           |
|  \\    /   O peration     | Version:  2.1.1                                 |
|   \\  /    A nd           | Web:      www.OpenFOAM.org                      |
|    \\/     M anipulation  |                                                 |
\*---------------------------------------------------------------------------*/
FoamFile
{
    version     2.0;
    format      ascii;
    class       surfaceScalarField;
    location    "0.003";
    object      phi;
}
// * * * * * * * * * * * * * * * * * * * * * * * * * * * * * * * * * * * * * //

dimensions      [0 3 -1 0 0 0 0];

internalField   nonuniform List<scalar> 
29654
(
-3.40605e-14
-4.35702e-14
1.14549e-09
-4.38949e-14
-3.36701e-14
1.14559e-09
1.61537e-14
1.62984e-14
1.14817e-09
-1.14822e-09
3.35606e-14
1.74617e-14
1.14729e-09
-1.14733e-09
4.8396e-14
8.54273e-15
1.14618e-09
-1.14621e-09
4.65131e-14
1.52034e-14
1.14503e-09
-1.14505e-09
4.82345e-14
-1.12878e-14
1.14394e-09
-1.14393e-09
2.296e-14
1.08908e-14
1.14282e-09
-1.1428e-09
3.39986e-14
-4.38404e-14
1.1417e-09
-1.14166e-09
-1.77801e-14
2.30607e-14
1.14032e-09
-1.1403e-09
2.96014e-14
-8.16196e-14
1.13855e-09
-1.13851e-09
-1.01553e-13
1.07657e-13
1.1355e-09
-1.13548e-09
4.00407e-14
-1.65932e-13
1.13051e-09
-1.13048e-09
-1.8727e-13
2.26868e-13
1.12889e-09
-1.12888e-09
1.23544e-13
-3.15476e-13
1.12569e-09
-1.12569e-09
6.20174e-11
1.89245e-13
8.72744e-10
6.28597e-11
-6.20263e-11
-6.28704e-11
-8.72791e-10
1.43459e-11
-1.07297e-12
9.87615e-11
-5.00078e-11
1.80292e-14
3.39158e-14
1.14731e-09
-1.14735e-09
3.69731e-14
3.67388e-14
1.14676e-09
-1.1468e-09
5.19227e-14
1.8589e-14
1.14577e-09
-1.14579e-09
5.08279e-14
3.18532e-14
1.14469e-09
-1.14471e-09
5.14059e-14
-1.68265e-14
1.14361e-09
-1.1436e-09
2.41027e-14
3.00259e-14
1.14248e-09
-1.14247e-09
2.80112e-14
-7.7286e-14
1.14144e-09
-1.14141e-09
-2.77358e-14
5.94715e-14
1.14031e-09
-1.14029e-09
1.10577e-14
-1.47172e-13
1.1392e-09
-1.13917e-09
-1.29911e-13
2.39841e-13
1.13752e-09
-1.13751e-09
-2.41286e-16
-3.07029e-13
1.13489e-09
-1.13488e-09
-3.33544e-13
5.97557e-13
1.13708e-09
-1.13712e-09
8.13907e-15
-6.54135e-13
1.13972e-09
-1.13972e-09
6.4754e-11
2.63875e-15
8.79034e-10
6.611e-11
-6.46025e-11
-6.60189e-11
-8.7908e-10
9.46858e-13
1.41932e-11
1.50711e-12
9.65898e-11
-4.84822e-11
8.55157e-15
4.86397e-14
1.14619e-09
-1.14622e-09
1.85865e-14
5.17027e-14
1.14587e-09
-1.14589e-09
2.54989e-14
2.53984e-14
1.14509e-09
-1.1451e-09
2.32017e-14
3.92141e-14
1.14404e-09
-1.14404e-09
1.91809e-14
-2.50373e-14
1.14299e-09
-1.14298e-09
5.76829e-15
2.80373e-14
1.14192e-09
-1.14191e-09
2.93363e-15
-1.05614e-13
1.141e-09
-1.14097e-09
-1.0298e-14
5.24022e-14
1.14023e-09
-1.14021e-09
1.03671e-14
-1.94261e-13
1.13992e-09
-1.13989e-09
-1.64279e-14
2.52552e-13
1.13971e-09
-1.1397e-09
1.04508e-13
-4.34012e-13
1.14048e-09
-1.14047e-09
-2.53954e-14
7.28875e-13
1.15447e-09
-1.15446e-09
2.4319e-13
-8.93509e-13
1.18659e-09
-1.18662e-09
5.75133e-11
8.92001e-13
9.74946e-10
4.013e-11
-5.74597e-11
-4.07882e-11
-9.74987e-10
-4.36183e-12
8.45457e-12
1.00241e-12
1.11834e-10
-5.94152e-11
1.48505e-14
4.66497e-14
1.14504e-09
-1.14506e-09
3.16192e-14
5.07543e-14
1.14474e-09
-1.14475e-09
3.94755e-14
2.32832e-14
1.14414e-09
-1.14414e-09
3.95791e-14
3.94384e-14
1.14318e-09
-1.14317e-09
2.98897e-14
-3.1108e-14
1.14199e-09
-1.14197e-09
1.06644e-14
3.05452e-14
1.14084e-09
-1.14082e-09
2.88918e-15
-1.27465e-13
1.13992e-09
-1.13989e-09
-2.81079e-14
6.45063e-14
1.13926e-09
-1.13923e-09
-6.3268e-15
-2.42102e-13
1.13923e-09
-1.1392e-09
-9.22712e-14
3.35109e-13
1.13951e-09
-1.13951e-09
1.43017e-13
-6.63603e-13
1.14423e-09
-1.14423e-09
-9.8277e-13
1.88584e-12
1.1694e-09
-1.16943e-09
2.29067e-13
-2.09662e-12
1.16295e-09
-1.16296e-09
4.27234e-11
4.45097e-11
7.62196e-10
4.83461e-11
-4.23898e-11
-4.82432e-11
5.78491e-11
-4.49193e-11
-5.67007e-11
-7.62248e-10
7.70288e-12
-6.95369e-12
7.90501e-11
-3.70747e-11
-1.1499e-14
4.84424e-14
1.14395e-09
-1.14394e-09
-1.68456e-14
5.14638e-14
1.14362e-09
-1.14361e-09
-2.49816e-14
1.93089e-14
1.14302e-09
-1.14301e-09
-3.10655e-14
2.98257e-14
1.14207e-09
-1.14205e-09
-4.4303e-14
-4.41654e-14
1.14081e-09
-1.14078e-09
-4.00238e-14
8.23313e-16
1.1394e-09
-1.13938e-09
-6.39231e-14
-1.35034e-13
1.13811e-09
-1.13807e-09
-1.09666e-14
-8.93938e-15
1.13712e-09
-1.1371e-09
-6.21492e-14
-2.09423e-13
1.13658e-09
-1.13656e-09
3.56682e-13
-9.14723e-14
1.13678e-09
-1.13678e-09
-1.26416e-13
-1.68314e-13
1.14684e-09
-1.14685e-09
1.32036e-12
4.5384e-13
1.15656e-09
-1.15657e-09
4.66172e-11
7.61949e-13
9.01944e-10
5.50696e-11
-4.79613e-11
-5.52265e-11
-9.01978e-10
1.35232e-11
7.02913e-12
1.34815e-10
-6.42391e-11
-3.4345e-12
-6.50743e-12
2.02332e-11
-1.02913e-11
1.05267e-14
2.35685e-14
1.14282e-09
-1.14281e-09
2.99787e-14
2.37344e-14
1.14249e-09
-1.14248e-09
2.80232e-14
5.86062e-15
1.14194e-09
-1.14192e-09
3.04861e-14
1.06256e-14
1.14087e-09
-1.14085e-09
7.04372e-16
-3.98042e-14
1.13942e-09
-1.13939e-09
-1.05422e-14
-1.01398e-14
1.1377e-09
-1.13768e-09
-3.96824e-14
-1.29805e-13
1.1358e-09
-1.13577e-09
-1.85446e-14
-4.71983e-14
1.13397e-09
-1.13395e-09
-1.11135e-13
-1.46304e-13
1.13232e-09
-1.13229e-09
3.03259e-14
-2.18769e-13
1.13445e-09
-1.13446e-09
-1.0489e-12
9.21402e-13
1.15483e-09
-1.15484e-09
1.70911e-13
-7.31688e-13
1.13193e-09
-1.13196e-09
5.79701e-11
4.47492e-11
7.2235e-10
6.16495e-11
-5.75318e-11
-6.09078e-11
6.50527e-11
-4.53094e-11
-6.46812e-11
-7.22405e-10
-5.84023e-12
9.66722e-12
8.4261e-12
1.02941e-10
-5.72239e-11
-4.18908e-14
3.35808e-14
1.1417e-09
-1.14167e-09
-7.66297e-14
2.84194e-14
1.14145e-09
-1.14142e-09
-1.05361e-13
3.18204e-15
1.14103e-09
-1.14099e-09
-1.27421e-13
2.66663e-15
1.13996e-09
-1.13993e-09
-1.35233e-13
-6.40146e-14
1.13814e-09
-1.13811e-09
-1.29769e-13
-3.98495e-14
1.13586e-09
-1.13583e-09
-1.46526e-13
-1.36694e-13
1.13322e-09
-1.13319e-09
-2.04057e-13
-1.1805e-14
1.12995e-09
-1.12993e-09
1.1973e-13
-4.68353e-13
1.12769e-09
-1.12769e-09
-3.74111e-14
-6.64761e-14
1.13617e-09
-1.13616e-09
1.33997e-12
-4.18845e-13
1.14605e-09
-1.14609e-09
4.70242e-11
1.75839e-12
8.82342e-10
5.89522e-11
-4.81807e-11
-5.89466e-11
-8.8234e-10
1.4471e-11
6.97418e-12
1.25711e-10
-5.53825e-11
-1.14182e-11
-1.63082e-11
4.8996e-12
5.45701e-11
-3.17433e-11
2.28735e-14
-1.78096e-14
1.14033e-09
-1.1403e-09
5.96403e-14
-2.76673e-14
1.14033e-09
-1.14031e-09
5.22762e-14
-1.03858e-14
1.14026e-09
-1.14024e-09
6.39207e-14
-2.89711e-14
1.13931e-09
-1.13928e-09
-9.90652e-15
-1.3019e-14
1.13719e-09
-1.13716e-09
-4.52221e-14
-2.46535e-14
1.13406e-09
-1.13404e-09
-1.50256e-14
-1.86571e-13
1.13014e-09
-1.13012e-09
-1.83567e-14
-3.20011e-14
1.12505e-09
-1.12503e-09
8.54642e-14
-5.82272e-13
1.12357e-09
-1.12356e-09
-1.23248e-12
1.26577e-12
1.14379e-09
-1.1438e-09
1.67141e-13
-1.79044e-12
1.13626e-09
-1.13629e-09
5.84859e-11
4.38415e-11
7.46985e-10
6.28621e-11
-5.79637e-11
-6.19463e-11
5.8421e-11
-4.44605e-11
-5.72552e-11
-7.47043e-10
-5.53876e-12
1.13161e-11
4.4739e-12
1.0288e-10
-5.46461e-11
-8.11362e-14
2.96132e-14
1.13855e-09
-1.13852e-09
-1.46581e-13
1.0808e-14
1.13923e-09
-1.13919e-09
-1.9409e-13
1.00512e-14
1.13996e-09
-1.13993e-09
-2.44221e-13
-6.62324e-15
1.13929e-09
-1.13926e-09
-2.19853e-13
-6.13957e-14
1.13668e-09
-1.13666e-09
-1.71949e-13
-1.13008e-13
1.13246e-09
-1.13242e-09
-4.76613e-13
1.05941e-13
1.1279e-09
-1.12788e-09
-5.90079e-13
4.55055e-14
1.12395e-09
-1.12391e-09
-5.93289e-13
-6.00552e-13
1.12687e-09
-1.12685e-09
1.73763e-12
-1.01674e-12
1.13164e-09
-1.13169e-09
4.52787e-11
1.23395e-12
8.81241e-10
5.28464e-11
-4.6323e-11
-5.30356e-11
-8.81293e-10
1.4385e-11
-2.83015e-13
1.37683e-10
-6.26644e-11
-5.81698e-12
-1.14634e-11
3.43189e-11
-1.70385e-11
1.07726e-13
-1.01512e-13
1.1355e-09
-1.13548e-09
2.39702e-13
-1.30088e-13
1.13754e-09
-1.13753e-09
2.51908e-13
-1.6587e-14
1.13975e-09
-1.13973e-09
3.33387e-13
-9.32733e-14
1.13957e-09
-1.13956e-09
-9.31416e-14
3.51213e-13
1.1369e-09
-1.13688e-09
-2.31285e-13
2.47811e-14
1.13457e-09
-1.13457e-09
-9.64464e-14
-5.26891e-14
1.1364e-09
-1.13637e-09
1.06999e-12
-1.31853e-12
1.14418e-09
-1.14399e-09
-1.09036e-12
1.56233e-12
1.13219e-09
-1.13219e-09
-9.96083e-13
-1.0342e-12
1.12303e-09
-1.1231e-09
5.68146e-11
3.38656e-11
7.19579e-10
5.05834e-11
-5.63389e-11
-5.08214e-11
4.3344e-11
-3.48009e-11
-4.23371e-11
-7.19649e-10
6.94777e-12
1.23421e-11
-1.89174e-11
1.02172e-10
-4.57308e-11
-1.654e-13
3.98568e-14
1.1305e-09
-1.13047e-09
-3.06397e-13
-3.90764e-16
1.13493e-09
-1.13491e-09
-4.33353e-13
1.04292e-13
1.14049e-09
-1.14048e-09
-6.65782e-13
1.43401e-13
1.14426e-09
-1.14426e-09
-1.65753e-13
-1.42495e-13
1.14693e-09
-1.14693e-09
9.11009e-13
-1.04953e-12
1.15492e-09
-1.15492e-09
-4.37879e-13
1.31173e-12
1.1462e-09
-1.14622e-09
-1.93941e-12
1.52895e-13
1.1365e-09
-1.13647e-09
9.74538e-13
4.52754e-11
8.81714e-10
5.28494e-11
-4.63618e-11
-5.32019e-11
-8.81626e-10
3.37435e-11
5.68184e-11
7.20405e-10
4.3289e-11
-3.47244e-11
-4.23702e-11
5.06346e-11
-5.63704e-11
-5.08178e-11
-7.20666e-10
-1.06583e-11
-1.06651e-11
1.45938e-10
-5.70068e-11
2.2718e-13
-1.87395e-13
1.12888e-09
-1.12888e-09
5.97795e-13
-3.33452e-13
1.13711e-09
-1.13715e-09
7.28776e-13
-2.53372e-14
1.15446e-09
-1.15446e-09
1.88841e-12
-9.84188e-13
1.16941e-09
-1.16944e-09
4.51093e-13
1.31625e-12
1.15659e-09
-1.15661e-09
-7.29667e-13
1.70157e-13
1.13197e-09
-1.132e-09
1.74569e-12
4.70204e-11
8.82396e-10
5.8951e-11
-4.81776e-11
-5.89461e-11
-8.82406e-10
4.38362e-11
5.84838e-11
7.47044e-10
5.84336e-11
-4.44556e-11
-5.72445e-11
6.28624e-11
-5.79605e-11
-6.19448e-11
-7.47155e-10
-2.87837e-13
1.43784e-11
1.37708e-10
-6.26867e-11
6.95748e-12
-1.89294e-11
1.23294e-11
1.0228e-10
-4.58201e-11
-3.14896e-13
1.23625e-13
1.12568e-09
-1.12568e-09
-6.5331e-13
8.01163e-15
1.13972e-09
-1.13972e-09
-8.92763e-13
2.43419e-13
1.18657e-09
-1.1866e-09
-2.09523e-12
2.27291e-13
1.16295e-09
-1.16296e-09
7.61776e-13
4.66161e-11
9.0195e-10
5.50693e-11
-4.79607e-11
-5.52262e-11
-9.01986e-10
4.47526e-11
5.79695e-11
7.22352e-10
6.50537e-11
-4.53127e-11
-6.46825e-11
6.16494e-11
-5.75313e-11
-6.09077e-11
-7.22407e-10
6.97514e-12
1.44699e-11
1.25711e-10
-5.53825e-11
-5.54044e-12
4.47445e-12
1.13157e-11
1.02879e-10
-5.46461e-11
-1.14604e-11
-5.81873e-12
3.43215e-11
-1.70423e-11
1.89829e-13
6.20135e-11
8.72716e-10
6.28565e-11
-6.20223e-11
-6.2867e-11
-8.72763e-10
2.84219e-15
6.47529e-11
8.79013e-10
6.61102e-11
-6.46015e-11
-6.60189e-11
-8.79058e-10
8.92252e-13
5.75137e-11
9.74932e-10
4.01308e-11
-5.74598e-11
-4.0789e-11
-9.74973e-10
4.45105e-11
4.27231e-11
7.62196e-10
5.78493e-11
-4.49202e-11
-5.6701e-11
4.8346e-11
-4.23897e-11
-4.82433e-11
-7.62248e-10
7.02929e-12
1.35229e-11
1.34815e-10
-6.42392e-11
-5.84055e-12
8.42615e-12
9.6671e-12
1.02941e-10
-5.72239e-11
-1.63078e-11
-1.14183e-11
4.89956e-12
5.45699e-11
-3.17434e-11
-1.07365e-12
1.43448e-11
9.8748e-11
-4.99979e-11
9.47143e-13
1.50614e-12
1.41932e-11
9.65873e-11
-4.84803e-11
-4.36211e-12
1.00351e-12
8.45442e-12
1.11832e-10
-5.94128e-11
7.7013e-12
-6.95323e-12
7.90512e-11
-3.70751e-11
-6.50727e-12
-3.43466e-12
2.02333e-11
-1.02913e-11
5.61598e-14
5.67832e-14
1.14803e-09
1.08096e-13
5.61148e-14
1.14718e-09
1.50643e-13
4.32253e-14
1.14609e-09
1.67973e-13
4.70923e-14
1.14496e-09
1.78292e-13
1.71496e-14
1.14391e-09
1.5216e-13
3.62875e-14
1.14281e-09
1.51919e-13
-2.38434e-14
1.14173e-09
8.61901e-14
3.92287e-14
1.14035e-09
1.14246e-13
-8.07326e-14
1.1386e-09
-3.54206e-14
1.16875e-13
1.13553e-09
8.20726e-14
-1.60927e-13
1.13055e-09
-1.65372e-13
2.4465e-13
1.12888e-09
1.23207e-13
-3.06593e-13
1.12572e-09
6.20318e-11
1.91821e-13
8.72688e-10
6.28731e-11
-6.20379e-11
-6.2881e-11
-5.00165e-11
1.4351e-11
-1.07183e-12
9.87809e-11
5.61332e-14
1.0849e-13
1.14719e-09
1.10676e-13
1.10278e-13
1.14666e-09
1.51842e-13
8.56711e-14
1.14569e-09
1.69012e-13
9.36521e-14
1.14463e-09
1.76601e-13
3.59e-14
1.14358e-09
1.48233e-13
7.53487e-14
1.14248e-09
1.42477e-13
-4.17675e-14
1.14146e-09
7.05081e-14
8.81251e-14
1.14034e-09
9.23604e-14
-1.51609e-13
1.13925e-09
-7.30537e-14
2.57457e-13
1.13754e-09
2.8301e-14
-2.95687e-13
1.13493e-09
-3.46156e-13
6.17034e-13
1.13709e-09
1.21715e-14
-6.5745e-13
1.13971e-09
6.47687e-11
1.61671e-15
8.78993e-10
6.61229e-11
-6.46147e-11
-6.60325e-11
-4.8491e-11
9.46854e-13
1.41975e-11
1.5072e-12
9.66091e-11
4.28555e-14
1.50665e-13
1.1461e-09
8.56728e-14
1.51409e-13
1.14579e-09
1.17587e-13
1.17391e-13
1.14503e-09
1.32007e-13
1.23354e-13
1.144e-09
1.34472e-13
4.73167e-14
1.14298e-09
1.20576e-13
9.03918e-14
1.14193e-09
1.071e-13
-5.63501e-14
1.14104e-09
7.84412e-14
9.07275e-14
1.14026e-09
8.17586e-14
-2.03337e-13
1.13997e-09
4.15878e-14
2.70407e-13
1.13974e-09
1.38805e-13
-4.2021e-13
1.14051e-09
-1.72212e-14
7.58589e-13
1.15448e-09
2.44246e-13
-8.97034e-13
1.18657e-09
5.75229e-11
8.94507e-13
9.74907e-10
4.01398e-11
-5.74727e-11
-4.07949e-11
-5.9424e-11
-4.3623e-12
8.45577e-12
1.00124e-12
1.11854e-10
4.68415e-14
1.68033e-13
1.14497e-09
9.37468e-14
1.68917e-13
1.14468e-09
1.23904e-13
1.31993e-13
1.1441e-09
1.40016e-13
1.39688e-13
1.14315e-09
1.36253e-13
5.40775e-14
1.14199e-09
1.16273e-13
1.04728e-13
1.14085e-09
9.85456e-14
-6.99935e-14
1.13996e-09
5.15014e-14
1.11545e-13
1.13929e-09
6.16845e-14
-2.58034e-13
1.13928e-09
-4.58688e-14
3.6209e-13
1.13953e-09
1.64528e-13
-6.54346e-13
1.14426e-09
-9.6096e-13
1.92166e-12
1.16936e-09
2.34254e-13
-2.10042e-12
1.16296e-09
4.27317e-11
4.45213e-11
7.62155e-10
4.83568e-11
-4.23984e-11
-4.82518e-11
5.78584e-11
-4.49265e-11
-5.67147e-11
-3.70798e-11
7.70374e-12
-6.9551e-12
7.9064e-11
1.69217e-14
1.78379e-13
1.14391e-09
3.5934e-14
1.76607e-13
1.14359e-09
4.73471e-14
1.34394e-13
1.14301e-09
5.42197e-14
1.35917e-13
1.14207e-09
4.57043e-14
4.5618e-14
1.14083e-09
4.81347e-14
7.96889e-14
1.13943e-09
1.36849e-14
-7.42294e-14
1.13815e-09
5.16568e-14
4.09847e-14
1.13715e-09
-2.09948e-14
-2.20641e-13
1.13662e-09
3.86991e-13
-7.08691e-14
1.13681e-09
-1.28323e-13
-1.50725e-13
1.14685e-09
1.33954e-12
4.75045e-13
1.15654e-09
4.66291e-11
7.60727e-13
9.01912e-10
5.50834e-11
-4.79658e-11
-5.52321e-11
-6.42485e-11
1.35302e-11
7.03186e-12
1.34837e-10
-1.02934e-11
-3.43427e-12
-6.50968e-12
2.02374e-11
3.62435e-14
1.5231e-13
1.14281e-09
7.54075e-14
1.48156e-13
1.14248e-09
9.0458e-14
1.20544e-13
1.14194e-09
1.04833e-13
1.15955e-13
1.14088e-09
7.98816e-14
4.80753e-14
1.13944e-09
6.81638e-14
6.78779e-14
1.13773e-09
2.99345e-14
-7.37789e-14
1.13584e-09
4.1578e-14
2.67355e-15
1.134e-09
-6.81993e-14
-1.45375e-13
1.13236e-09
6.0649e-14
-1.96296e-13
1.13445e-09
-1.0452e-12
9.51703e-13
1.15483e-09
2.17959e-13
-7.31477e-13
1.13188e-09
5.79836e-11
4.47634e-11
7.22317e-10
6.16615e-11
-5.75411e-11
-6.09189e-11
6.50675e-11
-4.53121e-11
-6.46933e-11
-5.72303e-11
-5.84103e-12
9.67079e-12
8.42724e-12
1.02956e-10
-2.37515e-14
1.51947e-13
1.14173e-09
-4.14063e-14
1.4248e-13
1.14148e-09
-5.61493e-14
1.07039e-13
1.14106e-09
-7.00268e-14
9.80417e-14
1.13999e-09
-7.45892e-14
1.33561e-14
1.13819e-09
-7.43685e-14
2.87731e-14
1.1359e-09
-9.52667e-14
-9.46915e-14
1.13326e-09
-1.61405e-13
3.0531e-14
1.12999e-09
1.39278e-13
-4.55775e-13
1.1277e-09
-1.5542e-14
-5.6601e-14
1.13618e-09
1.38888e-12
-4.27424e-13
1.14603e-09
4.70347e-11
1.83241e-12
8.82314e-10
5.89627e-11
-4.81865e-11
-5.89594e-11
-5.53909e-11
1.44775e-11
6.9784e-12
1.25732e-10
-3.17468e-11
-1.14178e-11
-1.63139e-11
4.90027e-12
5.45782e-11
3.94279e-14
8.62343e-14
1.14035e-09
8.82789e-14
7.03849e-14
1.14036e-09
9.06705e-14
7.80821e-14
1.14029e-09
1.1124e-13
5.05956e-14
1.13934e-09
4.06229e-14
5.05156e-14
1.13722e-09
2.3323e-15
3.80335e-14
1.13409e-09
3.04448e-14
-1.63671e-13
1.13018e-09
2.24619e-14
1.10017e-14
1.12508e-09
1.19676e-13
-5.77647e-13
1.12359e-09
-1.25457e-12
1.34432e-12
1.14376e-09
1.33745e-13
-1.80023e-12
1.13625e-09
5.84991e-11
4.38537e-11
7.4695e-10
6.28751e-11
-5.7972e-11
-6.19582e-11
5.84324e-11
-4.44649e-11
-5.72662e-11
-5.46523e-11
-5.53914e-12
1.13191e-11
4.47512e-12
1.02896e-10
-8.02354e-14
1.14168e-13
1.13861e-09
-1.51098e-13
9.18912e-14
1.13927e-09
-2.03011e-13
8.12577e-14
1.14001e-09
-2.58457e-13
6.06536e-14
1.13934e-09
-2.22146e-13
-2.23911e-14
1.13672e-09
-1.48622e-13
-7.37959e-14
1.1325e-09
-4.61448e-13
1.29582e-13
1.12792e-09
-5.89852e-13
9.54387e-14
1.12399e-09
-6.00884e-13
-5.82943e-13
1.12688e-09
1.7608e-12
-1.01132e-12
1.13163e-09
4.52913e-11
1.2139e-12
8.8121e-10
5.28579e-11
-4.63269e-11
-5.3044e-11
-6.26725e-11
1.439e-11
-2.78458e-13
1.37706e-10
-1.70407e-11
-5.81746e-12
-1.14664e-11
3.43246e-11
1.17059e-13
-3.55769e-14
1.13553e-09
2.57481e-13
-7.33475e-14
1.13757e-09
2.70253e-13
4.12396e-14
1.13978e-09
3.60842e-13
-4.68044e-14
1.13959e-09
-7.17317e-14
3.83764e-13
1.13693e-09
-2.03448e-13
5.41295e-14
1.13458e-09
-6.69243e-14
-2.98763e-14
1.13642e-09
1.30533e-12
-1.27437e-12
1.14418e-09
-1.03184e-12
1.75853e-12
1.13219e-09
-1.0117e-12
-9.74126e-13
1.12297e-09
5.683e-11
3.38544e-11
7.19574e-10
5.06019e-11
-5.63466e-11
-5.08231e-11
4.3308e-11
-3.48227e-11
-4.23934e-11
-4.5734e-11
6.94686e-12
1.23445e-11
-1.8919e-11
1.0219e-10
-1.60329e-13
8.17979e-14
1.13054e-09
-2.95115e-13
2.80612e-14
1.13496e-09
-4.19639e-13
1.38229e-13
1.14053e-09
-6.54734e-13
1.63902e-13
1.14428e-09
-1.51092e-13
-1.30147e-13
1.14694e-09
9.44722e-13
-1.04766e-12
1.15493e-09
-4.31147e-13
1.3685e-12
1.14618e-09
-1.82206e-12
1.2892e-13
1.13649e-09
1.19142e-12
4.53099e-11
8.81699e-10
5.30008e-11
-4.63567e-11
-5.31922e-11
3.37745e-11
5.68459e-11
7.20314e-10
4.33435e-11
-3.47165e-11
-4.23337e-11
5.06128e-11
-5.63703e-11
-5.0846e-11
-5.70032e-11
-1.07195e-11
-1.06151e-11
1.45965e-10
2.45409e-13
-1.65629e-13
1.12887e-09
6.17516e-13
-3.46196e-13
1.13712e-09
7.58296e-13
-1.73163e-14
1.15448e-09
1.92195e-12
-9.61652e-13
1.16937e-09
4.7611e-13
1.3375e-12
1.15657e-09
-7.2765e-13
2.16315e-13
1.13191e-09
1.83114e-12
4.70311e-11
8.82355e-10
5.89617e-11
-4.81838e-11
-5.89601e-11
4.3832e-11
5.84977e-11
7.46996e-10
5.84326e-11
-4.44497e-11
-5.72545e-11
6.28757e-11
-5.79701e-11
-6.19579e-11
-6.26722e-11
-2.94219e-13
1.43833e-11
1.37725e-10
-4.57573e-11
6.88713e-12
-1.89189e-11
1.23542e-11
1.02279e-10
-3.0586e-13
1.2318e-13
1.1257e-09
-6.56636e-13
1.19063e-14
1.13971e-09
-8.962e-13
2.44361e-13
1.18655e-09
-2.09961e-12
2.34148e-13
1.16296e-09
7.60997e-13
4.66282e-11
9.01917e-10
5.50833e-11
-4.79652e-11
-5.5232e-11
4.47665e-11
5.79832e-11
7.22316e-10
6.50687e-11
-4.53151e-11
-6.46943e-11
6.16616e-11
-5.75407e-11
-6.09188e-11
-5.53906e-11
6.97864e-12
1.44765e-11
1.25732e-10
-5.46516e-11
-5.53984e-12
4.47427e-12
1.1319e-11
1.02896e-10
-1.70417e-11
-1.1469e-11
-5.81644e-12
3.43271e-11
1.92476e-13
6.20279e-11
8.72661e-10
6.28698e-11
-6.20339e-11
-6.28777e-11
1.8564e-15
6.47675e-11
8.78971e-10
6.6123e-11
-6.46137e-11
-6.60326e-11
8.9459e-13
5.75234e-11
9.74892e-10
4.01406e-11
-5.74728e-11
-4.07956e-11
4.45222e-11
4.27315e-11
7.62154e-10
5.78587e-11
-4.49273e-11
-5.67149e-11
4.83568e-11
-4.23983e-11
-4.82518e-11
-6.42484e-11
7.03201e-12
1.353e-11
1.34837e-10
-5.72302e-11
-5.84132e-12
8.42728e-12
9.67071e-12
1.02956e-10
-3.17468e-11
-1.63136e-11
-1.14179e-11
4.90029e-12
5.45779e-11
-5.00067e-11
-1.07249e-12
1.43499e-11
9.87674e-11
-4.84891e-11
9.47073e-13
1.50629e-12
1.41975e-11
9.66067e-11
-5.94216e-11
-4.36256e-12
1.00228e-12
8.45569e-12
1.11851e-10
-3.708e-11
7.7022e-12
-6.95462e-12
7.90651e-11
-1.02934e-11
-6.50954e-12
-3.43443e-12
2.02374e-11
1.18793e-13
1.1959e-13
1.14778e-09
2.21961e-13
1.14661e-13
1.14695e-09
3.02477e-13
9.66915e-14
1.1459e-09
3.4918e-13
9.57914e-14
1.14481e-09
3.71911e-13
5.85477e-14
1.14383e-09
3.4583e-13
7.13261e-14
1.14276e-09
3.30049e-13
3.74411e-15
1.14173e-09
2.47411e-13
6.17688e-14
1.14037e-09
2.41237e-13
-6.11786e-14
1.13866e-09
6.64046e-14
1.29049e-13
1.13557e-09
1.54095e-13
-1.55481e-13
1.13061e-09
-1.28684e-13
2.6744e-13
1.1289e-09
1.75658e-13
-3.1461e-13
1.12572e-09
6.20468e-11
2.01609e-13
8.72667e-10
6.28896e-11
-6.20493e-11
-6.28938e-11
-5.0028e-11
1.43529e-11
-1.07265e-12
9.88028e-11
1.14489e-13
2.22441e-13
1.14696e-09
2.19825e-13
2.19275e-13
1.14645e-09
2.99065e-13
1.8567e-13
1.14552e-09
3.43972e-13
1.8549e-13
1.1445e-09
3.62797e-13
1.13738e-13
1.14351e-09
3.35393e-13
1.43242e-13
1.14243e-09
3.15238e-13
1.09803e-14
1.14148e-09
2.23935e-13
1.32064e-13
1.14036e-09
2.12747e-13
-1.11986e-13
1.13931e-09
1.94476e-14
2.85555e-13
1.13758e-09
8.71143e-14
-2.84093e-13
1.13499e-09
-3.0234e-13
6.35035e-13
1.13711e-09
2.47043e-14
-6.56067e-13
1.13972e-09
6.47852e-11
1.05178e-14
8.78961e-10
6.61383e-11
-6.46275e-11
-6.60463e-11
-4.85009e-11
9.47293e-13
1.42013e-11
1.50767e-12
9.66304e-11
9.62611e-14
3.02675e-13
1.14592e-09
1.85875e-13
2.98646e-13
1.14562e-09
2.54092e-13
2.53741e-13
1.14489e-09
2.93887e-13
2.47848e-13
1.1439e-09
3.07361e-13
1.53931e-13
1.14293e-09
2.93791e-13
1.83555e-13
1.1419e-09
2.6444e-13
1.63751e-14
1.14106e-09
2.20006e-13
1.48599e-13
1.14029e-09
1.91998e-13
-1.46644e-13
1.14003e-09
1.34857e-13
3.00183e-13
1.13979e-09
1.99669e-13
-4.07259e-13
1.14057e-09
-2.00237e-15
8.40593e-13
1.15447e-09
2.46867e-13
-8.95038e-13
1.18656e-09
5.75373e-11
8.94712e-13
9.74872e-10
4.0152e-11
-5.74851e-11
-4.08014e-11
-5.94338e-11
-4.36268e-12
8.45846e-12
9.99236e-13
1.11876e-10
9.5837e-14
3.49309e-13
1.14483e-09
1.85814e-13
3.43814e-13
1.14455e-09
2.48569e-13
2.93599e-13
1.144e-09
2.88757e-13
2.88236e-13
1.14307e-09
2.95658e-13
1.81178e-13
1.14196e-09
2.75045e-13
2.16014e-13
1.14084e-09
2.43304e-13
1.56459e-14
1.13999e-09
1.77892e-13
1.82026e-13
1.13932e-09
1.61739e-13
-1.9478e-13
1.13934e-09
2.22931e-14
4.01559e-13
1.13957e-09
2.00283e-13
-6.4287e-13
1.14431e-09
-9.24474e-13
1.962e-12
1.16937e-09
2.29265e-13
-2.05213e-12
1.16297e-09
4.27404e-11
4.45334e-11
7.62114e-10
4.83678e-11
-4.24103e-11
-4.82628e-11
5.78674e-11
-4.49364e-11
-5.67334e-11
-3.70865e-11
7.70603e-12
-6.95851e-12
7.90803e-11
5.85788e-14
3.71996e-13
1.14383e-09
1.13784e-13
3.62565e-13
1.14352e-09
1.53971e-13
3.07037e-13
1.14296e-09
1.81585e-13
2.95141e-13
1.14203e-09
1.82016e-13
1.81706e-13
1.14083e-09
1.82338e-13
1.98312e-13
1.13945e-09
1.32768e-13
1.65612e-14
1.1382e-09
1.5011e-13
1.16151e-13
1.1372e-09
5.43818e-14
-1.71702e-13
1.13669e-09
4.37458e-13
-3.32084e-14
1.13686e-09
-1.02049e-13
-1.39294e-13
1.14689e-09
1.3582e-12
5.03881e-13
1.15654e-09
4.66424e-11
7.59037e-13
9.01926e-10
5.50995e-11
-4.79717e-11
-5.52388e-11
-6.42583e-11
1.35384e-11
7.03311e-12
1.34863e-10
-1.0296e-11
-3.43421e-12
-6.5127e-12
2.02429e-11
7.15382e-14
3.45985e-13
1.14276e-09
1.43466e-13
3.35203e-13
1.14244e-09
1.83816e-13
2.9365e-13
1.14191e-09
2.16391e-13
2.7461e-13
1.14087e-09
1.98763e-13
1.82099e-13
1.13946e-09
1.86123e-13
1.85534e-13
1.13775e-09
1.37447e-13
1.3246e-14
1.1359e-09
1.26748e-13
7.97615e-14
1.13404e-09
1.70203e-16
-1.00007e-13
1.13241e-09
1.07046e-13
-1.73907e-13
1.13448e-09
-1.04249e-12
9.89803e-13
1.15485e-09
2.20159e-13
-7.26991e-13
1.13184e-09
5.79964e-11
4.4779e-11
7.22279e-10
6.16738e-11
-5.75537e-11
-6.0934e-11
6.5082e-11
-4.53176e-11
-6.47099e-11
-5.72383e-11
-5.84237e-12
9.6738e-12
8.42822e-12
1.02975e-10
4.15978e-15
3.30077e-13
1.14174e-09
1.14405e-14
3.15018e-13
1.14149e-09
1.67052e-14
2.64245e-13
1.14108e-09
1.57247e-14
2.42737e-13
1.14003e-09
1.62679e-14
1.32354e-13
1.13823e-09
1.2755e-14
1.36178e-13
1.13596e-09
-1.98e-14
-1.93493e-14
1.13333e-09
-9.86515e-14
9.88566e-14
1.13004e-09
1.85695e-13
-4.3379e-13
1.12774e-09
1.89252e-14
-3.3651e-14
1.13621e-09
1.43663e-12
-4.27443e-13
1.14603e-09
4.70465e-11
1.86358e-12
8.82301e-10
5.89745e-11
-4.81924e-11
-5.89727e-11
-5.53997e-11
1.44841e-11
6.98476e-12
1.25757e-10
-3.17497e-11
-1.14185e-11
-1.63211e-11
4.90192e-12
5.45874e-11
6.21962e-14
2.47307e-13
1.14037e-09
1.32364e-13
2.23612e-13
1.14038e-09
1.48838e-13
2.19644e-13
1.14032e-09
1.82071e-13
1.77157e-13
1.13937e-09
1.16051e-13
1.49417e-13
1.13727e-09
7.94816e-14
1.24192e-13
1.13414e-09
9.89764e-14
-9.93334e-14
1.13024e-09
8.14644e-14
7.66751e-14
1.12511e-09
1.7091e-13
-5.70612e-13
1.12364e-09
-1.26097e-12
1.40225e-12
1.14376e-09
1.36628e-13
-1.80264e-12
1.13622e-09
5.85156e-11
4.38692e-11
7.4694e-10
6.28873e-11
-5.79839e-11
-6.19732e-11
5.84451e-11
-4.447e-11
-5.72804e-11
-5.46619e-11
-5.54151e-12
1.1324e-11
4.47755e-12
1.02917e-10
-6.0806e-14
2.41049e-13
1.13867e-09
-1.11682e-13
2.12313e-13
1.13933e-09
-1.46246e-13
1.91511e-13
1.14007e-09
-1.94458e-13
1.60618e-13
1.13941e-09
-1.71785e-13
5.33205e-14
1.13679e-09
-1.0325e-13
-2.47535e-15
1.13256e-09
-4.37253e-13
1.80062e-13
1.12797e-09
-5.77335e-13
1.60138e-13
1.12405e-09
-5.97942e-13
-5.92534e-13
1.12693e-09
1.79089e-12
-9.94472e-13
1.13164e-09
4.53048e-11
1.21496e-12
8.81198e-10
5.2869e-11
-4.63324e-11
-5.30559e-11
-6.26826e-11
1.43962e-11
-2.72348e-13
1.37732e-10
-1.70434e-11
-5.81743e-12
-1.14708e-11
3.43316e-11
1.29638e-13
6.61827e-14
1.13557e-09
2.86022e-13
1.92471e-14
1.13761e-09
3.0044e-13
1.34463e-13
1.13982e-09
4.01052e-13
2.13769e-14
1.13963e-09
-3.2071e-14
4.34891e-13
1.13698e-09
-1.69868e-13
1.01297e-13
1.13461e-09
-3.44138e-14
1.13869e-14
1.13646e-09
1.39724e-12
-1.26987e-12
1.14418e-09
-1.00455e-12
1.78935e-12
1.13221e-09
-9.73002e-13
-9.89987e-13
1.12294e-09
5.68377e-11
3.38774e-11
7.1952e-10
5.06027e-11
-5.6363e-11
-5.08443e-11
4.33632e-11
-3.48215e-11
-4.23609e-11
-4.5745e-11
6.94456e-12
1.23484e-11
-1.89224e-11
1.02212e-10
-1.54676e-13
1.53866e-13
1.1306e-09
-2.83423e-13
8.68274e-14
1.13502e-09
-4.06703e-13
1.98882e-13
1.14058e-09
-6.42845e-13
1.99292e-13
1.14434e-09
-1.39119e-13
-1.04274e-13
1.14697e-09
9.8555e-13
-1.04417e-12
1.15495e-09
-4.29873e-13
1.42611e-12
1.14618e-09
-1.80914e-12
1.333e-13
1.13646e-09
1.19708e-12
4.53319e-11
8.81696e-10
5.30202e-11
-4.63614e-11
-5.32041e-11
3.37641e-11
5.68619e-11
7.20295e-10
4.33138e-11
-3.47362e-11
-4.23796e-11
5.06277e-11
-5.6379e-11
-5.08518e-11
-5.70203e-11
-1.06633e-11
-1.06729e-11
1.45997e-10
2.68529e-13
-1.2906e-13
1.12889e-09
6.35649e-13
-3.02476e-13
1.13714e-09
8.40606e-13
-2.24086e-15
1.15447e-09
1.9619e-12
-9.25028e-13
1.16937e-09
5.04169e-13
1.35684e-12
1.15657e-09
-7.2621e-13
2.2033e-13
1.13187e-09
1.86244e-12
4.70433e-11
8.82335e-10
5.89741e-11
-4.81898e-11
-5.89734e-11
4.38479e-11
5.8514e-11
7.46984e-10
5.84392e-11
-4.4453e-11
-5.72716e-11
6.28876e-11
-5.79825e-11
-6.19734e-11
-6.26822e-11
-2.86753e-13
1.43962e-11
1.37752e-10
-4.57673e-11
6.88125e-12
-1.89155e-11
1.23592e-11
1.02304e-10
-3.13653e-13
1.75254e-13
1.12571e-09
-6.55177e-13
2.43872e-14
1.13972e-09
-8.94259e-13
2.46939e-13
1.18654e-09
-2.05213e-12
2.29182e-13
1.16297e-09
7.59063e-13
4.66415e-11
9.0193e-10
5.50994e-11
-4.79711e-11
-5.52388e-11
4.4782e-11
5.79961e-11
7.22279e-10
6.50833e-11
-4.53204e-11
-6.47107e-11
6.16738e-11
-5.75533e-11
-6.09339e-11
-5.53993e-11
6.98505e-12
1.44833e-11
1.25757e-10
-5.46607e-11
-5.54238e-12
4.47615e-12
1.13241e-11
1.02917e-10
-1.70444e-11
-1.14754e-11
-5.81483e-12
3.43347e-11
2.02379e-13
6.20429e-11
8.72639e-10
6.28863e-11
-6.20453e-11
-6.28906e-11
1.08138e-14
6.4784e-11
8.78941e-10
6.61384e-11
-6.46266e-11
-6.60463e-11
8.94774e-13
5.75378e-11
9.74858e-10
4.01529e-11
-5.74852e-11
-4.08022e-11
4.45342e-11
4.27402e-11
7.62112e-10
5.78676e-11
-4.49372e-11
-5.67335e-11
4.83678e-11
-4.24103e-11
-4.82627e-11
-6.42582e-11
7.03325e-12
1.35382e-11
1.34863e-10
-5.72381e-11
-5.84267e-12
8.4283e-12
9.67375e-12
1.02975e-10
-3.17496e-11
-1.63208e-11
-1.14186e-11
4.90192e-12
5.45871e-11
-5.00181e-11
-1.07323e-12
1.43518e-11
9.87894e-11
-4.84991e-11
9.47445e-13
1.50679e-12
1.42013e-11
9.66281e-11
-5.94316e-11
-4.3629e-12
1.00017e-12
8.45841e-12
1.11874e-10
-3.70867e-11
7.70454e-12
-6.95808e-12
7.90813e-11
-1.0296e-11
-6.51257e-12
-3.43437e-12
2.02429e-11
2.18597e-13
2.2047e-13
1.14734e-09
4.00521e-13
2.14714e-13
1.14654e-09
5.50783e-13
1.74985e-13
1.14557e-09
6.11592e-13
1.7376e-13
1.14458e-09
6.54934e-13
1.17083e-13
1.14366e-09
6.28201e-13
1.24031e-13
1.14265e-09
5.93009e-13
4.462e-14
1.14172e-09
4.81969e-13
1.02622e-13
1.14037e-09
4.3678e-13
-5.28689e-14
1.13875e-09
2.22646e-13
1.53518e-13
1.13562e-09
2.60235e-13
-1.49086e-13
1.13072e-09
-6.74452e-14
2.85937e-13
1.12893e-09
2.15126e-13
-3.18849e-13
1.12575e-09
6.20671e-11
2.11931e-13
8.72674e-10
6.29085e-11
-6.20633e-11
-6.29092e-11
-5.00388e-11
1.43593e-11
-1.07375e-12
9.88277e-11
2.14359e-13
4.01684e-13
1.14656e-09
3.95552e-13
3.94445e-13
1.14609e-09
5.41697e-13
3.30379e-13
1.14522e-09
5.98563e-13
3.28634e-13
1.14429e-09
6.38614e-13
2.25958e-13
1.14336e-09
6.09376e-13
2.43229e-13
1.14234e-09
5.69428e-13
8.76961e-14
1.14148e-09
4.50598e-13
2.13672e-13
1.14037e-09
4.0009e-13
-9.0572e-14
1.1394e-09
1.64644e-13
3.31714e-13
1.13764e-09
1.79537e-13
-2.69756e-13
1.13509e-09
-2.35569e-13
6.57149e-13
1.13715e-09
4.95435e-14
-6.45939e-13
1.13977e-09
6.48052e-11
2.03181e-14
8.78951e-10
6.61575e-11
-6.4642e-11
-6.60635e-11
-4.85128e-11
9.46805e-13
1.42066e-11
1.50868e-12
9.66566e-11
1.74416e-13
5.51654e-13
1.14558e-09
3.30949e-13
5.406e-13
1.14532e-09
4.52396e-13
4.51731e-13
1.14465e-09
5.29851e-13
4.40293e-13
1.14371e-09
5.60212e-13
3.09675e-13
1.14282e-09
5.47117e-13
3.19481e-13
1.14184e-09
4.99079e-13
1.2328e-13
1.14107e-09
4.32599e-13
2.40929e-13
1.14033e-09
3.63267e-13
-1.09939e-13
1.14012e-09
2.70261e-13
3.52285e-13
1.13986e-09
2.91739e-13
-3.90191e-13
1.14066e-09
3.75143e-14
8.83279e-13
1.15451e-09
2.57844e-13
-8.81349e-13
1.18658e-09
5.7553e-11
8.94625e-13
9.74846e-10
4.01661e-11
-5.75006e-11
-4.08094e-11
-5.94452e-11
-4.36285e-12
8.46092e-12
9.97531e-13
1.11903e-10
1.74435e-13
6.11873e-13
1.14459e-09
3.29268e-13
5.97983e-13
1.14433e-09
4.41779e-13
5.29251e-13
1.14381e-09
5.06319e-13
5.05548e-13
1.14294e-09
5.29203e-13
3.67789e-13
1.14188e-09
5.0857e-13
3.78786e-13
1.1408e-09
4.60319e-13
1.42491e-13
1.14002e-09
3.69301e-13
2.89863e-13
1.13936e-09
3.16164e-13
-1.53061e-13
1.13944e-09
1.32968e-13
4.67695e-13
1.13964e-09
2.7366e-13
-6.27723e-13
1.14441e-09
-8.78011e-13
2.01456e-12
1.16939e-09
2.26862e-13
-2.01082e-12
1.163e-09
4.27513e-11
4.45487e-11
7.62079e-10
4.83819e-11
-4.24227e-11
-4.82754e-11
5.78786e-11
-4.49477e-11
-5.67563e-11
-3.70952e-11
7.70752e-12
-6.9616e-12
7.91013e-11
1.17366e-13