/*--------------------------------*- C++ -*----------------------------------*\
| =========                 |                                                 |
| \\      /  F ield         | OpenFOAM: The Open Source CFD Toolbox           |
|  \\    /   O peration     | Version:  2.1.1                                 |
|   \\  /    A nd           | Web:      www.OpenFOAM.org                      |
|    \\/     M anipulation  |                                                 |
\*---------------------------------------------------------------------------*/
FoamFile
{
    version     2.0;
    format      ascii;
    class       volScalarField;
    location    "0.005";
    object      Th;
}
// * * * * * * * * * * * * * * * * * * * * * * * * * * * * * * * * * * * * * //

dimensions      [0 0 0 0 0 0 0];

internalField   nonuniform List<scalar> 
10154
(
5.28214e-13
1e-14
4.09059e-14
1.07023e-14
1.65842e-14
1.27639e-14
9.11705e-14
1.78054e-14
1.04058e-14
1.02091e-14
1e-14
1.00412e-14
1.00163e-14
4.03484e-13
2.30236e-14
1.03363e-14
1.00294e-14
1.00011e-14
1.00005e-14
1.00002e-14
1.00004e-14
1.00001e-14
1.14084e-13
1.22312e-14
1.00348e-14
1.00004e-14
1.00001e-14
1.00001e-14
1e-14
1.00001e-14
1.00001e-14
1.00001e-14
1.13344e-13
1.23486e-14
1.0005e-14
1.00002e-14
1e-14
1e-14
1e-14
1e-14
1e-14
1.00001e-14
1.00002e-14
4.03515e-13
1.22254e-14
1.0005e-14
1.00001e-14
1e-14
1e-14
1e-14
1.00001e-14
1e-14
1e-14
1e-14
1.00002e-14
2.30383e-14
1.00349e-14
1.00002e-14
1e-14
1e-14
1e-14
1.00001e-14
1e-14
1e-14
1e-14
1e-14
1.00002e-14
9.11534e-14
1.03362e-14
1.00005e-14
1e-14
1e-14
1e-14
1e-14
1e-14
1e-14
1e-14
1e-14
1e-14
1.00003e-14
1.78047e-14
1.00293e-14
1.00001e-14
1.00001e-14
1e-14
1e-14
1e-14
1e-14
1.00001e-14
1.00001e-14
1.00001e-14
1e-14
1.00001e-14
1e-14
1.04057e-14
1.00011e-14
1.00001e-14
1e-14
1.00001e-14
1e-14
1e-14
1.00001e-14
1.00001e-14
1.00002e-14
1.00001e-14
1.00001e-14
1e-14
4.09063e-14
1.02091e-14
1.00006e-14
1e-14
1e-14
1e-14
1e-14
1e-14
1.00001e-14
1.00002e-14
1.00001e-14
1.00001e-14
1.00001e-14
1.00001e-14
1.07023e-14
1e-14
1.00002e-14
1.00001e-14
1e-14
1e-14
1e-14
1e-14
1.00001e-14
1.00001e-14
1.00001e-14
1.00001e-14
1e-14
1.00002e-14
1.65837e-14
1.0041e-14
1.00004e-14
1.00001e-14
1e-14
1e-14
1e-14
1e-14
1e-14
1.00001e-14
1.00001e-14
1e-14
1e-14
1.00003e-14
5.28015e-13
1.27649e-14
1.00164e-14
1.00002e-14
1.00001e-14
1.00002e-14
1.00003e-14
1.00002e-14
1.00003e-14
1.00001e-14
1e-14
1.00001e-14
1.00002e-14
1.00003e-14
1.00004e-14
5.36883e-13
1e-14
3.87076e-14
1.06068e-14
1.60366e-14
1.24519e-14
8.94261e-14
1.74246e-14
1.03395e-14
1.01748e-14
1e-14
1.00228e-14
1.00083e-14
4.21681e-13
2.24195e-14
1.02947e-14
1.00176e-14
1.00004e-14
1.00002e-14
1.00001e-14
1.00002e-14
1.00001e-14
1.1477e-13
1.20897e-14
1.00205e-14
1e-14
1.00001e-14
1e-14
1e-14
1.00001e-14
1.00001e-14
1e-14
1.14022e-13
1.21983e-14
1.00011e-14
1.00001e-14
1e-14
1e-14
1e-14
1e-14
1e-14
1e-14
1.00001e-14
4.21684e-13
1.20835e-14
1.00011e-14
1.00001e-14
1e-14
1e-14
1.00001e-14
1e-14
1e-14
1e-14
1e-14
1.00002e-14
2.24239e-14
1.00206e-14
1.00001e-14
1e-14
1e-14
1e-14
1e-14
1e-14
1e-14
1e-14
1e-14
1.00001e-14
8.94157e-14
1.02947e-14
1e-14
1e-14
1e-14
1e-14
1e-14
1.00001e-14
1e-14
1e-14
1e-14
1e-14
1.00001e-14
1.74237e-14
1.00176e-14
1.00001e-14
1e-14
1.00001e-14
1e-14
1.00001e-14
1.00001e-14
1.00001e-14
1.00001e-14
1.00001e-14
1e-14
1e-14
1e-14
1.03394e-14
1.00004e-14
1e-14
1e-14
1e-14
1e-14
1e-14
1.00001e-14
1.00001e-14
1.00001e-14
1.00001e-14
1e-14
1e-14
3.87067e-14
1.01748e-14
1.00002e-14
1e-14
1e-14
1e-14
1e-14
1e-14
1.00001e-14
1.00001e-14
1.00001e-14
1.00001e-14
1.00001e-14
1.00001e-14
1.06065e-14
1e-14
1.00001e-14
1.00001e-14
1e-14
1e-14
1e-14
1e-14
1.00001e-14
1.00001e-14
1.00001e-14
1.00001e-14
1.00001e-14
1.00001e-14
1.60367e-14
1.00227e-14
1.00002e-14
1.00001e-14
1e-14
1e-14
1e-14
1e-14
1e-14
1e-14
1.00001e-14
1.00001e-14
1.00001e-14
1.00002e-14
5.36703e-13
1.24533e-14
1.00084e-14
1.00001e-14
1e-14
1.00001e-14
1.00002e-14
1.00001e-14
1.00001e-14
1e-14
1e-14
1.00001e-14
1.00001e-14
1.00002e-14
1.00003e-14
5.37503e-13
1e-14
3.88114e-14
1.06144e-14
1.5872e-14
1.23796e-14
9.05736e-14
1.73041e-14
1.03242e-14
1.01621e-14
1e-14
1.00056e-14
1.00014e-14
4.22091e-13
2.21037e-14
1.02816e-14
1.00102e-14
1e-14
1e-14
1.00001e-14
1.00002e-14
1.00001e-14
1.16589e-13
1.20573e-14
1.00141e-14
1e-14
1e-14
1e-14
1e-14
1.00001e-14
1.00001e-14
1e-14
1.15838e-13
1.21545e-14
1e-14
1.00001e-14
1e-14
1e-14
1e-14
1e-14
1e-14
1.00001e-14
1.00001e-14
4.22089e-13
1.20509e-14
1e-14
1.00001e-14
1e-14
1e-14
1e-14
1e-14
1e-14
1e-14
1e-14
1.00001e-14
2.21026e-14
1.00141e-14
1.00001e-14
1e-14
1e-14
1e-14
1.00001e-14
1e-14
1e-14
1e-14
1e-14
1e-14
9.05652e-14
1.02814e-14
1e-14
1e-14
1e-14
1e-14
1.00001e-14
1.00001e-14
1e-14
1e-14
1e-14
1.00001e-14
1.00001e-14
1.73033e-14
1.00102e-14
1e-14
1e-14
1e-14
1.00001e-14
1.00001e-14
1e-14
1e-14
1e-14
1e-14
1e-14
1e-14
1e-14
1.03242e-14
1e-14
1e-14
1e-14
1e-14
1e-14
1e-14
1e-14
1.00001e-14
1e-14
1e-14
1.00001e-14
1e-14
3.88104e-14
1.01621e-14
1e-14
1e-14
1e-14
1e-14
1e-14
1e-14
1e-14
1e-14
1.00001e-14
1.00001e-14
1.00001e-14
1e-14
1.06142e-14
1e-14
1.00001e-14
1.00001e-14
1e-14
1e-14
1e-14
1e-14
1e-14
1e-14
1.00001e-14
1.00001e-14
1e-14
1.00001e-14
1.58724e-14
1.00056e-14
1.00002e-14
1.00001e-14
1.00001e-14
1e-14
1e-14
1.00001e-14
1e-14
1.00001e-14
1.00001e-14
1e-14
1.00001e-14
1.00001e-14
5.37332e-13
1.23811e-14
1.00013e-14
1.00001e-14
1.00001e-14
1.00001e-14
1.00001e-14
1e-14
1.00001e-14
1e-14
1e-14
1e-14
1.00001e-14
1.00001e-14
1.00002e-14
5.37206e-13
1e-14
3.8924e-14
1.06245e-14
1.56901e-14
1.21727e-14
9.0814e-14
1.71449e-14
1.0304e-14
1.0155e-14
1e-14
1e-14
1e-14
4.22421e-13
2.20732e-14
1.02727e-14
1.00001e-14
1e-14
1e-14
1.00001e-14
1.00001e-14
1e-14
1.16937e-13
1.2068e-14
1.00018e-14
1e-14
1e-14
1e-14
1e-14
1e-14
1.00001e-14
1e-14
1.16183e-13
1.21516e-14
1e-14
1e-14
1e-14
1e-14
1e-14
1e-14
1e-14
1.00001e-14
1e-14
4.2243e-13
1.20613e-14
1e-14
1.00001e-14
1e-14
1e-14
1e-14
1e-14
1e-14
1e-14
1e-14
1.00001e-14
2.207e-14
1.00017e-14
1e-14
1e-14
1.00001e-14
1e-14
1e-14
1e-14
1e-14
1e-14
1e-14
1e-14
9.08059e-14
1.02725e-14
1e-14
1e-14
1e-14
1e-14
1.00001e-14
1e-14
1e-14
1e-14
1e-14
1.00001e-14
1.00001e-14
1.71441e-14
1.00001e-14
1e-14
1e-14
1e-14
1e-14
1e-14
1e-14
1e-14
1e-14
1e-14
1e-14
1.00001e-14
1e-14
1.03039e-14
1e-14
1e-14
1e-14
1e-14
1e-14
1e-14
1e-14
1e-14
1e-14
1e-14
1e-14
1e-14
3.89236e-14
1.0155e-14
1e-14
1e-14
1e-14
1e-14
1e-14
1e-14
1e-14
1e-14
1e-14
1.00001e-14
1e-14
1e-14
1.06244e-14
1e-14
1.00001e-14
1e-14
1e-14
1e-14
1e-14
1e-14
1e-14
1e-14
1.00001e-14
1e-14
1e-14
1e-14
1.56901e-14
1e-14
1.00001e-14
1.00001e-14
1.00001e-14
1e-14
1e-14
1.00001e-14
1e-14
1e-14
1e-14
1e-14
1e-14
1.00001e-14
5.37034e-13
1.2175e-14
1e-14
1e-14
1e-14
1e-14
1.00001e-14
1e-14
1.00001e-14
1.00001e-14
1e-14
1e-14
1e-14
1.00001e-14
1e-14
5.35777e-13
1e-14
3.91395e-14
1.06303e-14
1.6301e-14
1.26992e-14
9.08697e-14
1.75923e-14
1.03688e-14
1.01602e-14
1e-14
1e-14
1e-14
4.22644e-13
2.18964e-14
1.02654e-14
1e-14
1e-14
1e-14
1.00001e-14
1e-14
1.00001e-14
1.16958e-13
1.20054e-14
1e-14
1e-14
1e-14
1e-14
1e-14
1e-14
1.00001e-14
1.00001e-14
1.16197e-13
1.21161e-14
1e-14
1e-14
1e-14
1e-14
1e-14
1e-14
1e-14
1e-14
1e-14
4.22654e-13
1.19984e-14
1e-14
1.00001e-14
1e-14
1e-14
1e-14
1e-14
1e-14
1e-14
1e-14
1.00001e-14
2.18927e-14
1e-14
1e-14
1e-14
1e-14
1e-14
1e-14
1e-14
1e-14
1e-14
1e-14
1.00001e-14
9.08604e-14
1.02651e-14
1e-14
1e-14
1e-14
1e-14
1e-14
1e-14
1e-14
1e-14
1e-14
1.00001e-14
1.00002e-14
1.75912e-14
1e-14
1e-14
1e-14
1e-14
1e-14
1e-14
1e-14
1e-14
1e-14
1e-14
1.00001e-14
1.00001e-14
1e-14
1.03688e-14
1e-14
1e-14
1e-14
1e-14
1e-14
1e-14
1e-14
1e-14
1e-14
1e-14
1e-14
1.00001e-14
3.91392e-14
1.01602e-14
1e-14
1e-14
1e-14
1e-14
1e-14
1e-14
1e-14
1e-14
1e-14
1e-14
1e-14
1.00001e-14
1.063e-14
1e-14
1.00001e-14
1e-14
1e-14
1e-14
1e-14
1e-14
1e-14
1e-14
1e-14
1e-14
1e-14
1e-14
1.63025e-14
1e-14
1e-14
1.00001e-14
1e-14
1e-14
1e-14
1.00001e-14
1.00001e-14
1e-14
1e-14
1e-14
1.00001e-14
1e-14
5.3561e-13
1.27006e-14
1e-14
1.00001e-14
1.00001e-14
1e-14
1.00001e-14
1.00001e-14
1.00002e-14
1.00001e-14
1.00001e-14
1.00001e-14
1.00001e-14
1e-14
1e-14
5.30559e-13
1e-14
4.01121e-14
1.06356e-14
1.48593e-14
1.14423e-14
9.09489e-14
1.61815e-14
1.02027e-14
1.01322e-14
1e-14
1e-14
1e-14
4.21921e-13
2.154e-14
1.02434e-14
1e-14
1e-14
1e-14
1.00001e-14
1e-14
1.00001e-14
1.1744e-13
1.22184e-14
1e-14
1e-14
1e-14
1e-14
1e-14
1e-14
1e-14
1.00001e-14
1.16671e-13
1.22193e-14
1e-14
1e-14
1e-14
1e-14
1e-14
1e-14
1e-14
1e-14
1e-14
4.21928e-13
1.22113e-14
1e-14
1e-14
1e-14
1e-14
1e-14
1e-14
1e-14
1e-14
1e-14
1.00001e-14
2.15351e-14
1e-14
1e-14
1e-14
1e-14
1e-14
1e-14
1e-14
1e-14
1e-14
1.00001e-14
1.00001e-14
9.09418e-14
1.02431e-14
1e-14
1e-14
1e-14
1e-14
1e-14
1.00001e-14
1e-14
1e-14
1e-14
1.00001e-14
1.00001e-14
1.61808e-14
1e-14
1e-14
1e-14
1e-14
1e-14
1.00001e-14
1.00001e-14
1e-14
1e-14
1e-14
1e-14
1.00001e-14
1e-14
1.02025e-14
1e-14
1e-14
1e-14
1e-14
1e-14
1e-14
1e-14
1e-14
1e-14
1e-14
1e-14
1e-14
4.0112e-14
1.01322e-14
1e-14
1e-14
1e-14
1e-14
1e-14
1e-14
1e-14
1e-14
1e-14
1e-14
1e-14
1.00001e-14
1.06352e-14
1e-14
1.00001e-14
1e-14
1e-14
1e-14
1e-14
1e-14
1e-14
1e-14
1e-14
1e-14
1e-14
1e-14
1.48578e-14
1e-14
1e-14
1e-14
1e-14
1e-14
1.00001e-14
1.00001e-14
1e-14
1e-14
1e-14
1e-14
1e-14
1e-14
5.30403e-13
1.14479e-14
1e-14
1.00001e-14
1.00001e-14
1e-14
1.00001e-14
1.00001e-14
1.00001e-14
1.00001e-14
1e-14
1.00001e-14
1e-14
1e-14
1e-14
4.99134e-13
1e-14
4.59203e-14
1e-14
2.03662e-14
1.51408e-14
9.28233e-14
2.08812e-14
1.06958e-14
1.02054e-14
1e-14
1e-14
1e-14
4.19651e-13
2.41333e-14
1.02277e-14
1e-14
1e-14
1e-14
1.00001e-14
1e-14
1e-14
1.30514e-13
1.18222e-14
1e-14
1e-14
1e-14
1e-14
1e-14
1e-14
1e-14
1.00001e-14
1.29761e-13
1.19261e-14
1e-14
1e-14
1e-14
1e-14
1e-14
1e-14
1e-14
1e-14
1e-14
4.19658e-13
1.18101e-14
1e-14
1e-14
1e-14
1e-14
1e-14
1e-14
1e-14
1e-14
1e-14
1.00001e-14
2.41298e-14
1e-14
1e-14
1e-14
1e-14
1e-14
1e-14
1e-14
1e-14
1e-14
1e-14
1.00001e-14
9.28189e-14
1.02269e-14
1e-14
1e-14
1e-14
1e-14
1.00001e-14
1e-14
1e-14
1e-14
1e-14
1.00001e-14
1.00001e-14
2.08799e-14
1e-14
1e-14
1e-14
1e-14
1e-14
1e-14
1e-14
1e-14
1e-14
1e-14
1.00001e-14
1e-14
1e-14
1.06959e-14
1e-14
1e-14
1e-14
1e-14
1e-14
1e-14
1e-14
1e-14
1e-14
1e-14
1e-14
1e-14
4.59214e-14
1.02054e-14
1e-14
1e-14
1e-14
1e-14
1e-14
1e-14
1e-14
1e-14
1e-14
1e-14
1e-14
1e-14
1e-14
1e-14
1.00001e-14
1e-14
1e-14
1e-14
1e-14
1e-14
1e-14
1e-14
1e-14
1e-14
1e-14
1e-14
2.03805e-14
1e-14
1e-14
1e-14
1e-14
1e-14
1e-14
1.00001e-14
1.00001e-14
1e-14
1e-14
1e-14
1e-14
1e-14
4.98946e-13
1.51413e-14
1e-14
1e-14
1.00001e-14
1e-14
1.00001e-14
1.00001e-14
1.00001e-14
1e-14
1e-14
1e-14
1e-14
1e-14
1.00001e-14
1.02844e-13
4.51014e-14
1.83107e-14
1e-14
1.34507e-14
1.22431e-14
4.01193e-14
1.26959e-14
1.02716e-14
1.00726e-14
1e-14
1e-14
1e-14
6.44905e-14
1.36372e-14
1.00441e-14
1e-14
1e-14
1e-14
1e-14
1e-14
1e-14
3.95463e-14
1.04583e-14
1e-14
1e-14
1e-14
1e-14
1e-14
1e-14
1e-14
1e-14
3.9373e-14
1.05068e-14
1e-14
1e-14
1e-14
1e-14
1e-14
1e-14
1e-14
1e-14
1e-14
6.45119e-14
1.04551e-14
1e-14
1e-14
1e-14
1e-14
1e-14
1e-14
1e-14
1e-14
1e-14
1.00001e-14
1.36361e-14
1e-14
1e-14
1e-14
1e-14
1e-14
1e-14
1e-14
1e-14
1e-14
1e-14
1.00001e-14
4.01197e-14
1.00436e-14
1e-14
1e-14
1e-14
1e-14
1e-14
1e-14
1e-14
1e-14
1e-14
1.00001e-14
1.00001e-14
1.26949e-14
1e-14
1e-14
1e-14
1e-14
1e-14
1e-14
1e-14
1e-14
1e-14
1e-14
1e-14
1e-14
4.50931e-14
1.02715e-14
1e-14
1e-14
1e-14
1e-14
1e-14
1e-14
1e-14
1e-14
1e-14
1e-14
1e-14
1e-14
1.83124e-14
1.00726e-14
1e-14
1e-14
1e-14
1e-14
1e-14
1e-14
1e-14
1e-14
1e-14
1e-14
1e-14
1e-14
1e-14
1e-14
1e-14
1e-14
1e-14
1e-14
1e-14
1e-14
1e-14
1e-14
1e-14
1e-14
1e-14
1e-14
1.34567e-14
1e-14
1e-14
1e-14
1e-14
1e-14
1e-14
1.00001e-14
1e-14
1e-14
1e-14
1e-14
1e-14
1e-14
1.0293e-13
1.22431e-14
1e-14
1e-14
1e-14
1e-14
1.00001e-14
1.00001e-14
1.00001e-14
1e-14
1e-14
1e-14
1e-14
1e-14
1e-14
1.00965e-14
1.37995e-14
1.00682e-14
1.03547e-14
1.01152e-14
1e-14
1.11879e-14
1.07932e-14
1.01941e-14
1.13403e-14
1.07538e-14
1.00952e-14
1.00218e-14
1e-14
1e-14
1e-14
1.07138e-14
1.10558e-14
1.00059e-14
1e-14
1e-14
1e-14
1e-14
1e-14
1e-14
1.10776e-14
1.00914e-14
1e-14
1e-14
1e-14
1e-14
1e-14
1e-14
1e-14
1e-14
1.1066e-14
1.01218e-14
1e-14
1e-14
1e-14
1e-14
1e-14
1e-14
1e-14
1e-14
1e-14
1.07145e-14
1.00907e-14
1e-14
1e-14
1e-14
1e-14
1e-14
1e-14
1e-14
1e-14
1e-14
1.00001e-14
1.01941e-14
1.10555e-14
1e-14
1e-14
1e-14
1e-14
1e-14
1e-14
1e-14
1e-14
1e-14
1e-14
1e-14
1.13404e-14
1.00057e-14
1e-14
1e-14
1e-14
1e-14
1e-14
1e-14
1e-14
1e-14
1e-14
1e-14
1e-14
1.00682e-14
1.07534e-14
1e-14
1e-14
1e-14
1e-14
1e-14
1e-14
1e-14
1e-14
1e-14
1e-14
1e-14
1e-14
1.0354e-14
1.00951e-14
1e-14
1e-14
1e-14
1e-14
1e-14
1e-14
1e-14
1e-14
1e-14
1e-14
1e-14
1e-14
1.01152e-14
1.00218e-14
1e-14
1e-14
1e-14
1e-14
1e-14
1e-14
1e-14
1e-14
1e-14
1e-14
1e-14
1e-14
1e-14
1e-14
1e-14
1e-14
1e-14
1e-14
1e-14
1e-14
1e-14
1e-14
1e-14
1e-14
1e-14
1e-14
1.00971e-14
1.11908e-14
1e-14
1e-14
1e-14
1e-14
1e-14
1e-14
1e-14
1e-14
1e-14
1e-14
1e-14
1e-14
1e-14
1.38064e-14
1.0793e-14
1e-14
1e-14
1e-14
1e-14
1.00001e-14
1e-14
1e-14
1e-14
1e-14
1e-14
1e-14
1e-14
1e-14
1.00047e-14
1.01191e-14
1.00033e-14
1.00063e-14
1.00139e-14
1.00036e-14
1.03656e-14
1.0238e-14
1.00042e-14
1.00389e-14
1.01921e-14
1.00274e-14
1.00067e-14
1e-14
1e-14
1e-14
1.00141e-14
1.02775e-14
1.00008e-14
1e-14
1e-14
1e-14
1e-14
1e-14
1e-14
1.00095e-14
1.00156e-14
1e-14
1e-14
1e-14
1e-14
1e-14
1e-14
1e-14
1e-14
1.00094e-14
1.00261e-14
1e-14
1e-14
1e-14
1e-14
1e-14
1e-14
1e-14
1e-14
1e-14
1.00141e-14
1.00154e-14
1e-14
1e-14
1e-14
1e-14
1e-14
1e-14
1e-14
1e-14
1e-14
1e-14
1.00042e-14
1.02774e-14
1e-14
1e-14
1e-14
1e-14
1e-14
1e-14
1e-14
1e-14
1e-14
1e-14
1e-14
1.00389e-14
1.00007e-14
1e-14
1e-14
1e-14
1e-14
1e-14
1e-14
1e-14
1e-14
1e-14
1e-14
1e-14
1.00033e-14
1.0192e-14
1e-14
1e-14
1e-14
1e-14
1e-14
1e-14
1e-14
1e-14
1e-14
1e-14
1e-14
1e-14
1.00063e-14
1.00274e-14
1e-14
1e-14
1e-14
1e-14
1e-14
1e-14
1e-14
1e-14
1e-14
1e-14
1e-14
1e-14
1.00139e-14
1.00067e-14
1e-14
1e-14
1e-14
1e-14
1e-14
1e-14
1e-14
1e-14
1e-14
1e-14
1e-14
1e-14
1.00037e-14
1e-14
1e-14
1e-14
1e-14
1e-14
1e-14
1e-14
1e-14
1e-14
1e-14
1e-14
1e-14
1e-14
1.00047e-14
1.03667e-14
1e-14
1e-14
1e-14
1e-14
1e-14
1e-14
1e-14
1e-14
1e-14
1e-14
1e-14
1e-14
1e-14
1.01193e-14
1.02379e-14
1e-14
1e-14
1e-14
1e-14
1e-14
1e-14
1e-14
1e-14
1e-14
1e-14
1e-14
1e-14
1e-14
1.00006e-14
1.00025e-14
1.00001e-14
1.00001e-14
1.0002e-14
1.00014e-14
1.00989e-14
1.00631e-14
1.00002e-14
1.00011e-14
1.00432e-14
1.00068e-14
1.00019e-14
1e-14
1e-14
1e-14
1.00003e-14
1.00622e-14
1.00001e-14
1e-14
1e-14
1e-14
1e-14
1e-14
1e-14
1.00013e-14
1.00024e-14
1e-14
1e-14
1e-14
1e-14
1e-14
1e-14
1e-14
1e-14
1.00013e-14
1.00057e-14
1e-14
1e-14
1e-14
1e-14
1e-14
1e-14
1e-14
1e-14
1e-14
1.00003e-14
1.00024e-14
1e-14
1e-14
1e-14
1e-14
1e-14
1e-14
1e-14
1e-14
1e-14
1e-14
1.00002e-14
1.00622e-14
1e-14
1e-14
1e-14
1e-14
1e-14
1.00001e-14
1e-14
1e-14
1e-14
1e-14
1e-14
1.00011e-14
1.00001e-14
1e-14
1e-14
1e-14
1e-14
1.00001e-14
1.00001e-14
1e-14
1e-14
1e-14
1e-14
1e-14
1.00001e-14
1.00432e-14
1e-14
1e-14
1e-14
1e-14
1.00001e-14
1.00001e-14
1e-14
1e-14
1e-14
1e-14
1e-14
1e-14
1.00001e-14
1.00068e-14
1e-14
1e-14
1e-14
1e-14
1e-14
1e-14
1e-14
1e-14
1e-14
1e-14
1e-14
1e-14
1.0002e-14
1.00019e-14
1e-14
1e-14
1e-14
1e-14
1e-14
1e-14
1e-14
1e-14
1e-14
1e-14
1e-14
1e-14
1.00014e-14
1e-14
1e-14
1e-14
1e-14
1e-14
1e-14
1e-14
1e-14
1e-14
1e-14
1e-14
1e-14
1e-14
1.00006e-14
1.00992e-14
1e-14
1e-14
1e-14
1e-14
1e-14
1e-14
1e-14
1e-14
1e-14
1e-14
1e-14
1e-14
1e-14
1.00025e-14
1.00631e-14
1e-14
1e-14
1e-14
1e-14
1e-14
1e-14
1e-14
1e-14
1e-14
1e-14
1e-14
1e-14
1.00001e-14
1.00002e-14
1e-14
1e-14
1e-14
1.00003e-14
1.00004e-14
1.00239e-14
1.00153e-14
1.00001e-14
1e-14
1.00087e-14
1.00015e-14
1.00005e-14
1e-14
1e-14
1e-14
1.00001e-14
1.00121e-14
1e-14
1e-14
1e-14
1e-14
1e-14
1e-14
1e-14
1.00002e-14
1.00003e-14
1e-14
1e-14
1e-14
1e-14
1e-14
1e-14
1e-14
1e-14
1.00002e-14
1.00012e-14
1e-14
1e-14
1e-14
1e-14
1e-14
1e-14
1e-14
1e-14
1e-14
1.00001e-14
1.00003e-14
1e-14
1e-14
1e-14
1e-14
1e-14
1e-14
1e-14
1e-14
1e-14
1e-14
1.00001e-14
1.00121e-14
1e-14
1e-14
1e-14
1e-14
1e-14
1e-14
1e-14
1e-14
1e-14
1e-14
1e-14
1e-14
1e-14
1e-14
1e-14
1e-14
1e-14
1e-14
1e-14
1e-14
1e-14
1e-14
1e-14
1e-14
1e-14
1.00087e-14
1e-14
1e-14
1e-14
1e-14
1e-14
1e-14
1e-14
1e-14
1e-14
1e-14
1e-14
1e-14
1e-14
1.00015e-14
1e-14
1e-14
1e-14
1e-14
1e-14
1e-14
1e-14
1e-14
1e-14
1e-14
1e-14
1e-14
1.00003e-14
1.00005e-14
1e-14
1e-14
1e-14
1e-14
1e-14
1e-14
1e-14
1e-14
1.00001e-14
1e-14
1e-14
1e-14
1.00004e-14
1e-14
1e-14
1e-14
1e-14
1e-14
1e-14
1e-14
1e-14
1e-14
1e-14
1e-14
1e-14
1.00001e-14
1.00002e-14
1.0024e-14
1e-14
1e-14
1e-14
1e-14
1e-14
1e-14
1e-14
1e-14
1e-14
1e-14
1e-14
1.00001e-14
1.00001e-14
1.00001e-14
1.00153e-14
1e-14
1e-14
1e-14
1e-14
1e-14
1e-14
1e-14
1e-14
1e-14
1e-14
1.00001e-14
1.00001e-14
1e-14
1e-14
1e-14
1e-14
1e-14
1e-14
1.00001e-14
1.00053e-14
1.00033e-14
1.00001e-14
1e-14
1.00015e-14
1.00003e-14
1.00001e-14
1e-14
1e-14
1e-14
1.00001e-14
1.0002e-14
1e-14
1e-14
1e-14
1e-14
1e-14
1e-14
1.00001e-14
1e-14
1e-14
1e-14
1e-14
1e-14
1e-14
1e-14
1e-14
1e-14
1e-14
1e-14
1.00002e-14
1e-14
1e-14
1e-14
1e-14
1e-14
1e-14
1e-14
1e-14
1.00001e-14
1.00001e-14
1e-14
1e-14
1e-14
1e-14
1e-14
1e-14
1e-14
1e-14
1e-14
1e-14
1.00001e-14
1.00001e-14
1.0002e-14
1.00001e-14
1e-14
1e-14
1e-14
1e-14
1e-14
1e-14
1e-14
1e-14
1e-14
1.00001e-14
1e-14
1e-14
1e-14
1e-14
1e-14
1e-14
1e-14
1e-14
1e-14
1e-14
1e-14
1e-14
1.00001e-14
1e-14
1.00015e-14
1e-14
1e-14
1e-14
1e-14
1e-14
1e-14
1e-14
1e-14
1e-14
1e-14
1e-14
1.00001e-14
1e-14
1.00003e-14
1e-14
1e-14
1e-14
1e-14
1e-14
1e-14
1e-14
1e-14
1e-14
1e-14
1e-14
1.00001e-14
1e-14
1.00001e-14
1e-14
1e-14
1e-14
1e-14
1e-14
1e-14
1e-14
1e-14
1e-14
1e-14
1e-14
1.00002e-14
1.00001e-14
1e-14
1e-14
1e-14
1e-14
1e-14
1e-14
1e-14
1e-14
1e-14
1e-14
1e-14
1e-14
1.00002e-14
1e-14
1.00053e-14
1e-14
1e-14
1e-14
1e-14
1e-14
1e-14
1e-14
1e-14
1e-14
1e-14
1e-14
1.00001e-14
1.00002e-14
1e-14
1.00033e-14
1e-14
1.00001e-14
1e-14
1.00001e-14
1.00001e-14
1.00001e-14
1.00001e-14
1.00001e-14
1.00001e-14
1.00002e-14
1.00002e-14
1.00002e-14
1.00003e-14
1e-14
1.00001e-14
1e-14
1e-14
1e-14
1e-14
1.00011e-14
1.00008e-14
1e-14
1.00001e-14
1.00003e-14
1.00001e-14
1e-14
1e-14
1e-14
1e-14
1e-14
1.00003e-14
1e-14
1e-14
1e-14
1e-14
1e-14
1e-14
1.00001e-14
1e-14
1e-14
1e-14
1e-14
1e-14
1e-14
1e-14
1e-14
1e-14
1e-14
1e-14
1e-14
1e-14
1e-14
1e-14
1e-14
1e-14
1e-14
1e-14
1e-14
1.00001e-14
1e-14
1e-14
1e-14
1e-14
1e-14
1e-14
1e-14
1e-14
1e-14
1e-14
1e-14
1.00001e-14
1e-14
1.00003e-14
1e-14
1e-14
1e-14
1e-14
1e-14
1e-14
1e-14
1e-14
1e-14
1.00001e-14
1.00001e-14
1.00001e-14
1e-14
1e-14
1e-14
1e-14
1e-14
1e-14
1e-14
1e-14
1e-14
1.00001e-14
1e-14
1e-14
1e-14
1.00003e-14
1e-14
1e-14
1e-14
1e-14
1e-14
1e-14
1e-14
1e-14
1e-14
1.00001e-14
1e-14
1.00001e-14
1e-14
1.00001e-14
1e-14
1e-14
1e-14
1e-14
1e-14
1e-14
1e-14
1e-14
1e-14
1e-14
1e-14
1.00001e-14
1e-14
1e-14
1e-14
1e-14
1e-14
1e-14
1e-14
1e-14
1e-14
1e-14
1e-14
1e-14
1e-14
1.00001e-14
1e-14
1e-14
1e-14
1e-14
1e-14
1e-14
1e-14
1.00001e-14
1.00001e-14
1e-14
1e-14
1e-14
1.00001e-14
1.00001e-14
1e-14
1.00011e-14
1e-14
1e-14
1e-14
1e-14
1e-14
1.00001e-14
1e-14
1e-14
1e-14
1e-14
1.00001e-14
1.00001e-14
1.00001e-14
1.00001e-14
1.00008e-14
1e-14
1.00001e-14
1e-14
1.00001e-14
1.00001e-14
1.00001e-14
1e-14
1.00001e-14
1.00001e-14
1.00001e-14
1.00001e-14
1.00001e-14
1.00001e-14
1e-14
1e-14
1e-14
1e-14
1e-14
1e-14
1.00002e-14
1.00002e-14
1e-14
1e-14
1.00001e-14
1e-14
1e-14
1e-14
1e-14
1e-14
1e-14
1e-14
1e-14
1e-14
1e-14
1e-14
1e-14
1e-14
1e-14
1.00001e-14
1e-14
1e-14
1e-14
1.00001e-14
1e-14
1e-14
1e-14
1e-14
1e-14
1.00001e-14
1e-14
1e-14
1e-14
1e-14
1e-14
1e-14
1e-14
1e-14
1e-14
1.00001e-14
1e-14
1e-14
1e-14
1e-14
1e-14
1e-14
1e-14
1e-14
1e-14
1e-14
1e-14
1.00001e-14
1e-14
1e-14
1e-14
1e-14
1e-14
1e-14
1e-14
1e-14
1e-14
1e-14
1e-14
1e-14
1.00002e-14
1e-14
1e-14
1e-14
1e-14
1e-14
1e-14
1e-14
1e-14
1e-14
1e-14
1e-14
1.00001e-14
1.00002e-14
1e-14
1.00001e-14
1e-14
1.00001e-14
1e-14
1e-14
1e-14
1e-14
1e-14
1e-14
1e-14
1e-14
1e-14
1.00001e-14
1e-14
1e-14
1e-14
1e-14
1e-14
1e-14
1e-14
1e-14
1e-14
1e-14
1e-14
1e-14
1.00001e-14
1.00001e-14
1e-14
1e-14
1e-14
1e-14
1e-14
1e-14
1e-14
1e-14
1e-14
1e-14
1e-14
1e-14
1e-14
1e-14
1e-14
1e-14
1e-14
1e-14
1e-14
1e-14
1e-14
1e-14
1e-14
1e-14
1e-14
1e-14
1e-14
1e-14
1e-14
1.00002e-14
1e-14
1e-14
1e-14
1e-14
1e-14
1e-14
1.00001e-14
1e-14
1.00001e-14
1e-14
1.00001e-14
1.00001e-14
1.00001e-14
1e-14
1.00003e-14
1e-14
1e-14
1e-14
1.00001e-14
1.00001e-14
1.00002e-14
1.00002e-14
1.00002e-14
1.00001e-14
1.00001e-14
1e-14
1.00001e-14
1e-14
1.91e-12
2.39186e-13
1.77862e-13
1.27686e-14
2.06538e-14
1.69244e-13
9.22862e-13
9.78338e-14
7.03152e-14
8.75379e-13
8.20426e-13
5.64272e-14
5.03651e-14
1.65618e-12
6.36477e-13
1e-14
5.51922e-13
1.56037e-13
4.19227e-14
9.54761e-14
1.20841e-13
1.00058e-14
2.11122e-14
1e-14
2.73187e-13
2.53945e-13
2.55763e-14
1.34009e-13
3.06119e-14
1.93074e-14
1.07814e-14
1.73359e-12
1.31583e-12
2.32373e-13
6.70792e-13
7.74599e-14
3.77219e-14
1.17163e-14
1.40434e-12
1.40115e-12
2.10143e-13
1.31471e-12
1.73356e-12
2.32213e-13
1e-14
6.70936e-13
3.76973e-14
7.7343e-14
1.17066e-14
1.65614e-12
2.54476e-13
2.73057e-13
2.56131e-14
6.3643e-13
1e-14
1.33974e-13
1.9303e-14
3.06068e-14
1.0781e-14
1.56033e-13
5.51903e-13
4.19207e-14
1.91005e-12
2.39177e-13
9.54525e-14
1.00054e-14
1.20837e-13
2.11099e-14
1.7789e-13
1.27681e-14
2.06569e-14
1.69228e-13
9.78188e-14
9.22948e-13
7.03464e-14
8.75555e-13
5.6493e-14
8.19292e-13
5.03193e-14
1.58428e-12
1e-14
1.89446e-12
2.06305e-13
1e-14
1.09948e-14
1.61716e-13
1.21382e-14
1e-14
8.6138e-14
1.85555e-14
1.52674e-13
5.61179e-13
2.64045e-14
4.3404e-14
9.10715e-13
8.67144e-14
6.34959e-14
5.12477e-13
2.90394e-14
2.65146e-14
8.63003e-13
8.08293e-13
5.13773e-14
4.54438e-14
1.0233e-12
1.63923e-12
1e-14
1.43693e-14
6.40443e-13
1.26478e-14
3.5144e-13
6.49301e-14
2.82932e-14
5.46862e-13
1.42525e-13
3.83776e-14
9.02072e-14
1.00966e-14
1e-14
8.79628e-14
1.05963e-13
1.01237e-14
1.75964e-14
1.26354e-14
1e-14
1e-14
1.0585e-13
1.98015e-14
2.37536e-13
2.39926e-13
2.53786e-14
1.04721e-14
1e-14
1.10191e-14
1.17566e-13
2.79134e-14
1.72438e-14
1.04976e-14
1.1448e-12
1e-14
1.08705e-13
1.70515e-12
1.36954e-12
2.19601e-13
3.55296e-14
1.1661e-14
1.10934e-14
6.7044e-13
6.85858e-14
3.44126e-14
1.0873e-14
8.13308e-14
8.34072e-14
8.82693e-14
1.44959e-12
1.44598e-12
1.97376e-13
1e-14
1.14489e-12
1.08576e-13
1.36859e-12
1.70504e-12
2.1935e-13
1.26157e-14
1e-14
1.16741e-14
3.55102e-14
1.10962e-14
6.70456e-13
3.43771e-14
6.85683e-14
1.08687e-14
1.02326e-12
1.63916e-12
1.05786e-13
1e-14
1.98167e-14
2.39893e-13
2.37539e-13
2.53822e-14
1e-14
1.43709e-14
6.40434e-13
1.26474e-14
1e-14
1.04717e-14
1.1019e-14
1.1755e-13
1.72406e-14
2.79111e-14
1.04974e-14
6.49292e-14
3.51436e-13
2.8293e-14
1.4252e-13
5.46861e-13
3.83761e-14
1.58427e-12
1e-14
1.89446e-12
2.06306e-13
1.00965e-14
9.02061e-14
1e-14
8.79587e-14
1.01237e-14
1.05962e-13
1.75953e-14
1e-14
1.0995e-14
1.61722e-13
1.21377e-14
1e-14
8.6144e-14
1.85555e-14
1.52663e-13
2.64058e-14
5.61043e-13
4.34241e-14
8.67077e-14
9.10784e-13
6.3527e-14
2.90592e-14
5.11852e-13
2.65126e-14
8.63091e-13
5.14391e-14
8.07818e-13
4.54293e-14
1.59023e-12
1e-14
1.8963e-12
2.08626e-13
1e-14
1.08856e-14
1.62761e-13
1.19782e-14
1e-14
8.6739e-14
1.83917e-14
1.52048e-13
5.73003e-13
2.45745e-14
4.16756e-14
9.10309e-13
8.5703e-14
6.30554e-14
5.19747e-13
2.85393e-14
2.60193e-14
8.62435e-13
8.07838e-13
5.10789e-14
4.51452e-14
1.06005e-12
1.63988e-12
1e-14
1.10984e-14
6.35866e-13
1.36151e-14
3.57422e-13
6.18947e-14
2.7679e-14
5.47585e-13
1.42466e-13
3.81941e-14
8.66233e-14
1.03266e-14
1e-14
8.57845e-14
1.05152e-13
1.00729e-14
1.72048e-14
1.14272e-14
1e-14
1e-14
1.08694e-13
1.96173e-14
2.41765e-13
2.40499e-13
2.52162e-14
1.01207e-14
1e-14
1.09132e-14
1.18705e-13
2.8153e-14
1.69264e-14
1.04659e-14
1.16401e-12
3.0331e-14
1.1068e-13
1.70897e-12
1.3524e-12
2.18674e-13
3.37071e-14
1.10002e-14
1.10545e-14
6.70845e-13
6.92625e-14
3.37611e-14
1.09191e-14
1.54785e-13
1.5625e-13
8.91866e-14
1.43333e-12
1.4298e-12
1.97456e-13
3.23897e-14
1.16412e-12
1.10568e-13
1.35154e-12
1.70886e-12
2.18429e-13
1.14255e-14
1e-14
1.10131e-14
3.37101e-14
1.10558e-14
6.70866e-13
3.37256e-14
6.92549e-14
1.0916e-14
1.06003e-12
1.63981e-12
1.08683e-13
1e-14
1.96194e-14
2.40481e-13
2.41763e-13
2.5214e-14
1e-14
1.10992e-14
6.35854e-13
1.36147e-14
1e-14
1.0121e-14
1.09131e-14
1.18692e-13
1.69243e-14
2.8151e-14
1.04657e-14
6.18935e-14
3.57414e-13
2.76784e-14
1.42461e-13
5.47583e-13
3.81926e-14
1.5902e-12
1e-14
1.89631e-12
2.08623e-13
1.03264e-14
8.66226e-14
1e-14
8.57785e-14
1.00729e-14
1.05148e-13
1.72032e-14
1e-14
1.08856e-14
1.62766e-13
1.19784e-14
1e-14
8.67477e-14
1.83919e-14
1.52037e-13
2.45775e-14
5.72841e-13
4.16918e-14
8.56981e-14
9.10382e-13
6.30868e-14
2.8556e-14
5.19255e-13
2.60242e-14
8.62522e-13
5.11394e-14
8.07375e-13
4.51333e-14
1.58552e-12
1e-14
1.89675e-12
2.08916e-13
1e-14
1.08773e-14
1.6266e-13
1.19479e-14
1e-14
8.80631e-14
1.83735e-14
1.5265e-13
5.74125e-13
2.45107e-14
4.17734e-14
9.10483e-13
8.5871e-14
6.32877e-14
5.20548e-13
2.87573e-14
2.6239e-14
8.62405e-13
8.08055e-13
5.12584e-14
4.52969e-14
1.06146e-12
1.64013e-12
1e-14
1.08978e-14
6.33725e-13
1.37416e-14
3.57789e-13
6.2614e-14
2.78204e-14
5.48178e-13
1.43079e-13
3.83778e-14
8.71307e-14
1.03374e-14
1e-14
8.52577e-14
1.0546e-13
1.00566e-14
1.71612e-14
1.16322e-14
1e-14
1e-14
1.10891e-13
1.95935e-14
2.43945e-13
2.4096e-13
2.52224e-14
1.01631e-14
1e-14
1.08845e-14
1.19385e-13
2.83451e-14
1.68411e-14
1.04518e-14
1.16268e-12
3.31309e-14
1.12668e-13
1.70958e-12
1.34909e-12
2.18851e-13
3.39575e-14
1.07836e-14
1.10467e-14
6.70871e-13
6.95593e-14
3.37273e-14
1.09136e-14
1.57936e-13
1.59396e-13
9.07153e-14
1.43013e-12
1.42662e-12
1.97707e-13
3.51927e-14
1.16285e-12
1.12558e-13
1.34822e-12
1.70948e-12
2.18604e-13
1.16314e-14
1e-14
1.07965e-14
3.39613e-14
1.10476e-14
6.70887e-13
3.36905e-14
6.95511e-14
1.09111e-14
1.06143e-12
1.64007e-12
1.1089e-13
1e-14
1.95935e-14
2.40946e-13
2.43944e-13
2.52205e-14
1e-14
1.08977e-14
6.33723e-13
1.37414e-14
1e-14
1.01633e-14
1.08845e-14
1.19374e-13
1.68392e-14
2.83425e-14
1.04516e-14
6.26115e-14
3.57788e-13
2.78195e-14
1.43073e-13
5.48179e-13
3.83769e-14
1.5855e-12
1e-14
1.89675e-12
2.08927e-13
1.03374e-14
8.71299e-14
1e-14
8.525e-14
1.00567e-14
1.05457e-13
1.716e-14
1e-14
1.08771e-14
1.62664e-13
1.19482e-14
1e-14
8.80692e-14
1.83745e-14
1.5264e-13
2.45135e-14
5.73963e-13
4.17896e-14
8.58655e-14
9.10553e-13
6.33194e-14
2.8773e-14
5.2007e-13
2.62438e-14
8.62505e-13
5.13201e-14
8.07578e-13
4.52846e-14
1.5836e-12
1e-14
1.89642e-12
2.08819e-13
1e-14
1.08707e-14
1.62365e-13
1.19674e-14
1e-14
8.85671e-14
1.83617e-14
1.53476e-13
5.73847e-13
2.42124e-14
4.17729e-14
9.10695e-13
8.6407e-14
6.36451e-14
5.20525e-13
2.87452e-14
2.62251e-14
8.62498e-13
8.07971e-13
5.14782e-14
4.5457e-14
1.06172e-12
1.64028e-12
1e-14
1.08221e-14
6.32108e-13
1.38564e-14
3.57774e-13
6.2524e-14
2.78411e-14
5.49088e-13
1.43389e-13
3.85132e-14
8.74254e-14
1.03242e-14
1e-14
8.46505e-14
1.05758e-13
1.0046e-14
1.71367e-14
1.16484e-14
1e-14
1e-14
1.11109e-13
1.95615e-14
2.45987e-13
2.40736e-13
2.52316e-14
1.02305e-14
1e-14
1.08633e-14
1.19564e-13
2.84678e-14
1.67488e-14
1.04318e-14
1.16259e-12
3.26599e-14
1.12963e-13
1.70956e-12
1.34848e-12
2.18922e-13
3.40438e-14
1.07533e-14
1.10354e-14
6.70871e-13
6.95848e-14
3.37144e-14
1.08987e-14
1.57847e-13
1.59317e-13
9.09453e-14
1.4293e-12
1.42582e-12
1.97794e-13
3.47328e-14
1.16272e-12
1.12847e-13
1.34763e-12
1.70946e-12
2.18675e-13
1.16476e-14
1e-14
1.0767e-14
3.40452e-14
1.10362e-14
6.70879e-13
3.36763e-14
6.95748e-14
1.08966e-14
1.06171e-12
1.64022e-12
1.11107e-13
1e-14
1.95607e-14
2.4072e-13
2.45991e-13
2.5231e-14
1e-14
1.08216e-14
6.32109e-13
1.38568e-14
1e-14
1.02307e-14
1.08632e-14
1.19552e-13
1.67468e-14
2.84646e-14
1.04316e-14
6.2521e-14
3.57771e-13
2.78406e-14
1.43383e-13
5.49094e-13
3.85128e-14
1.58355e-12
1e-14
1.89642e-12
2.08823e-13
1.03242e-14
8.74258e-14
1e-14
8.46425e-14
1.0046e-14
1.05755e-13
1.71354e-14
1e-14
1.08705e-14
1.62369e-13
1.19676e-14
1e-14
8.85743e-14
1.83624e-14
1.53469e-13
2.42142e-14
5.73698e-13
4.17888e-14
8.64031e-14
9.10764e-13
6.36778e-14
2.87614e-14
5.20049e-13
2.62294e-14
8.62592e-13
5.1542e-14
8.07482e-13
4.54441e-14
1.58191e-12
1e-14
1.89589e-12
2.09383e-13
1e-14
1.08344e-14
1.62221e-13
1.21913e-14
1e-14
8.95444e-14
1.85592e-14
1.55192e-13
5.71685e-13
2.35526e-14
4.17796e-14
9.10668e-13
8.81129e-14
6.46193e-14
5.18969e-13
2.86741e-14
2.61681e-14
8.63483e-13
8.08307e-13
5.20548e-14
4.58164e-14
1.06155e-12
1.64043e-12
1e-14
1.07063e-14
6.29597e-13
1.40004e-14
3.57662e-13
6.20218e-14
2.78233e-14
5.5143e-13
1.44072e-13
3.87945e-14
8.79958e-14
1.02942e-14
1e-14
8.28677e-14
1.06899e-13
1.00189e-14
1.70857e-14
1.15737e-14
1e-14
1e-14
1.10561e-13
1.93795e-14
2.48642e-13
2.40616e-13
2.53364e-14
1.03978e-14
1e-14
1.08909e-14
1.19955e-13
2.85938e-14
1.66526e-14
1.04013e-14
1.16233e-12
3.22722e-14
1.12827e-13
1.70937e-12
1.34697e-12
2.19568e-13
3.39049e-14
1.06776e-14
1.09764e-14
6.7074e-13
6.96998e-14
3.37832e-14
1.08688e-14
1.57508e-13
1.58985e-13
9.09062e-14
1.42799e-12
1.42453e-12
1.98116e-13
3.43809e-14
1.16247e-12
1.12701e-13
1.34611e-12
1.70927e-12
2.19325e-13
1.15733e-14
1e-14
1.06923e-14
3.39044e-14
1.0977e-14
6.70724e-13
3.37416e-14
6.96884e-14
1.0867e-14
1.06155e-12
1.64037e-12
1.10554e-13
1e-14
1.93789e-14
2.40597e-13
2.48643e-13
2.53373e-14
1e-14
1.07052e-14
6.29589e-13
1.40018e-14
1e-14
1.03979e-14
1.08908e-14
1.19943e-13
1.66513e-14
2.85905e-14
1.04013e-14
6.20174e-14
3.57665e-13
2.78227e-14
1.44067e-13
5.51437e-13
3.8795e-14
1.58189e-12
1e-14
1.89588e-12
2.09392e-13
1.02942e-14
8.79957e-14
1e-14
8.28639e-14
1.00189e-14
1.06897e-13
1.70846e-14
1e-14
1.08344e-14
1.62226e-13
1.21913e-14
1e-14
8.95542e-14
1.85601e-14
1.55186e-13
2.35534e-14
5.71516e-13
4.1795e-14
8.81101e-14
9.10742e-13
6.46559e-14
2.86894e-14
5.18474e-13
2.61731e-14
8.63605e-13
5.21257e-14
8.0781e-13
4.58027e-14
1.57218e-12
1e-14
1.89433e-12
2.10235e-13