/*--------------------------------*- C++ -*----------------------------------*\
| =========                 |                                                 |
| \\      /  F ield         | OpenFOAM: The Open Source CFD Toolbox           |
|  \\    /   O peration     | Version:  2.1.1                                 |
|   \\  /    A nd           | Web:      www.OpenFOAM.org                      |
|    \\/     M anipulation  |                                                 |
\*---------------------------------------------------------------------------*/
FoamFile
{
    version     2.0;
    format      ascii;
    class       volScalarField;
    location    "0.005";
    object      p;
}
// * * * * * * * * * * * * * * * * * * * * * * * * * * * * * * * * * * * * * //

dimensions      [0 2 -2 0 0 0 0];

internalField   nonuniform List<scalar> 
10191
(
0.0239434
0.0227613
0.0233931
0.0230174
0.0201532
0.0199638
0.0200786
0.0200487
0.0238739
0.0222218
0.020069
0.0199332
0.0198158
0.0198593
0.0198216
0.0198185
0.0240297
0.0200826
0.0199825
0.019896
0.0199059
0.0199716
0.019941
0.0199657
0.019964
0.0201512
0.019932
0.0198901
0.0198585
0.0199179
0.0198835
0.0198586
0.0198507
0.0198351
0.0198324
0.020193
0.0197791
0.019951
0.0199158
0.019932
0.0199002
0.0198946
0.0199003
0.0198872
0.0198927
0.0198888
0.0240331
0.0199367
0.0199529
0.0199119
0.0199025
0.01987
0.0198732
0.0198457
0.0198345
0.0198182
0.0198097
0.0198044
0.0238748
0.0200831
0.0198908
0.0199163
0.0199028
0.0198956
0.0198812
0.0198649
0.0198461
0.0198387
0.0198238
0.0198207
0.0198155
0.0222223
0.0199827
0.0198587
0.0199322
0.0198702
0.0198813
0.0198379
0.0198327
0.0198011
0.0197898
0.0197698
0.019762
0.019755
0.0233934
0.0200693
0.0198962
0.0199182
0.0199005
0.0198735
0.0198652
0.0198329
0.0198195
0.0197913
0.0197798
0.0197605
0.0197538
0.019747
0.0230177
0.0199335
0.0199061
0.0198838
0.0198949
0.019846
0.0198464
0.0198013
0.0197913
0.0197559
0.0197432
0.0197201
0.0197118
0.0197039
0.0201534
0.019816
0.0199718
0.0198588
0.0199005
0.0198347
0.0198389
0.01979
0.0197798
0.0197432
0.0197304
0.0197068
0.0196985
0.0196903
0.0199639
0.0198593
0.0199411
0.0198507
0.0198872
0.0198182
0.0198239
0.0197699
0.0197605
0.0197201
0.0197068
0.0196808
0.0196719
0.0196629
0.0239434
0.0200785
0.0198216
0.0199656
0.019835
0.0198926
0.0198096
0.0198206
0.019762
0.0197538
0.0197119
0.0196986
0.0196719
0.0196628
0.0196538
0.0227612
0.0200486
0.0198184
0.0199638
0.0198321
0.0198885
0.0198041
0.0198152
0.0197549
0.019747
0.019704
0.0196904
0.0196629
0.0196538
0.0196443
0.0228958
0.0217136
0.0223455
0.0219697
0.0191042
0.0189149
0.0190287
0.0189998
0.022826
0.0211735
0.0190203
0.0188836
0.0187644
0.018808
0.0187638
0.0187661
0.022982
0.0190355
0.0189326
0.0188448
0.0188523
0.0189205
0.018888
0.0189193
0.018911
0.0191343
0.0188859
0.0188399
0.0188061
0.0188643
0.0188298
0.0188012
0.0187937
0.0187778
0.018774
0.0191095
0.018728
0.018904
0.0188627
0.0188794
0.0188455
0.0188362
0.0188398
0.0188247
0.0188297
0.0188252
0.0229859
0.0188831
0.0189027
0.0188579
0.0188482
0.0188119
0.0188201
0.0187842
0.0187666
0.0187472
0.0187371
0.018732
0.0228272
0.0190359
0.0188399
0.0188625
0.0188482
0.0188367
0.0188192
0.0188014
0.0187784
0.0187672
0.0187495
0.0187448
0.0187392
0.0211741
0.018933
0.0188063
0.0188795
0.0188119
0.0188192
0.0187715
0.0187626
0.0187267
0.018712
0.018689
0.0186793
0.0186716
0.022346
0.0190208
0.0188452
0.0188647
0.0188458
0.0188204
0.0188016
0.0187627
0.0187448
0.0187117
0.0186963
0.0186734
0.0186647
0.0186567
0.0219702
0.018884
0.0188526
0.0188302
0.0188368
0.0187848
0.0187789
0.0187269
0.0187117
0.0186703
0.0186532
0.0186261
0.0186151
0.0186057
0.0191045
0.0187646
0.0189208
0.0188016
0.0188403
0.0187671
0.0187676
0.0187122
0.0186964
0.0186532
0.0186356
0.0186072
0.0185963
0.0185863
0.0189151
0.0188082
0.0188881
0.0187938
0.0188248
0.0187472
0.0187496
0.018689
0.0186734
0.0186261
0.0186072
0.0185763
0.0185642
0.0185533
0.0228958
0.0190287
0.0187638
0.0189192
0.0187775
0.0188293
0.0187367
0.0187444
0.018679
0.0186646
0.0186151
0.0185963
0.0185641
0.0185518
0.0185403
0.0217135
0.0189996
0.0187659
0.0189108
0.0187735
0.0188245
0.0187313
0.0187385
0.0186711
0.0186565
0.0186056
0.0185863
0.0185533
0.0185403
0.0185281
0.0218526
0.0206706
0.0213022
0.0209263
0.0180603
0.0178703
0.0179844
0.0179558
0.0217825
0.0201291
0.0179754
0.0178384
0.0177153
0.0177612
0.0177156
0.0177173
0.0219389
0.017992
0.0178864
0.0177979
0.0178034
0.0178734
0.0178371
0.0178697
0.0178606
0.0180703
0.0178377
0.0177924
0.0177572
0.0178127
0.017777
0.017746
0.0177388
0.0177212
0.017717
0.0180871
0.0176818
0.0178575
0.0178131
0.0178304
0.017787
0.0177772
0.0177817
0.0177651
0.0177698
0.0177636
0.0219427
0.0178397
0.0178582
0.0178069
0.0177957
0.017754
0.0177525
0.0177155
0.0177015
0.0176821
0.0176712
0.0176642
0.021784
0.0179927
0.0177928
0.017813
0.0177954
0.0177793
0.0177574
0.0177347
0.0177081
0.0176953
0.0176753
0.0176691
0.0176618
0.0201301
0.0178869
0.0177574
0.0178302
0.0177536
0.0177571
0.0177042
0.017691
0.0176499
0.0176315
0.017605
0.0175931
0.0175839
0.021303
0.0179761
0.0177985
0.0178132
0.0177873
0.0177528
0.0177347
0.017691
0.0176681
0.017629
0.0176092
0.0175821
0.0175708
0.0175611
0.020927
0.0178389
0.0178038
0.0177775
0.0177783
0.0177174
0.017709
0.0176502
0.0176291
0.0175808
0.0175585
0.0175264
0.0175124
0.0175012
0.0180606
0.0177157
0.0178737
0.0177466
0.0177834
0.0177065
0.0176968
0.0176318
0.0176092
0.0175585
0.0175352
0.0175013
0.0174871
0.0174751
0.0178705
0.0177614
0.0178373
0.017739
0.0177655
0.017683
0.0176758
0.017605
0.0175821
0.0175263
0.0175013
0.0174645
0.0174486
0.0174354
0.0218527
0.0179844
0.0177156
0.0178696
0.0177208
0.0177686
0.0176684
0.0176679
0.0175926
0.0175706
0.0175123
0.017487
0.0174485
0.0174323
0.0174184
0.0206705
0.0179557
0.0177171
0.0178603
0.0177163
0.0177618
0.0176596
0.0176599
0.0175832
0.0175607
0.017501
0.0174751
0.0174353
0.0174184
0.017404
0.0208148
0.0196328
0.0202639
0.0198879
0.0170214
0.0168305
0.0169452
0.0169166
0.0207438
0.0190896
0.0169352
0.0167969
0.0166703
0.0167188
0.016671
0.0166728
0.0209004
0.0169523
0.016844
0.0167553
0.0167587
0.0168301
0.0167903
0.0168238
0.0168136
0.0170441
0.0167972
0.0167488
0.0167108
0.0167646
0.0167288
0.0166935
0.016686
0.0166662
0.0166617
0.0170322
0.016639
0.0168161
0.0167662
0.0167791
0.0167383
0.0167238
0.0167256
0.016706
0.0167098
0.0167026
0.0209046
0.016796
0.016815
0.0167584
0.0167458
0.0166991
0.0166943
0.0166554
0.0166354
0.0166132
0.0165996
0.0165914
0.0207458
0.0169534
0.0167488
0.0167649
0.0167435
0.016724
0.0166973
0.0166701
0.0166392
0.0166223
0.0165984
0.0165902
0.0165813
0.0190911
0.0168449
0.016711
0.016778
0.0166969
0.0166962
0.0166369
0.0166185
0.0165712
0.016548
0.0165173
0.0165026
0.0164917
0.0202651
0.0169363
0.0167561
0.0167651
0.016738
0.0166933
0.0166694
0.0166182
0.0165893
0.0165431
0.0165183
0.0164859
0.0164717
0.0164599
0.0198889
0.0167978
0.0167594
0.0167294
0.0167242
0.0166558
0.0166393
0.0165712
0.0165431
0.0164868
0.0164583
0.0164205
0.016403
0.0163896
0.017022
0.0166709
0.0168306
0.0166939
0.0167263
0.0166364
0.0166228
0.0165481
0.0165183
0.0164583
0.0164287
0.0163883
0.0163703
0.0163557
0.0168308
0.0167191
0.0167905
0.0166861
0.0167062
0.0166134
0.0165985
0.0165172
0.0164859
0.0164204
0.0163883
0.0163444
0.0163242
0.0163083
0.0208149
0.0169453
0.016671
0.0168237
0.016666
0.0167092
0.0165986
0.0165895
0.0165021
0.0164714
0.0164028
0.0163702
0.0163241
0.0163035
0.0162866
0.0196327
0.0169165
0.0166726
0.0168133
0.0166611
0.0167015
0.0165899
0.0165802
0.016491
0.0164595
0.0163894
0.0163556
0.0163082
0.0162867
0.0162692
0.0197831
0.0186009
0.0192314
0.0188555
0.0159883
0.0157959
0.0159117
0.0158825
0.0197109
0.0180556
0.0158993
0.0157605
0.0156299
0.0156812
0.0156307
0.0156331
0.0198674
0.0159174
0.015806
0.0157175
0.0157181
0.0157912
0.0157476
0.015782
0.0157707
0.0159987
0.0157581
0.0157093
0.015669
0.0157209
0.0156825
0.0156429
0.0156353
0.0156131
0.0156079
0.0160104
0.0156014
0.0157781
0.0157243
0.0157345
0.0156901
0.0156713
0.0156713
0.0156479
0.0156509
0.0156424
0.0198725
0.0157603
0.015778
0.0157136
0.0157037
0.0156516
0.0156383
0.0155937
0.0155687
0.0155433
0.0155268
0.0155174
0.0197138
0.0159194
0.0157102
0.0157216
0.015691
0.0156714
0.0156396
0.0156063
0.0155691
0.0155476
0.0155192
0.015509
0.0154983
0.0180578
0.0158078
0.0156696
0.0157314
0.0156378
0.0156358
0.0155695
0.0155447
0.01549
0.0154614
0.0154256
0.0154074
0.0153948
0.0192332
0.0159011
0.015719
0.0157217
0.0156891
0.0156348
0.0156045
0.0155442
0.0155085
0.0154538
0.0154228
0.0153845
0.0153668
0.0153529
0.0188569
0.0157618
0.0157192
0.0156833
0.0156714
0.0155934
0.0155687
0.0154898
0.0154537
0.0153878
0.0153525
0.015308
0.0152863
0.0152703
0.0159891
0.0156307
0.0157919
0.0156433
0.0156716
0.015569
0.0155478
0.0154613
0.0154227
0.0153524
0.0153149
0.0152672
0.0152446
0.0152274
0.0157964
0.0156816
0.0157479
0.0156355
0.015648
0.0155433
0.0155192
0.0154255
0.0153844
0.0153079
0.0152672
0.0152155
0.0151903
0.0151716
0.0197833
0.0159119
0.0156308
0.015782
0.015613
0.0156506
0.0155263
0.0155085
0.015407
0.0153665
0.0152861
0.0152445
0.0151902
0.0151635
0.0151434
0.0186009
0.0158824
0.0156329
0.0157705
0.0156075
0.0156418
0.0155165
0.0154976
0.0153942
0.0153525
0.0152701
0.0152273
0.0151715
0.0151434
0.0151221
0.018758
0.0175756
0.0182057
0.0178299
0.0149619
0.0147672
0.0148844
0.0148544
0.0186845
0.0170278
0.0148686
0.0147296
0.014593
0.0146491
0.0145953
0.0145988
0.0188408
0.0148884
0.0147726
0.0146842
0.0146818
0.0147584
0.0147093
0.0147451
0.0147322
0.0149786
0.0147258
0.0146738
0.0146308
0.0146802
0.0146394
0.0145951
0.0145872
0.0145617
0.0145563
0.0149739
0.0145682
0.0147449
0.0146832
0.01469
0.0146427
0.0146195
0.0146187
0.0145907
0.0145935
0.0145829
0.0188468
0.0147275
0.0147467
0.0146728
0.014647
0.0145918
0.0145807
0.0145313
0.014501
0.0144722
0.0144527
0.0144418
0.0186886
0.0148921
0.014677
0.0146879
0.0146603
0.0146215
0.0145793
0.014541
0.0144966
0.0144709
0.0144369
0.0144239
0.0144112
0.0170312
0.014776
0.014634
0.0146927
0.0145944
0.0145803
0.0145012
0.0144692
0.0144059
0.0143709
0.0143291
0.0143076
0.0142927
0.0182082
0.0148715
0.0146871
0.0146827
0.0146442
0.0145811
0.0145411
0.0144691
0.0144236
0.0143596
0.0143211
0.0142765
0.0142547
0.0142385
0.0178319
0.0147315
0.0146837
0.0146408
0.0146205
0.0145317
0.0144967
0.0144059
0.0143597
0.014283
0.0142398
0.014188
0.0141619
0.0141434
0.0149629
0.0145936
0.0147597
0.0145954
0.014619
0.0145012
0.0144709
0.0143709
0.0143211
0.0142397
0.0141932
0.014138
0.0141102
0.01409
0.0147678
0.0146495
0.0147097
0.0145874
0.0145907
0.0144721
0.0144368
0.014329
0.0142765
0.014188
0.0141379
0.0140777
0.0140469
0.0140248
0.0187583
0.0148846
0.0145954
0.0147451
0.0145618
0.0145932
0.0144522
0.0144235
0.0143072
0.0142545
0.0141616
0.01411
0.0140467
0.0140135
0.0139896
0.0175756
0.0148543
0.0145985
0.014732
0.0145561
0.0145825
0.0144412
0.0144107
0.0142922
0.0142382
0.0141431
0.0140899
0.0140247
0.0139896
0.0139633
0.0177407
0.0165582
0.0171874
0.0168119
0.0139441
0.0137451
0.0138641
0.013833
0.0176651
0.016007
0.0138441
0.013705
0.013563
0.0136236
0.0135654
0.0135703
0.0178206
0.013866
0.0137434
0.0136548
0.0136491
0.0137285
0.0136753
0.0137135
0.0136981
0.0139572
0.0136971
0.0136465
0.0135934
0.0136436
0.0135973
0.0135472
0.0135418
0.0135156
0.0135092
0.0139556
0.01354
0.0137215
0.013652
0.0136501
0.0135978
0.0135686
0.0135662
0.0135331
0.0135361
0.0135226
0.0178287
0.0137016
0.0137178
0.0136364
0.0136117
0.0135416
0.0135256
0.0134683
0.0134329
0.0133998
0.0133769
0.0133645
0.017671
0.0138724
0.0136529
0.0136567
0.0136152
0.0135729
0.0135218
0.0134742
0.0134216
0.0133901
0.0133499
0.0133338
0.0133189
0.0160118
0.0137492
0.0135993
0.013655
0.0135446
0.0135232
0.0134317
0.0133909
0.0133174
0.0132754
0.0132272
0.0132019
0.0131845
0.0171908
0.0138483
0.0136597
0.0136488
0.0136016
0.0135276
0.0134752
0.0133912
0.0133343
0.0132598
0.0132132
0.0131616
0.0131356
0.0131168
0.0168146
0.0137079
0.0136525
0.0135998
0.0135709
0.0134696
0.0134222
0.0133177
0.0132599
0.0131719
0.0131199
0.0130606
0.0130299
0.0130086
0.0139455
0.0135643
0.0137294
0.0135478
0.0135663
0.0134332
0.0133904
0.0132755
0.0132133
0.0131198
0.0130637
0.0130006
0.0129672
0.0129439
0.013746
0.0136241
0.0136753
0.0135412
0.0135324
0.0133996
0.0133499
0.0132272
0.0131616
0.0130606
0.0130005
0.0129317
0.0128946
0.0128689
0.0177412
0.0138644
0.0135655
0.0137132
0.013515
0.0135354
0.0133763
0.0133335
0.0132016
0.0131353
0.0130296
0.012967
0.0128943
0.0128545
0.0128262
0.0165582
0.0138329
0.01357
0.0136978
0.0135089
0.0135221
0.0133639
0.0133184
0.0131841
0.0131166
0.0130084
0.0129438
0.0128687
0.0128262
0.0127959
0.0167327
0.01555
0.0161779
0.0158022
0.0129331
0.01273
0.0128513
0.0128188
0.0166538
0.0149941
0.0128277
0.0126869
0.0125407
0.0126049
0.0125418
0.0125484
0.0168067
0.0128484
0.0127208
0.0126332
0.0126222
0.0127061
0.0126461
0.0126845
0.0126668
0.0129301
0.012664
0.0126154
0.0125676
0.0126127
0.012555
0.0125171
0.0125015
0.0124679
0.0124609
0.0129632
0.0125158
0.0126758
0.0126202
0.0126142
0.0125564
0.0125186
0.0125153
0.0124752
0.0124749
0.0124593
0.0168181
0.012684
0.0127211
0.0126024
0.0125727
0.012493
0.0124696
0.0124035
0.0123635
0.0123243
0.0122983
0.0122839
0.0166614
0.0128591
0.0126332
0.0126301
0.0125772
0.0125251
0.012463
0.0124055
0.0123432
0.0123047
0.0122579
0.0122386
0.0122212
0.0150004
0.0127302
0.0125775
0.0126207
0.012497
0.0124644
0.0123592
0.0123083
0.0122239
0.0121744
0.0121195
0.0120899
0.0120703
0.0161821
0.0128337
0.0126429
0.0126218
0.0125625
0.0124726
0.0124068
0.0123087
0.0122397
0.0121538
0.0120988
0.0120396
0.0120093
0.0119879
0.0158057
0.0126909
0.0126299
0.0125733
0.0125243
0.0124051
0.0123441
0.0122243
0.012154
0.0120542
0.0119928
0.0119261
0.0118907
0.0118668
0.012935
0.0125423
0.0127046
0.0125029
0.0125128
0.012364
0.0123052
0.0121746
0.0120989
0.0119928
0.0119268
0.0118556
0.0118172
0.0117916
0.0127311
0.0126054
0.0126447
0.0124963
0.0124729
0.0123239
0.012258
0.0121196
0.0120397
0.0119261
0.0118554
0.0117782
0.0117354
0.011707
0.0167332
0.0128517
0.0125417
0.0126838
0.0124664
0.0124737
0.0122976
0.0122382
0.0120896
0.0120091
0.0118904
0.011817
0.011735
0.0116889
0.0116587
0.0155501
0.0128187
0.012548
0.0126663
0.0124603
0.0124586
0.0122833
0.0122208
0.01207
0.0119877
0.0118666
0.0117914
0.0117069
0.0116589
0.0116282
0.0157352
0.0145525
0.0151784
0.0148021
0.0119299
0.0117222
0.0118462
0.0118118
0.0156523
0.0139905
0.0118198
0.0116751
0.0115259
0.0115925
0.0115256
0.0115335
0.0158034
0.0118408
0.0117054
0.0116202
0.0116036
0.0116854
0.0116186
0.0116586
0.0116381
0.0119734
0.0116534
0.0116022
0.0115459
0.0115877
0.0115265
0.0114733
0.0114572
0.0114227
0.0114148
0.0119082
0.0114951
0.01168
0.0115976
0.0115791
0.0115167
0.0114703
0.0114598
0.0114136
0.0114109
0.0113932
0.0158132
0.0116544
0.0116861
0.0115699
0.0115367
0.0114452
0.0114125
0.011336
0.0112904
0.0112441
0.0112153
0.0111986
0.0156607
0.0118499
0.0116128
0.0116056
0.01154
0.011477
0.0114007
0.0113335
0.0112598
0.0112139
0.0111603
0.0111371
0.0111174
0.0139975
0.011712
0.0115552
0.0115864
0.0114493
0.0114022
0.0112829
0.0112204
0.0111243
0.0110673
0.011005
0.0109718
0.0109498
0.0151832
0.0118263
0.0116302
0.0115962
0.0115227
0.0114159
0.011335
0.0112208
0.0111392
0.0110414
0.0109775
0.0109113
0.0108765
0.0108525
0.014806
0.0116796
0.0116095
0.0115328
0.0114743
0.0113382
0.0112611
0.0111249
0.0110416
0.0109295
0.0108595
0.0107853
0.0107455
0.0107192
0.0119321
0.011528
0.0116868
0.0114731
0.0114602
0.0112912
0.0112146
0.0110676
0.0109777
0.0108595
0.010784
0.0107052
0.0106624
0.0106344
0.0117236
0.0115936
0.0116186
0.0114562
0.011413
0.0112441
0.0111606
0.0110052
0.0109114
0.0107853
0.0107049
0.0106196
0.0105738
0.0105445
0.0157359
0.0118467
0.0115258
0.0116583
0.0114218
0.0114102
0.0112148
0.0111369
0.0109716
0.0108764
0.0107453
0.0106622
0.0105733
0.0105268
0.0104969
0.0145526
0.0118117
0.0115333
0.0116377
0.0114141
0.0113927
0.0111981
0.0111171
0.0109496
0.0108524
0.0107191
0.0106342
0.0105443
0.0104971
0.0104669
0.0147501
0.0135671
0.0141901
0.0138123
0.0109356
0.0107214
0.010849
0.0108118
0.0146607
0.0129964
0.0108199
0.0106686
0.0105184
0.0105872
0.0105179
0.0105271
0.0148055
0.0108384
0.0106938
0.0106109
0.0105889
0.0106689
0.0105928
0.0106337
0.0106096
0.0108816
0.0106264
0.0105938
0.0105254
0.0105657
0.0104909
0.0104358
0.0104132
0.0103773
0.0103677
0.0110098
0.0104901
0.010666
0.0105764
0.0105439
0.0104752
0.0104189
0.0104018
0.0103479
0.0103427
0.0103223
0.0148208
0.0106512
0.0106758
0.0105384
0.0105013
0.0103924
0.0103525
0.0102631
0.0102119
0.0101579
0.0101263
0.0101068
0.0146697
0.0108484
0.010602
0.0105851
0.0105046
0.0104264
0.0103341
0.010256
0.01017
0.0101168
0.0100556
0.0100286
0.0100062
0.0130039
0.010703
0.0105354
0.0105519
0.0103969
0.0103357
0.0102
0.0101259
0.0100177
0.00995327
0.0098836
0.00984725
0.00982277
0.0141952
0.0108261
0.0106187
0.0105738
0.0104813
0.0103562
0.0102577
0.0101263
0.0100319
0.0099218
0.00984992
0.00977677
0.00973862
0.00971254
0.0138165
0.0106729
0.0105939
0.0104956
0.0104226
0.0102657
0.0101714
0.0100184
0.00992216
0.00979847
0.00972076
0.00964031
0.00959744
0.00956872
0.0109379
0.0105206
0.0106712
0.0104376
0.0104033
0.0102131
0.0101176
0.00995363
0.00985017
0.00972059
0.00963658
0.00955253
0.00950787
0.00947913
0.010723
0.0105888
0.0105938
0.0104138
0.0103484
0.0101584
0.0100561
0.00988392
0.00977703
0.00964029
0.00955217
0.00946571
0.0094208
0.00939231
0.0147509
0.0108496
0.0105184
0.0106338
0.0103772
0.0103425
0.0101262
0.0100286
0.00984713
0.00973854
0.00959718
0.00950756
0.0094205
0.00937631
0.00934757
0.0135673
0.0108118
0.0105271
0.0106094
0.0103673
0.010322
0.0101065
0.010006
0.00982266
0.00971251
0.00956862
0.00947902
0.0093922
0.00934765
0.00931985
0.0137787
0.0125953
0.0132141
0.0128337
0.0099503
0.00972718
0.00985968
0.0098187
0.01368
0.0120127
0.00982754
0.00966497
0.00951823
0.00958658
0.00951724
0.00952605
0.0138231
0.00983711
0.00968474
0.00960304
0.00957646
0.00965353
0.00956779
0.00960825
0.00958089
0.0100053
0.00964452
0.00957028
0.00949745
0.00954455
0.00945036
0.00939799
0.00936527
0.00932889
0.00931654
0.00987559
0.00948835
0.00966323
0.00955368
0.00950438
0.00942929
0.00936188
0.0093379
0.00927586
0.00926801
0.00924477
0.0138299
0.00960242
0.00965538
0.00950658
0.00946125
0.00933319
0.00928615
0.00918174
0.00912601
0.00906364
0.00902958
0.00900735
0.0136887
0.00985452
0.00961539
0.00956742
0.00946391
0.00937069
0.00926028
0.00917072
0.00907175
0.00901164
0.00894276
0.00891282
0.00888766
0.0120203
0.00969774
0.00951913
0.00951651
0.00933787
0.00926167
0.00910786
0.0090231
0.00890253
0.00883185
0.00875581
0.00871677
0.0086901
0.0132191
0.00983365
0.00961127
0.0095538
0.00943616
0.00928989
0.00917233
0.00902338
0.00891674
0.00879528
0.00871751
0.00863838
0.00859818
0.00857026
0.0128379
0.00966916
0.00958113
0.00945465
0.0093656
0.00918437
0.00907331
0.00890323
0.00879571
0.00866229
0.00857902
0.0084948
0.00845183
0.00842383
0.00995271
0.00952087
0.00965614
0.00940025
0.00933974
0.00912737
0.00901258
0.00883219
0.00871776
0.00857852
0.00849215
0.00840907
0.00836745
0.00834049
0.00972883
0.00958828
0.00956924
0.00936643
0.00927683
0.00906443
0.00894342
0.00875621
0.00863874
0.00849473
0.0084091
0.00832667
0.00828577
0.00825981
0.0137795
0.00986036
0.00951786
0.00960867
0.00932906
0.00926811
0.0090296
0.00891286
0.00871669
0.00859815
0.00845157
0.00836726
0.00828554
0.00824618
0.00822027
0.0125954
0.0098187
0.009526
0.00958076
0.00931633
0.00924461
0.00900722
0.00888763
0.00869007
0.00857031
0.00842377
0.00834048
0.00825974
0.00822034
0.00819561
0.0128221
0.0116387
0.0122507
0.0118661
0.00897162
0.00873923
0.00887717
0.00883139
0.0127095
0.0110385
0.00884045
0.00866018
0.0085268
0.00858738
0.00852006
0.00852752
0.0128425
0.00884524
0.00867937
0.0085969
0.00856334
0.00863445
0.0085408
0.00858011
0.0085492
0.00886502
0.00859895
0.00857912
0.00847788
0.00851962
0.008404
0.00835321
0.00830918
0.00827344
0.00825769
0.00904223
0.00849569
0.00864576
0.00853262
0.0084624
0.00837684
0.00829548
0.00826468
0.00819464
0.00818431
0.00815812
0.0128543
0.00861832
0.00865476
0.00846404
0.00841258
0.0082639
0.00820965
0.00808929
0.00803012
0.00795896
0.00792384
0.00789895
0.0127174
0.00885423
0.00859001
0.00854058
0.00841528
0.00830595
0.00817548
0.00807527
0.00796363
0.00789774
0.0078226
0.00779093
0.00776375
0.0110453
0.00868772
0.00848748
0.00846947
0.00826754
0.00817672
0.00800425
0.0079107
0.00777902
0.00770489
0.00762397
0.00758437
0.00755595
0.0122554
0.00884571
0.00860323
0.00852622
0.00838195
0.00821262
0.00807663
0.00791085
0.00779439
0.00766435
0.00758307
0.00750198
0.00746318
0.00743596
0.0118701
0.008664
0.00856755
0.00840815
0.00829889
0.00809169
0.0079651
0.00777971
0.0076648
0.00752522
0.00744435
0.00736457
0.0073263
0.00730041
0.00897401
0.00852949
0.00863705
0.00835545
0.00826656
0.00803149
0.00789867
0.00770526
0.00758333
0.00744409
0.00736498
0.00728862
0.00725271
0.00722826
0.00874098
0.00858924
0.00854243
0.00831054
0.00819583
0.0079599
0.00782336
0.00762443
0.00750235
0.00736457
0.0072887
0.00721463
0.00718038
0.0071573
0.0128229
0.00887783
0.00852076
0.00858068
0.00827381
0.0081846
0.007924
0.00779106
0.00758435
0.00746317
0.0073261
0.00725259
0.0071802
0.00714733
0.00712459
0.0116388
0.00883138
0.00852747
0.00854915
0.00825763
0.00815812
0.00789896
0.00776384
0.007556
0.00743607
0.0073004
0.00722832
0.00715728
0.00712469
0.00710353
0.0118815
0.0106988
0.0112995
0.0109079
0.0079935
0.00775416
0.00789625
0.00784548
0.0117472
0.0100704
0.00785102
0.00764211
0.00753914
0.00758067
0.0075194
0.00752325
0.0118715
0.00784252
0.00766458
0.00758316
0.00754007
0.00760356
0.0075037
0.00754158
0.007507
0.008026
0.00758745
0.00756544
0.00744106
0.00747628
0.00734133
0.00729232
0.00723626
0.00720258
0.00718292
0.00786515
0.00749078
0.00763206
0.00749547
0.0074024
0.00730758
0.00721128
0.00717519
0.00709751
0.00708561
0.00705664
0.0118768
0.0075751
0.00762433
0.00740238
0.00734839
0.00717517
0.00711522
0.0069792
0.00691853
0.0068394
0.00680505
0.00677738
0.0117533
0.00784744
0.00757049
0.00749673
0.00734877
0.00722331
0.00707307
0.00696455
0.00684159
0.00677289
0.00669358
0.00666168
0.00663292
0.0100758
0.00767
0.00744684
0.00740634
0.0071773
0.00707391
0.0068841
0.00678571
0.00664599
0.00657222
0.00648995
0.00645461
0.00642773
0.0113036
0.00785516
0.00758771
0.00748083
0.00731117
0.00711729
0.00696553
0.00678566
0.0066639
0.00653181
0.0064564
0.0063821
0.00634968
0.00632563
0.0109115
0.00764521
0.0075436
0.00734483
0.00721417
0.00698126
0.00684293
0.00664669
0.00653231
0.00639912
0.00633067
0.00625995
0.00622971
0.0062074
0.00799582
0.00754202
0.00760603
0.00729442
0.00717694
0.0069198
0.00677378
0.00657259
0.00645665
0.00633054
0.00626513
0.0061998
0.00617197
0.00615148
0.00775591
0.00758257
0.00750538
0.00723771
0.0070988
0.00684043
0.00669441
0.00649046
0.0063825
0.00626003
0.00619993
0.00613776
0.00611157
0.00609266
0.0118822
0.00789693
0.00752009
0.0075422
0.00720304
0.007086
0.00680529
0.00666188
0.00645463
0.00634969
0.00622955
0.00617189
0.00611142
0.00608695
0.00606805
0.0106989
0.00784552
0.00752328
0.00750705
0.00718298
0.00705676
0.00677751
0.00663311
0.00642786
0.00632579
0.00620745
0.00615158
0.00609268
0.00606816
0.00605134
0.0109628
0.00978018
0.0103624
0.00996061
0.0070119
0.00676727
0.00691598
0.00685746
0.0107923
0.00910396
0.00685474
0.00661508
0.00653423
0.00655746
0.00650982
0.00650977
0.0108959
0.0068182
0.00663149
0.00654972
0.0065024
0.00655726
0.00645189
0.00649103
0.00645248
0.00687978
0.00652708
0.00653629
0.00638361
0.00641442
0.00625498
0.00621189
0.0061421
0.00611329
0.00608973
0.00701484
0.00649031
0.00658481
0.00643535
0.00631951
0.00621765
0.00610633
0.00606834
0.00598428
0.00597408
0.00594308
0.0109029
0.00654372
0.00659321
0.00631786
0.00626319
0.00606399
0.00600303
0.00585204
0.00579466
0.00570991
0.00567903
0.00564963
0.0107968
0.0068202
0.00653444
0.00643719
0.00626364
0.00612244
0.00595378
0.0058422
0.00571108
0.00564504
0.00556642
0.00554112
0.00551488
0.00910821
0.00663466
0.00638549
0.00632149
0.00606549
0.00595444
0.00575172
0.00565619
0.00551772
0.00545736
0.00538444
0.00535844
0.00533531
0.010366
0.00685822
0.00655312
0.00641744
0.00622004
0.00600441
0.00584293
0.0056562
0.00554374
0.00542414
0.00536602
0.00530346
0.00528087
0.00526106
0.00996386
0.00661823
0.00650555
0.00625796
0.00610876
0.00585382
0.00571229
0.0055184
0.00542458
0.00531066
0.00526191
0.00520493
0.00518481
0.00516697
0.00701398
0.00653654
0.00655945
0.00621381
0.00606995
0.00579582
0.00564588
0.00545774
0.00536626
0.00526181
0.00521647
0.0051649
0.00514662
0.00513053
0.00676896
0.00655922
0.00645352
0.00614356
0.00598562
0.00571098
0.00556729
0.00538498
0.00530387
0.00520507
0.00516507
0.00511686
0.00510007
0.00508544
0.0109636
0.00691666
0.00651053
0.00649167
0.00611382
0.00597454
0.00567933
0.00554135
0.00535849
0.00528089
0.00518469
0.00514656
0.00509993
0.00508445
0.0050702
0.00978038
0.0068576
0.0065099
0.00645266
0.00608991
0.00594334
0.00564986
0.00551514
0.00533549
0.00526126
0.00516706
0.00513066
0.00508548
0.00507031
0.00505798
0.0100657
0.00887875
0.00942646
0.00901408
0.0060029
0.00576326
0.00592346
0.00584927
0.00982952
0.00811517
0.00581411
0.00554184
0.00551206
0.00551835
0.00548546
0.00547992
0.00989858
0.00573108
0.00554211
0.00548749
0.00544684
0.00550952
0.0053992
0.00544479
0.00540001
0.00593973
0.00543588
0.00546891
0.00529648
0.00534078
0.00515456
0.00512945
0.0050459
0.00502637
0.00499888
0.00587708
0.00544939
0.0055276
0.00536094
0.00521966
0.00512382
0.00500251
0.00497286
0.00488513
0.00488091
0.00484801
0.00989929
0.00542724
0.00552378
0.00520344
0.00516859
0.00494738
0.00489883
0.00473527
0.00468898
0.00460361
0.00458478
0.00455887
0.009833
0.00573263
0.00547037
0.00536057
0.00516751
0.00502401
0.00484329
0.00473976
0.00461157
0.00456388
0.00449526
0.00448249
0.00446081
0.00811885
0.00554549
0.00529957
0.00522153
0.00494842
0.00484381
0.00463971
0.00456637
0.00444358
0.00440513
0.00434431
0.00433074
0.00431242
0.00942987
0.00581734
0.00549073
0.00534366
0.00512598
0.00489984
0.0047404
0.00456641
0.00448103
0.00438155
0.00434491
0.00429577
0.00428428
0.00426916
0.00901717
0.00554492
0.00544991
0.00515739
0.00500484
0.00473695
0.00461275
0.00444423
0.00438201
0.00429234
0.00426492
0.00422189
0.00421228
0.00419921
0.00600484
0.00551422
0.00551156
0.00513126
0.00497443
0.00469008
0.00456471
0.00440551
0.00434517
0.00426485
0.00423952
0.00420207
0.0041937
0.00418223
0.00576495
0.00552007
0.00540084
0.00504739
0.00488653
0.00460471
0.00449616
0.00434488
0.00429621
0.00422205
0.00420225
0.00416823
0.00416153
0.00415158
0.0100665
0.00592419
0.00548622
0.00544548
0.00502695
0.00488143
0.00458512
0.00448276
0.00433081
0.00428432
0.00421218
0.00419366
0.0041614
0.00415535
0.00414553
0.00887906
0.00584958
0.0054802
0.00540034
0.0049992
0.00484839
0.0045592
0.00446115
0.00431265
0.0042694
0.00419934
0.00418239
0.00415163
0.00414564
0.00413774
0.00915054
0.00796819
0.00849404
0.00800358
0.00482615
0.00454119
0.00473435
0.00463213
0.00885681
0.00701439
0.00456896
0.0041943
0.0042018
0.00419589
0.00419117
0.00418654
0.00878227
0.00442361
0.00417281
0.00413005
0.00409233
0.00417836
0.00406326
0.00413096
0.00408371
0.00482143
0.00407431
0.00413369
0.00392147
0.00398649
0.00375782
0.00376035
0.00366617
0.00366432
0.00363714
0.0047107
0.00416588
0.00422364
0.00402483
0.00384118
0.00375274
0.00361671
0.00360279
0.00352089
0.00353882
0.00351423
0.00877279
0.00406205
0.00421753
0.00381457
0.00381138
0.00356309
0.00353693
0.00337308
0.00335992
0.00328766
0.0032893
0.00327036
0.00886057
0.00442643
0.004137
0.00402424
0.0038096
0.00366992
0.00348773
0.00341518
0.00330764
0.00328941
0.00323847
0.00324273
0.0032283
0.00701839
0.00417721
0.00392574
0.00384349
0.00356417
0.00348792
0.00331261
0.00328247
0.00318708
0.00317973
0.00313652
0.00313813
0.00312584
0.00849748
0.00457227
0.00413356
0.00398964
0.00375501
0.00353775
0.00341572
0.00328246
0.00323942
0.00317079
0.00316104
0.00312922
0.00313028
0.00312089
0.00800664
0.00419745
0.00409553
0.00376065
0.00361907
0.00337472
0.00330876
0.00318768
0.00317123
0.00311298
0.00311159
0.00308516
0.00308704
0.00307903
0.00482799
0.00420389
0.00418033
0.0037621
0.00360443
0.00336098
0.00329023
0.00318008
0.0031613
0.00311153
0.00310935
0.00308749
0.00308902
0.00308257
0.0045429
0.00419762
0.00406493
0.00366768
0.00352232
0.00328878
0.00323937
0.00313709
0.00312967
0.00308535
0.00308768
0.00306884
0.00307137
0.00306607
0.00915145
0.00473514
0.00419198
0.00413168
0.00366494
0.00353939
0.00328966
0.00324301
0.00313822
0.00313034
0.00308697
0.003089
0.00307126
0.00307407
0.00306868
0.00796867
0.00463266
0.00418699
0.00408418
0.00363758
0.00351469
0.00327074
0.00322868
0.0031261
0.00312115
0.00307918
0.00308274
0.00306613
0.00306879
0.00306489
0.00874568
0.00744306
0.00796882
0.00734301
0.00452035
0.00435812
0.00456704
0.00440128
0.00826985
0.00613283
0.00415481
0.0037466
0.00398799
0.0038708
0.00384976
0.0038065
0.00786329
0.00388354
0.00362972
0.00382202
0.0037785
0.00397697
0.0038479
0.00394118
0.00387738
0.00423623
0.00339443
0.0037716
0.00351962
0.0037206
0.00343056
0.00349581
0.00337617
0.00340422
0.00338124
0.00433469
0.00377424
0.00385186
0.00373311
0.0035112
0.00349097
0.00336234
0.00341416
0.00335327
0.00340676
0.00339199
0.0078728
0.00341391
0.00385789
0.00340032
0.00352045
0.00327668
0.00334054
0.00320214
0.00324608
0.0031935
0.00322438
0.00321482
0.00827612
0.00388984
0.00377716
0.00373519
0.00351685
0.00344582
0.00330338
0.00330292
0.00323353
0.00326457
0.0032391
0.00326749
0.00326199
0.00613805
0.00363581
0.00352504
0.00351473
0.003278
0.00330485
0.00319321
0.0032371
0.00318495
0.00322015
0.00320032
0.0032213
0.00321682
0.00797247
0.0041584
0.00382599
0.00372421
0.00349358
0.00334142
0.00330379
0.00323703
0.00325724
0.00322959
0.00325555
0.00324569
0.00326285
0.00326034
0.00734613
0.00374999
0.00378196
0.00343407
0.00336506
0.00320399
0.00323493
0.00318559
0.00323007
0.0032129
0.00324394
0.00323818
0.00325419
0.00325255