/*--------------------------------*- C++ -*----------------------------------*\
| =========                 |                                                 |
| \\      /  F ield         | OpenFOAM: The Open Source CFD Toolbox           |
|  \\    /   O peration     | Version:  2.1.1                                 |
|   \\  /    A nd           | Web:      www.OpenFOAM.org                      |
|    \\/     M anipulation  |                                                 |
\*---------------------------------------------------------------------------*/
FoamFile
{
    version     2.0;
    format      ascii;
    class       volVectorField;
    location    "0.005";
    object      U;
}
// * * * * * * * * * * * * * * * * * * * * * * * * * * * * * * * * * * * * * //

dimensions      [0 1 -1 0 0 0 0];

internalField   nonuniform List<vector> 
10191
(
(0.000528287 -0.00387117 0.0146242)
(0.000178546 -0.00490993 0.0213412)
(0.000617917 -0.00166181 0.014349)
(-0.00363992 -0.00433876 0.0215853)
(-0.000351111 -0.000481889 0.0751791)
(0.000116885 -0.000154418 0.0936986)
(-9.00314e-05 -0.000255089 0.0888418)
(3.44011e-05 -0.000244934 0.0881801)
(0.000946138 -0.00285465 0.0145939)
(-0.00432942 -0.00493896 0.0264647)
(-0.000386759 -0.000333377 0.072004)
(0.000207369 -0.000270492 0.0885492)
(0.000177528 0.000399855 0.113399)
(4.55512e-05 0.000121317 0.116113)
(5.88158e-05 0.000241022 0.113268)
(1.4317e-05 0.000206604 0.112804)
(-0.00236079 -0.00506849 0.017747)
(-0.000406184 -0.000390207 0.0736903)
(4.69294e-05 -0.000345744 0.087566)
(0.0001142 0.000294551 0.11211)
(-0.00017711 8.31199e-05 0.114017)
(-0.000126956 -9.96637e-05 0.114763)
(-3.45009e-05 -7.58375e-05 0.113495)
(-5.61369e-05 -0.000106587 0.112554)
(5.07695e-06 -0.000111574 0.112306)
(-0.000583684 -0.00046008 0.0705367)
(0.000248594 -0.00034508 0.0887064)
(0.00017574 0.000346226 0.112344)
(-7.08525e-05 0.000112557 0.113543)
(-5.28311e-05 -5.8284e-06 0.114268)
(0.000100323 -2.94583e-05 0.113141)
(6.79023e-05 8.82423e-05 0.112612)
(4.73943e-05 7.81014e-05 0.112311)
(2.98137e-05 0.000121199 0.1121)
(1.18406e-05 0.000120857 0.111951)
(-0.000461976 -0.000580341 0.070493)
(0.000565438 0.000563422 0.112488)
(-0.000266402 8.32352e-05 0.113549)
(1.83086e-05 -1.75291e-05 0.113794)
(1.56099e-05 -6.52861e-05 0.112684)
(5.28329e-05 2.81308e-05 0.112233)
(-1.34852e-05 1.34665e-05 0.112194)
(-1.72406e-05 -1.53201e-05 0.112292)
(-8.36141e-06 -1.67227e-05 0.11232)
(-1.71068e-05 -2.95857e-05 0.112245)
(3.62757e-06 -3.2576e-05 0.112166)
(-0.00507212 -0.00235916 0.0177425)
(-0.000345075 0.000249931 0.0886799)
(8.31257e-05 -0.00026649 0.113539)
(6.90417e-05 6.91935e-05 0.112648)
(9.72407e-05 1.9461e-05 0.111789)
(3.9438e-05 6.48652e-05 0.111823)
(2.43833e-05 3.00219e-05 0.112005)
(5.1343e-05 3.9799e-05 0.112206)
(3.30456e-05 6.00207e-05 0.112332)
(3.3365e-05 6.33529e-05 0.112368)
(1.6095e-05 7.70575e-05 0.112341)
(9.59623e-06 7.87057e-05 0.112312)
(-0.00285553 0.000946588 0.014594)
(-0.000390334 -0.000406239 0.0736823)
(0.000346562 0.000175863 0.112329)
(-1.7482e-05 1.82342e-05 0.113785)
(1.9417e-05 9.73305e-05 0.111789)
(1.16634e-05 1.16543e-05 0.111677)
(2.22668e-05 1.88048e-05 0.111929)
(2.17055e-05 2.17495e-05 0.112119)
(1.38027e-05 2.09765e-05 0.112256)
(5.63217e-06 1.22305e-05 0.112344)
(8.41531e-06 1.16367e-05 0.112384)
(-2.07141e-06 6.27644e-06 0.112389)
(5.03185e-06 5.31101e-06 0.112388)
(-0.00493976 -0.00432912 0.0264648)
(-0.00034577 4.71036e-05 0.0875584)
(0.000112571 -7.07145e-05 0.113533)
(-6.53493e-05 1.56037e-05 0.112676)
(6.48364e-05 3.95204e-05 0.111823)
(1.87376e-05 2.23221e-05 0.11193)
(4.7213e-05 4.73226e-05 0.112093)
(2.58145e-05 3.47598e-05 0.112205)
(4.159e-05 4.67594e-05 0.112303)
(2.37298e-05 4.87342e-05 0.112376)
(2.75738e-05 5.43922e-05 0.112422)
(1.00168e-05 5.80957e-05 0.112443)
(8.69668e-06 5.95778e-05 0.112453)
(-0.00166188 0.00061797 0.0143489)
(-0.000333353 -0.000386737 0.0720032)
(0.000294518 0.000114155 0.112106)
(-5.81711e-06 -5.29023e-05 0.114262)
(2.8154e-05 5.27847e-05 0.112227)
(3.00253e-05 2.43574e-05 0.112003)
(2.17786e-05 2.16692e-05 0.112119)
(3.4715e-05 2.58392e-05 0.112205)
(2.12584e-05 2.12687e-05 0.112281)
(2.77137e-05 2.48668e-05 0.112357)
(1.31539e-05 1.98865e-05 0.112418)
(1.76328e-05 2.16266e-05 0.112464)
(3.02825e-06 1.89131e-05 0.11249)
(6.80575e-06 1.90709e-05 0.112504)
(-0.00433893 -0.00363985 0.0215853)
(-0.000270514 0.000207435 0.0885478)
(8.31408e-05 -0.000177072 0.114015)
(-2.9468e-05 0.000100417 0.113137)
(1.34665e-05 -1.34559e-05 0.112191)
(3.97665e-05 5.13882e-05 0.112204)
(2.09443e-05 1.38059e-05 0.112254)
(4.66994e-05 4.16172e-05 0.112302)
(2.48464e-05 2.77336e-05 0.112356)
(4.01166e-05 4.01568e-05 0.112419)
(2.03962e-05 3.70066e-05 0.112471)
(2.65463e-05 4.27384e-05 0.112515)
(7.47213e-06 4.27688e-05 0.112542)
(8.88676e-06 4.44161e-05 0.112557)
(-0.000481913 -0.000351108 0.075179)
(0.000399851 0.000177568 0.113398)
(-9.96602e-05 -0.000126975 0.114762)
(8.8243e-05 6.79218e-05 0.11261)
(-1.53382e-05 -1.7266e-05 0.11229)
(5.9992e-05 3.30323e-05 0.112331)
(1.22324e-05 5.60963e-06 0.112343)
(4.86958e-05 2.3734e-05 0.112375)
(1.98892e-05 1.31487e-05 0.112418)
(3.69895e-05 2.0398e-05 0.112472)
(1.57226e-05 1.57158e-05 0.11252)
(2.33555e-05 1.85796e-05 0.112562)
(4.6931e-06 1.67007e-05 0.11259)
(8.30884e-06 1.74447e-05 0.112606)
(-0.000154414 0.0001169 0.0936983)
(0.000121325 4.55844e-05 0.116113)
(-7.58415e-05 -3.44721e-05 0.113493)
(7.80891e-05 4.74316e-05 0.112309)
(-1.67504e-05 -8.33823e-06 0.112318)
(6.33258e-05 3.34174e-05 0.112366)
(1.16207e-05 8.44865e-06 0.112383)
(5.43409e-05 2.76176e-05 0.112422)
(2.15966e-05 1.76721e-05 0.112464)
(4.27026e-05 2.65788e-05 0.112516)
(1.85894e-05 2.33839e-05 0.112564)
(2.75161e-05 2.75664e-05 0.112609)
(6.32101e-06 2.68861e-05 0.11264)
(9.56631e-06 2.82088e-05 0.112659)
(-0.00387121 0.000528318 0.0146242)
(-0.000255084 -9.00246e-05 0.0888415)
(0.000241039 5.88332e-05 0.113267)
(-0.00010659 -5.61595e-05 0.112553)
(0.000121189 2.98311e-05 0.112099)
(-2.95849e-05 -1.71159e-05 0.112244)
(7.70441e-05 1.61299e-05 0.11234)
(6.27319e-06 -2.07813e-06 0.112389)
(5.80622e-05 1.00359e-05 0.112442)
(1.8898e-05 3.03633e-06 0.112489)
(4.27333e-05 7.49429e-06 0.112543)
(1.67224e-05 4.70235e-06 0.112592)
(2.6864e-05 6.3447e-06 0.112642)
(5.33627e-06 5.40078e-06 0.112681)
(9.65393e-06 5.9048e-06 0.112706)
(-0.00490994 0.000178573 0.0213412)
(-0.000244937 3.44219e-05 0.0881799)
(0.000206576 1.43484e-05 0.112804)
(-0.000111576 5.10169e-06 0.112306)
(0.000120862 1.18737e-05 0.111951)
(-3.25837e-05 3.64784e-06 0.112165)
(7.86844e-05 9.61556e-06 0.112311)
(5.28243e-06 5.04358e-06 0.112388)
(5.9545e-05 8.71695e-06 0.112453)
(1.90441e-05 6.8369e-06 0.112503)
(4.43851e-05 8.9525e-06 0.112557)
(1.74479e-05 8.34763e-06 0.112607)
(2.82171e-05 9.58833e-06 0.11266)
(5.88223e-06 9.75828e-06 0.112706)
(1.01734e-05 1.02251e-05 0.112739)
(0.000528387 -0.00387164 0.0146261)
(0.000178525 -0.00491037 0.0213435)
(0.00061825 -0.0016622 0.0143513)
(-0.00364048 -0.00433945 0.0215878)
(-0.000350443 -0.000478971 0.0751738)
(0.000116698 -0.000152508 0.0936936)
(-8.99115e-05 -0.000252392 0.088836)
(3.42057e-05 -0.000242454 0.0881734)
(0.000946304 -0.00285491 0.0145961)
(-0.00433017 -0.0049394 0.0264677)
(-0.000386784 -0.000331146 0.0719985)
(0.000213692 -0.000268704 0.0885444)
(0.000181399 0.000399488 0.113396)
(4.57721e-05 0.000125441 0.116108)
(6.00181e-05 0.000241854 0.113265)
(1.38627e-05 0.000209852 0.112802)
(-0.00236106 -0.00506945 0.017749)
(-0.000404902 -0.000388305 0.073685)
(5.32867e-05 -0.000342161 0.087564)
(0.000116454 0.000300712 0.112103)
(-0.00017854 8.73831e-05 0.114013)
(-0.000124621 -9.71539e-05 0.114757)
(-3.34577e-05 -7.29486e-05 0.113493)
(-5.63826e-05 -0.000104259 0.112551)
(7.29851e-06 -0.000108785 0.112304)
(-0.000579888 -0.000458326 0.0705336)
(0.000252793 -0.000345244 0.088703)
(0.000181382 0.000357295 0.11234)
(-6.78363e-05 0.000115167 0.113538)
(-5.38795e-05 -3.08568e-06 0.114265)
(0.000103291 -2.68927e-05 0.113138)
(7.03466e-05 9.33152e-05 0.112611)
(4.77356e-05 8.07434e-05 0.11231)
(3.10776e-05 0.000126436 0.1121)
(1.18395e-05 0.000124493 0.111951)
(-0.000459076 -0.000583162 0.0704915)
(0.000561927 0.000561631 0.112482)
(-0.000262136 8.75656e-05 0.113546)
(2.45541e-05 -1.58492e-05 0.113789)
(1.44854e-05 -6.33416e-05 0.112682)
(5.48757e-05 3.05993e-05 0.11223)
(-1.25062e-05 1.81629e-05 0.112193)
(-1.4903e-05 -1.28275e-05 0.112291)
(-7.16909e-06 -1.23962e-05 0.11232)
(-1.63252e-05 -2.60061e-05 0.112244)
(4.23338e-06 -2.85297e-05 0.112165)
(-0.00507299 -0.0023594 0.0177446)
(-0.000345166 0.000252512 0.0886767)
(8.7282e-05 -0.000262223 0.113536)
(7.64201e-05 7.66756e-05 0.112646)
(0.000100674 1.99423e-05 0.111788)
(4.324e-05 6.91372e-05 0.111821)
(2.59025e-05 3.34867e-05 0.112006)
(5.41737e-05 4.47333e-05 0.112206)
(3.50093e-05 6.46409e-05 0.112333)
(3.48243e-05 6.79663e-05 0.112369)
(1.71866e-05 8.19212e-05 0.112342)
(9.97615e-06 8.34748e-05 0.112313)
(-0.00285578 0.000946753 0.0145962)
(-0.000388398 -0.000404999 0.0736769)
(0.000357617 0.000181306 0.112325)
(-1.57991e-05 2.43751e-05 0.11378)
(1.98909e-05 0.000100767 0.111788)
(1.45892e-05 1.4593e-05 0.111676)
(2.39713e-05 2.15467e-05 0.111929)
(2.42594e-05 2.509e-05 0.112119)
(1.58435e-05 2.5031e-05 0.112256)
(7.61015e-06 1.58309e-05 0.112345)
(9.87633e-06 1.58162e-05 0.112385)
(-1.08718e-06 1.03163e-05 0.11239)
(5.54356e-06 9.50084e-06 0.112389)
(-0.00494021 -0.00432987 0.0264677)
(-0.000342182 5.34124e-05 0.0875563)
(0.000115188 -6.77247e-05 0.113528)
(-6.33857e-05 1.44563e-05 0.112675)
(6.91184e-05 4.33104e-05 0.11182)
(2.14771e-05 2.40314e-05 0.111931)
(5.13479e-05 5.14647e-05 0.112094)
(2.86033e-05 3.81461e-05 0.112207)
(4.46482e-05 5.12063e-05 0.112305)
(2.57997e-05 5.28536e-05 0.112378)
(2.94744e-05 5.90114e-05 0.112425)
(1.11343e-05 6.26062e-05 0.112445)
(9.10615e-06 6.41156e-05 0.112456)
(-0.00166226 0.000618306 0.0143512)
(-0.000331123 -0.000386753 0.0719977)
(0.000300686 0.000116416 0.1121)
(-3.06131e-06 -5.39467e-05 0.114259)
(3.06411e-05 5.48235e-05 0.112224)
(3.35059e-05 2.58648e-05 0.112004)
(2.51261e-05 2.42152e-05 0.112119)
(3.80979e-05 2.86277e-05 0.112207)
(2.41201e-05 2.41355e-05 0.112282)
(3.04666e-05 2.82156e-05 0.112358)
(1.52687e-05 2.31813e-05 0.112419)
(1.94579e-05 2.53054e-05 0.112466)
(3.9199e-06 2.24853e-05 0.112491)
(7.30062e-06 2.28316e-05 0.112505)
(-0.00433962 -0.00364042 0.0215878)
(-0.00026873 0.000213769 0.0885429)
(8.74065e-05 -0.000178482 0.114011)
(-2.69053e-05 0.000103387 0.113134)
(1.81694e-05 -1.24754e-05 0.11219)
(4.47041e-05 5.4205e-05 0.112204)
(2.50056e-05 1.58377e-05 0.112255)
(5.11524e-05 4.46737e-05 0.112304)
(2.81974e-05 3.0488e-05 0.112358)
(4.35868e-05 4.3628e-05 0.112421)
(2.27676e-05 4.02377e-05 0.112474)
(2.87043e-05 4.64682e-05 0.112517)
(8.66551e-06 4.64822e-05 0.112544)
(9.53489e-06 4.84259e-05 0.11256)
(-0.000478991 -0.000350435 0.0751737)
(0.000399486 0.000181455 0.113396)
(-9.71533e-05 -0.000124635 0.114756)
(9.33113e-05 7.03772e-05 0.112609)
(-1.2842e-05 -1.49192e-05 0.112289)
(6.46163e-05 3.4993e-05 0.112331)
(1.58497e-05 7.59384e-06 0.112343)
(5.28189e-05 2.58037e-05 0.112377)
(2.31822e-05 1.52589e-05 0.112419)
(4.022e-05 2.27623e-05 0.112475)
(1.80874e-05 1.80794e-05 0.112521)
(2.56537e-05 2.13212e-05 0.112564)
(5.86171e-06 1.93697e-05 0.112591)
(9.16203e-06 2.03917e-05 0.112608)
(-0.000152509 0.000116717 0.0936932)
(0.000125443 4.58076e-05 0.116108)
(-7.29537e-05 -3.34151e-05 0.113492)
(8.07324e-05 4.77866e-05 0.112308)
(-1.2431e-05 -7.12566e-06 0.112318)
(6.79396e-05 3.48992e-05 0.112367)
(1.58097e-05 9.92533e-06 0.112384)
(5.89532e-05 2.95193e-05 0.112424)
(2.52691e-05 1.95012e-05 0.112466)
(4.64357e-05 2.87405e-05 0.112519)
(2.13405e-05 2.56932e-05 0.112566)
(2.99761e-05 3.00378e-05 0.112611)
(7.71446e-06 2.95811e-05 0.112642)
(1.0234e-05 3.09871e-05 0.11266)
(-0.00387167 0.000528419 0.0146261)
(-0.000252385 -8.99005e-05 0.0888357)
(0.000241884 6.00399e-05 0.113264)
(-0.000104254 -5.64067e-05 0.11255)
(0.000126428 3.11089e-05 0.112098)
(-2.59919e-05 -1.63249e-05 0.112243)
(8.19086e-05 1.72487e-05 0.112341)
(1.03096e-05 -1.08994e-06 0.11239)
(6.25644e-05 1.11579e-05 0.112445)
(2.2469e-05 3.93128e-06 0.112491)
(4.64512e-05 8.70018e-06 0.112545)
(1.93997e-05 5.87554e-06 0.112593)
(2.95494e-05 7.73671e-06 0.112643)
(6.81092e-06 6.87224e-06 0.112682)
(1.05394e-05 7.83296e-06 0.112707)
(-0.00491038 0.000178552 0.0213435)
(-0.000242448 3.42316e-05 0.0881732)
(0.000209816 1.3901e-05 0.112802)
(-0.000108778 7.34263e-06 0.112303)
(0.000124512 1.18721e-05 0.11195)
(-2.85309e-05 4.25538e-06 0.112165)
(8.34493e-05 9.98267e-06 0.112313)
(9.46023e-06 5.55641e-06 0.112389)
(6.40763e-05 9.12873e-06 0.112455)
(2.28063e-05 7.33572e-06 0.112505)
(4.84015e-05 9.60276e-06 0.11256)
(2.03889e-05 9.20612e-06 0.112608)
(3.0976e-05 1.02638e-05 0.112662)
(7.81253e-06 1.06167e-05 0.112707)
(1.07246e-05 1.07583e-05 0.112741)
(0.000528384 -0.00387203 0.0146284)
(0.00017847 -0.00491076 0.0213461)
(0.000618554 -0.00166271 0.014354)
(-0.00364095 -0.00434048 0.0215907)
(-0.000348981 -0.000473861 0.0751686)
(0.000116511 -0.000150207 0.0936883)
(-9.12797e-05 -0.000249326 0.0888306)
(3.32923e-05 -0.000238962 0.0881676)
(0.000946185 -0.0028554 0.0145991)
(-0.00433053 -0.00493966 0.0264716)
(-0.000386419 -0.000328981 0.0719938)
(0.000222262 -0.000266153 0.0885414)
(0.000185992 0.000398874 0.113395)
(4.45969e-05 0.000130509 0.116104)
(6.24736e-05 0.000243714 0.113262)
(1.43224e-05 0.000214592 0.112801)
(-0.00236141 -0.00507055 0.0177518)
(-0.000402969 -0.000385055 0.0736817)
(5.88019e-05 -0.00033781 0.0875605)
(0.000118396 0.000308265 0.112096)
(-0.000179768 9.27908e-05 0.114009)
(-0.000121197 -9.58925e-05 0.114753)
(-3.11651e-05 -6.92981e-05 0.11349)
(-5.77426e-05 -0.000101435 0.112548)
(9.25784e-06 -0.000106295 0.112301)
(-0.000580439 -0.000454724 0.0705313)
(0.000256441 -0.000343464 0.0887001)
(0.000186097 0.000368241 0.112336)
(-6.51863e-05 0.000118431 0.113534)
(-5.40312e-05 7.31575e-07 0.114263)
(0.000106291 -2.36126e-05 0.113136)
(7.31215e-05 9.93817e-05 0.11261)
(4.85141e-05 8.27992e-05 0.11231)
(3.26284e-05 0.000131431 0.1121)
(1.18968e-05 0.000128297 0.111952)
(-0.000456216 -0.000579583 0.0704883)
(0.000561252 0.000559889 0.112477)
(-0.000258613 9.23715e-05 0.113544)
(3.02393e-05 -1.40615e-05 0.113785)
(1.3838e-05 -6.10003e-05 0.112681)
(5.66835e-05 3.40143e-05 0.112227)
(-1.13726e-05 2.32593e-05 0.112193)
(-1.27789e-05 -1.0096e-05 0.11229)
(-5.88656e-06 -8.28643e-06 0.112319)
(-1.58259e-05 -2.28249e-05 0.112244)
(4.93017e-06 -2.50196e-05 0.112165)
(-0.00507415 -0.00235978 0.0177473)
(-0.000343418 0.000257153 0.0886737)
(9.22126e-05 -0.000258706 0.113534)
(8.34867e-05 8.37227e-05 0.112645)
(0.00010306 2.13918e-05 0.111788)
(4.74786e-05 7.33547e-05 0.11182)
(2.83558e-05 3.74791e-05 0.112007)
(5.63697e-05 4.94644e-05 0.112207)
(3.67223e-05 6.924e-05 0.112335)
(3.61199e-05 7.20636e-05 0.112371)
(1.82792e-05 8.66607e-05 0.112344)
(1.05123e-05 8.79234e-05 0.112316)
(-0.00285628 0.000946629 0.0145992)
(-0.000385146 -0.000403075 0.0736737)
(0.000368534 0.000186135 0.112321)
(-1.39713e-05 3.00834e-05 0.113776)
(2.13495e-05 0.000103165 0.111788)
(1.73205e-05 1.73402e-05 0.111675)
(2.57364e-05 2.50728e-05 0.11193)
(2.64695e-05 2.7574e-05 0.112119)
(1.74914e-05 2.8785e-05 0.112257)
(9.0464e-06 1.90195e-05 0.112345)
(1.13043e-05 1.98645e-05 0.112386)
(-2.02354e-07 1.40367e-05 0.11239)
(5.96513e-06 1.334e-05 0.11239)
(-0.00494047 -0.00433022 0.0264716)
(-0.000337815 5.88957e-05 0.0875528)
(0.000118477 -6.50621e-05 0.113524)
(-6.10202e-05 1.38087e-05 0.112673)
(7.33453e-05 4.75477e-05 0.111819)
(2.49949e-05 2.58051e-05 0.111931)
(5.52709e-05 5.54077e-05 0.112095)
(3.1223e-05 4.11381e-05 0.112208)
(4.74784e-05 5.52955e-05 0.112307)
(2.77532e-05 5.66717e-05 0.11238)
(3.12846e-05 6.32982e-05 0.112427)
(1.20277e-05 6.65743e-05 0.112447)
(9.69149e-06 6.84043e-05 0.112457)
(-0.00166278 0.000618608 0.014354)
(-0.000328952 -0.000386379 0.0719931)
(0.000308244 0.000118374 0.112092)
(7.67299e-07 -5.4094e-05 0.114257)
(3.4085e-05 5.66154e-05 0.112222)
(3.75109e-05 2.82887e-05 0.112004)
(2.76171e-05 2.64064e-05 0.112119)
(4.10831e-05 3.12498e-05 0.112208)
(2.64649e-05 2.64889e-05 0.112282)
(3.28947e-05 3.11469e-05 0.112359)
(1.68497e-05 2.57401e-05 0.112419)
(2.10026e-05 2.83123e-05 0.112466)
(4.79508e-06 2.54311e-05 0.11249)
(7.95905e-06 2.60497e-05 0.112505)
(-0.00434065 -0.00364089 0.0215907)
(-0.000266183 0.00022235 0.08854)
(9.28224e-05 -0.000179701 0.114007)
(-2.3629e-05 0.000106397 0.113133)
(2.32599e-05 -1.13619e-05 0.11219)
(4.94387e-05 5.63082e-05 0.112205)
(2.87807e-05 1.74587e-05 0.112256)
(5.52495e-05 4.75e-05 0.112306)
(3.11285e-05 3.29221e-05 0.112359)
(4.66005e-05 4.66451e-05 0.112422)
(2.47643e-05 4.3025e-05 0.112473)
(3.08802e-05 4.9918e-05 0.112517)
(9.76425e-06 4.98154e-05 0.112544)
(1.03031e-05 5.17821e-05 0.11256)
(-0.000473876 -0.000348966 0.0751685)
(0.000398876 0.000186065 0.113394)
(-9.58899e-05 -0.000121203 0.114751)
(9.93612e-05 7.31625e-05 0.112608)
(-1.0182e-05 -1.27904e-05 0.112287)
(6.92197e-05 3.66767e-05 0.112333)
(1.91314e-05 9.02791e-06 0.112344)
(5.66591e-05 2.77508e-05 0.112379)
(2.574e-05 1.68348e-05 0.112419)
(4.30024e-05 2.47525e-05 0.112474)
(2.00919e-05 2.00888e-05 0.11252)
(2.77327e-05 2.35827e-05 0.112563)
(6.6384e-06 2.16841e-05 0.112589)
(9.88406e-06 2.28355e-05 0.112605)
(-0.000150208 0.000116533 0.0936879)
(0.000130507 4.46342e-05 0.116103)
(-6.93019e-05 -3.11211e-05 0.113489)
(8.27827e-05 4.85763e-05 0.112308)
(-8.36615e-06 -5.79696e-06 0.112318)
(7.20336e-05 3.63301e-05 0.112369)
(1.99017e-05 1.13971e-05 0.112385)
(6.32421e-05 3.13345e-05 0.112426)
(2.82739e-05 2.10529e-05 0.112465)
(4.98935e-05 3.09276e-05 0.112519)
(2.36111e-05 2.77869e-05 0.112564)
(3.24514e-05 3.2534e-05 0.112609)
(8.98673e-06 3.23633e-05 0.11264)
(1.10835e-05 3.40305e-05 0.112658)
(-0.00387207 0.000528416 0.0146284)
(-0.000249319 -9.12639e-05 0.0888302)
(0.000243746 6.25026e-05 0.113262)
(-0.000101418 -5.77557e-05 0.112547)
(0.000131451 3.26748e-05 0.112099)
(-2.27572e-05 -1.5792e-05 0.112242)
(8.66517e-05 1.84798e-05 0.112343)
(1.39943e-05 -1.7162e-07 0.11239)
(6.65169e-05 1.20614e-05 0.112446)
(2.54177e-05 4.80959e-06 0.11249)
(4.97849e-05 9.80159e-06 0.112545)
(2.1718e-05 6.64278e-06 0.112591)
(3.23188e-05 9.00633e-06 0.112641)
(8.13263e-06 8.1969e-06 0.112679)
(1.15331e-05 8.93159e-06 0.112705)
(-0.00491077 0.000178497 0.0213461)
(-0.000238943 3.33254e-05 0.0881674)
(0.00021456 1.43652e-05 0.1128)
(-0.000106279 9.3047e-06 0.1123)
(0.000128334 1.19322e-05 0.111952)
(-2.49417e-05 4.9557e-06 0.112164)
(8.78956e-05 1.05021e-05 0.112315)
(1.32155e-05 5.98698e-06 0.112389)
(6.83376e-05 9.7208e-06 0.112457)
(2.60145e-05 8.001e-06 0.112505)
(5.17547e-05 1.03558e-05 0.11256)
(2.28343e-05 9.93458e-06 0.112606)
(3.40122e-05 1.11095e-05 0.11266)
(8.91528e-06 1.15976e-05 0.112705)
(1.16537e-05 1.16877e-05 0.112737)
(0.000528236 -0.00387257 0.0146314)
(0.000178455 -0.00491129 0.0213497)
(0.000618858 -0.00166325 0.0143575)
(-0.00364143 -0.00434165 0.0215947)
(-0.000347403 -0.000467409 0.0751636)
(0.000116258 -0.000147515 0.0936836)
(-9.29386e-05 -0.000245421 0.0888261)
(3.27077e-05 -0.00023516 0.0881642)
(0.0009463 -0.002856 0.0146026)
(-0.00433124 -0.00494034 0.0264763)
(-0.000384969 -0.000327102 0.0719911)
(0.000232521 -0.000263054 0.0885404)
(0.000189337 0.000398413 0.113393)
(4.25018e-05 0.000134655 0.1161)
(6.51343e-05 0.000245891 0.113261)
(1.43325e-05 0.000218819 0.112798)
(-0.00236179 -0.00507177 0.0177552)
(-0.000400655 -0.000381667 0.0736794)
(6.2456e-05 -0.000332985 0.0875584)
(0.000120136 0.000316632 0.112091)
(-0.000180408 9.72439e-05 0.114007)
(-0.000118813 -9.52767e-05 0.114749)
(-2.87529e-05 -6.50383e-05 0.113487)
(-5.90483e-05 -9.85927e-05 0.112546)
(1.06505e-05 -0.000103389 0.112298)
(-0.000577137 -0.000450999 0.0705285)
(0.000260592 -0.000341132 0.0886987)
(0.000190107 0.000377522 0.112332)
(-6.23229e-05 0.000121725 0.113531)
(-5.37147e-05 5.03993e-06 0.114261)
(0.000109999 -2.04126e-05 0.113137)
(7.62645e-05 0.000105242 0.112612)
(4.91299e-05 8.52306e-05 0.112312)
(3.42894e-05 0.000135743 0.112103)
(1.20343e-05 0.000131764 0.111955)
(-0.00045197 -0.000579153 0.070486)
(0.000560731 0.000560114 0.112474)
(-0.000256064 9.76737e-05 0.113543)
(3.5192e-05 -1.16509e-05 0.113782)
(1.32508e-05 -5.8479e-05 0.112681)
(5.82716e-05 3.69487e-05 0.112227)
(-1.03104e-05 2.82001e-05 0.112194)
(-1.12616e-05 -8.11841e-06 0.112289)
(-4.92189e-06 -4.68176e-06 0.11232)
(-1.59525e-05 -2.0122e-05 0.112243)
(5.4708e-06 -2.22945e-05 0.112164)
(-0.00507533 -0.00236015 0.0177508)
(-0.000341031 0.000260593 0.0886723)
(9.74527e-05 -0.000256128 0.113533)
(9.00801e-05 9.04248e-05 0.112647)
(0.000104337 2.3022e-05 0.111788)
(5.07574e-05 7.73696e-05 0.111821)
(3.09232e-05 4.12242e-05 0.112007)
(5.8969e-05 5.32622e-05 0.112209)
(3.84287e-05 7.30615e-05 0.112337)
(3.75392e-05 7.55193e-05 0.112373)
(1.92136e-05 9.06435e-05 0.112347)
(1.05473e-05 9.16807e-05 0.112318)
(-0.00285688 0.00094674 0.0146027)
(-0.000381731 -0.000400773 0.0736713)
(0.000377841 0.000190066 0.112317)
(-1.14942e-05 3.49928e-05 0.113773)
(2.29493e-05 0.000104481 0.111789)
(1.94418e-05 1.95361e-05 0.111674)
(2.71116e-05 2.85551e-05 0.111932)
(2.76985e-05 2.97368e-05 0.112119)
(1.84905e-05 3.18271e-05 0.112258)
(1.01358e-05 2.10834e-05 0.112344)
(1.24197e-05 2.2604e-05 0.112386)
(1.51656e-09 1.60894e-05 0.112389)
(6.22413e-06 1.57066e-05 0.112387)
(-0.00494115 -0.00433092 0.0264763)
(-0.000332965 6.25308e-05 0.0875507)
(0.000121813 -6.21988e-05 0.113521)
(-5.84468e-05 1.31969e-05 0.112673)
(7.73646e-05 5.08054e-05 0.111821)
(2.84395e-05 2.7208e-05 0.111933)
(5.84517e-05 5.86336e-05 0.112098)
(3.32532e-05 4.33784e-05 0.112209)
(4.98726e-05 5.86818e-05 0.112308)
(2.90857e-05 5.95156e-05 0.11238)
(3.26727e-05 6.6297e-05 0.112427)
(1.26032e-05 6.94273e-05 0.112446)
(1.01422e-05 7.14836e-05 0.112457)
(-0.00166332 0.000618914 0.0143574)
(-0.000327063 -0.000384915 0.0719903)
(0.000316624 0.000120121 0.112087)
(5.10201e-06 -5.37807e-05 0.114255)
(3.70684e-05 5.8194e-05 0.112221)
(4.12719e-05 3.08355e-05 0.112005)
(2.97738e-05 2.76304e-05 0.112119)
(4.32983e-05 3.32877e-05 0.112209)
(2.78315e-05 2.78702e-05 0.112281)
(3.4441e-05 3.29055e-05 0.112358)
(1.74925e-05 2.69905e-05 0.112416)
(2.20898e-05 3.01289e-05 0.112463)
(5.06573e-06 2.68993e-05 0.112487)
(8.33004e-06 2.77131e-05 0.112501)
(-0.00434181 -0.00364136 0.0215947)
(-0.000263087 0.000232618 0.088539)
(9.72794e-05 -0.000180335 0.114005)
(-2.04024e-05 0.000110118 0.113133)
(2.82394e-05 -1.02843e-05 0.112191)
(5.3242e-05 5.89733e-05 0.112207)
(3.18109e-05 1.84617e-05 0.112256)
(5.86105e-05 4.98911e-05 0.112307)
(3.28821e-05 3.44838e-05 0.112358)
(4.88398e-05 4.88911e-05 0.112421)
(2.61177e-05 4.47623e-05 0.11247)
(3.24589e-05 5.23595e-05 0.112514)
(1.01759e-05 5.21705e-05 0.112539)
(1.08763e-05 5.43618e-05 0.112555)
(-0.000467426 -0.000347383 0.0751635)
(0.000398418 0.000189429 0.113392)
(-9.52571e-05 -0.000118809 0.114748)
(0.000105259 7.63263e-05 0.11261)
(-8.10053e-06 -1.12839e-05 0.112287)
(7.30441e-05 3.83998e-05 0.112336)
(2.11172e-05 1.00959e-05 0.112343)
(5.9484e-05 2.90766e-05 0.112379)
(2.69863e-05 1.74774e-05 0.112416)
(4.47255e-05 2.61049e-05 0.112472)
(2.09173e-05 2.09272e-05 0.112516)
(2.94195e-05 2.50273e-05 0.112557)
(7.03476e-06 2.32591e-05 0.112583)
(1.0562e-05 2.4782e-05 0.112598)
(-0.000147518 0.000116285 0.0936832)
(0.000134653 4.25488e-05 0.1161)
(-6.50354e-05 -2.8706e-05 0.113486)
(8.522e-05 4.91934e-05 0.11231)
(-4.72592e-06 -4.86672e-06 0.112318)
(7.54847e-05 3.76156e-05 0.112372)
(2.26055e-05 1.24809e-05 0.112384)
(6.62328e-05 3.27197e-05 0.112426)
(3.0089e-05 2.21456e-05 0.112462)
(5.23431e-05 3.25234e-05 0.112515)
(2.50599e-05 2.94938e-05 0.112559)
(3.47557e-05 3.48756e-05 0.112603)
(9.88233e-06 3.50575e-05 0.112632)
(1.22603e-05 3.71214e-05 0.11265)
(-0.00387261 0.000528269 0.0146314)
(-0.000245417 -9.2914e-05 0.0888258)
(0.000245922 6.51727e-05 0.113261)
(-9.85678e-05 -5.90513e-05 0.112545)
(0.000135764 3.4338e-05 0.112101)
(-2.00843e-05 -1.5947e-05 0.112241)
(9.06422e-05 1.92971e-05 0.112346)
(1.61017e-05 4.26223e-09 0.112388)
(6.93871e-05 1.26302e-05 0.112446)
(2.68988e-05 5.06746e-06 0.112486)
(5.21377e-05 1.02056e-05 0.11254)
(2.32988e-05 7.01507e-06 0.112585)
(3.4995e-05 9.88635e-06 0.112634)
(9.27117e-06 9.33397e-06 0.11267)
(1.25081e-05 1.07412e-05 0.112695)
(-0.0049113 0.00017848 0.0213497)
(-0.000235137 3.27526e-05 0.088164)
(0.000218787 1.43813e-05 0.112798)
(-0.000103374 1.07023e-05 0.112297)
(0.00013177 1.20745e-05 0.111954)
(-2.23003e-05 5.51612e-06 0.112163)
(9.165e-05 1.05796e-05 0.112318)
(1.56585e-05 6.27734e-06 0.112387)
(7.14253e-05 1.0181e-05 0.112456)
(2.76752e-05 8.39649e-06 0.1125)
(5.43334e-05 1.09241e-05 0.112555)
(2.47744e-05 1.06373e-05 0.112599)
(3.70903e-05 1.22852e-05 0.112651)
(1.07419e-05 1.25874e-05 0.112695)
(1.35616e-05 1.36172e-05 0.112728)
(0.00052815 -0.00387326 0.0146352)
(0.000178523 -0.00491206 0.0213543)
(0.000619342 -0.0016639 0.0143616)
(-0.00364211 -0.00434306 0.0215992)
(-0.000345435 -0.000460146 0.0751589)
(0.00011632 -0.0001445 0.0936801)
(-9.42579e-05 -0.00024078 0.0888236)
(3.28936e-05 -0.000231257 0.0881629)
(0.000946326 -0.00285685 0.0146068)
(-0.00433181 -0.00494113 0.0264819)
(-0.000382996 -0.000324755 0.0719905)
(0.000242403 -0.000259323 0.0885401)
(0.000191939 0.000397823 0.113393)
(4.03273e-05 0.000137409 0.116098)
(6.76038e-05 0.000247402 0.113262)
(1.33469e-05 0.000220967 0.112798)
(-0.00236215 -0.00507324 0.0177593)
(-0.000397702 -0.000377494 0.0736769)
(6.48124e-05 -0.000328148 0.087559)
(0.000121174 0.000323464 0.112088)
(-0.000181609 0.000101231 0.114007)
(-0.000117807 -9.46437e-05 0.114747)
(-2.64227e-05 -6.04334e-05 0.113485)
(-6.0525e-05 -9.61767e-05 0.112545)
(1.14535e-05 -9.98451e-05 0.112296)
(-0.000575394 -0.000445658 0.0705266)
(0.000264358 -0.000338181 0.0887004)
(0.000192798 0.00038513 0.112332)
(-6.01656e-05 0.000123813 0.113531)
(-5.30566e-05 9.34573e-06 0.114261)
(0.000114974 -1.74783e-05 0.113139)
(7.94505e-05 0.000110398 0.112617)
(4.93177e-05 8.73993e-05 0.112315)
(3.61655e-05 0.000138681 0.112107)
(1.2199e-05 0.000134081 0.111959)
(-0.000446985 -0.00057523 0.0704838)
(0.00056163 0.000560411 0.112473)
(-0.000255134 0.000103079 0.113543)
(3.88979e-05 -9.4529e-06 0.113781)
(1.31181e-05 -5.57768e-05 0.112682)
(6.01349e-05 3.93231e-05 0.112229)
(-1.05774e-05 3.20159e-05 0.112197)
(-1.11653e-05 -7.92425e-06 0.112289)
(-4.68725e-06 -2.43596e-06 0.11232)
(-1.7116e-05 -1.90429e-05 0.112241)
(5.74278e-06 -2.11364e-05 0.112163)
(-0.00507682 -0.0023605 0.0177548)
(-0.000338084 0.000264899 0.088674)
(0.000102959 -0.000255153 0.113534)
(9.61441e-05 9.67418e-05 0.11265)
(0.000104376 2.43502e-05 0.111791)
(5.29798e-05 8.10525e-05 0.111827)
(3.24709e-05 4.33032e-05 0.11201)
(6.15406e-05 5.49072e-05 0.112213)
(3.99125e-05 7.54516e-05 0.11234)
(3.87119e-05 7.72273e-05 0.112376)
(2.01835e-05 9.22954e-05 0.11235)
(1.08851e-05 9.33042e-05 0.11232)
(-0.00285773 0.000946767 0.0146069)
(-0.000377557 -0.000397823 0.0736688)
(0.000385514 0.000192831 0.112317)
(-8.98853e-06 3.87606e-05 0.113772)
(2.42376e-05 0.000104802 0.111791)
(2.0364e-05 2.07942e-05 0.111675)
(2.75385e-05 3.09147e-05 0.111935)
(2.73329e-05 3.06193e-05 0.112119)
(1.83602e-05 3.32369e-05 0.112259)
(1.01943e-05 2.0654e-05 0.112344)
(1.19016e-05 2.26612e-05 0.112385)
(-1.21689e-06 1.53819e-05 0.112386)
(6.53449e-06 1.49719e-05 0.112385)
(-0.00494194 -0.00433148 0.026482)
(-0.000328121 6.48888e-05 0.0875512)
(0.000123978 -6.00302e-05 0.113521)
(-5.54388e-05 1.3032e-05 0.112674)
(8.1067e-05 5.28213e-05 0.111826)
(3.05218e-05 2.76706e-05 0.111936)
(6.02136e-05 6.0485e-05 0.112101)
(3.37342e-05 4.35199e-05 0.11221)
(5.10088e-05 6.01241e-05 0.112308)
(2.91364e-05 6.01985e-05 0.112378)
(3.35458e-05 6.73114e-05 0.112424)
(1.28013e-05 7.11395e-05 0.112443)
(1.03638e-05 7.31877e-05 0.112452)
(-0.00166397 0.000619402 0.0143615)
(-0.000324714 -0.000382936 0.0719898)
(0.000323466 0.000121168 0.112085)
(9.44583e-06 -5.31219e-05 0.114255)
(3.95367e-05 6.00109e-05 0.112223)
(4.33731e-05 3.20974e-05 0.112007)
(3.06183e-05 2.72056e-05 0.112119)
(4.34062e-05 3.37698e-05 0.11221)
(2.70288e-05 2.70733e-05 0.112281)
(3.4791e-05 3.25919e-05 0.112356)
(1.70545e-05 2.61301e-05 0.112413)
(2.25517e-05 2.96897e-05 0.112458)
(4.51365e-06 2.5966e-05 0.11248)
(8.53919e-06 2.7069e-05 0.112493)
(-0.00434323 -0.00364204 0.0215992)
(-0.000259364 0.000242513 0.0885387)
(0.000101268 -0.000181523 0.114004)
(-1.74455e-05 0.000115111 0.113136)
(3.20803e-05 -1.05563e-05 0.112194)
(5.48899e-05 6.14925e-05 0.11221)
(3.32264e-05 1.8302e-05 0.112258)
(6.00283e-05 5.10199e-05 0.112308)
(3.2571e-05 3.48368e-05 0.112356)
(4.98848e-05 4.99402e-05 0.112417)
(2.59964e-05 4.62037e-05 0.112464)
(3.32192e-05 5.37641e-05 0.112505)
(1.01471e-05 5.39442e-05 0.112528)
(1.1161e-05 5.64782e-05 0.112542)
(-0.000460163 -0.000345409 0.0751588)
(0.000397834 0.000192053 0.113392)
(-9.46069e-05 -0.000117793 0.114746)
(0.000110437 7.95361e-05 0.112615)
(-7.8798e-06 -1.12016e-05 0.112287)
(7.543e-05 3.98976e-05 0.112339)
(2.06905e-05 1.01288e-05 0.112342)
(6.0159e-05 2.91235e-05 0.112378)
(2.61329e-05 1.70565e-05 0.112413)
(4.61652e-05 2.59926e-05 0.112465)
(2.08153e-05 2.08537e-05 0.112507)
(3.01812e-05 2.50397e-05 0.112545)
(7.16543e-06 2.34488e-05 0.112568)
(1.09686e-05 2.50321e-05 0.112583)
(-0.0001445 0.000116359 0.0936797)
(0.000137405 4.03798e-05 0.116098)
(-6.0428e-05 -2.63702e-05 0.113484)
(8.73865e-05 4.93839e-05 0.112314)
(-2.46389e-06 -4.64513e-06 0.112318)
(7.71842e-05 3.87731e-05 0.112374)
(2.26501e-05 1.19605e-05 0.112384)
(6.72605e-05 3.35942e-05 0.112423)
(2.96625e-05 2.26364e-05 0.112457)
(5.37568e-05 3.3297e-05 0.112506)
(2.50668e-05 3.02893e-05 0.112546)
(3.57572e-05 3.59386e-05 0.112586)
(1.0051e-05 3.65233e-05 0.112612)
(1.3002e-05 3.8976e-05 0.112628)
(-0.00387329 0.000528185 0.0146352)
(-0.000240782 -9.42209e-05 0.0888233)
(0.000247432 6.76549e-05 0.113262)
(-9.61375e-05 -6.05228e-05 0.112544)
(0.000138707 3.62199e-05 0.112106)