/*--------------------------------*- C++ -*----------------------------------*\
| =========                 |                                                 |
| \\      /  F ield         | OpenFOAM: The Open Source CFD Toolbox           |
|  \\    /   O peration     | Version:  2.1.1                                 |
|   \\  /    A nd           | Web:      www.OpenFOAM.org                      |
|    \\/     M anipulation  |                                                 |
\*---------------------------------------------------------------------------*/
FoamFile
{
    version     2.0;
    format      ascii;
    class       volScalarField;
    location    "0.0015";
    object      p;
}
// * * * * * * * * * * * * * * * * * * * * * * * * * * * * * * * * * * * * * //

dimensions      [0 2 -2 0 0 0 0];

internalField   nonuniform List<scalar> 
10229
(
0.0227055
0.0231102
0.0244869
0.0201859
0.020216
0.020101
0.0202902
0.0287357
0.0230949
0.0199542
0.0199578
0.0199953
0.0199523
0.0200686
0.0202054
0.0307019
0.0232443
0.0201012
0.0201031
0.0200783
0.0201083
0.0200387
0.0200319
0.0201191
0.0202194
0.0285376
0.025361
0.0199686
0.0199722
0.0199881
0.0199966
0.0200234
0.0200554
0.0199946
0.0200266
0.020071
0.0203065
0.0410091
0.0200265
0.0200313
0.0200263
0.0200387
0.0200322
0.0200368
0.0200672
0.0200517
0.020088
0.0199158
0.0203099
0.0387528
0.0199419
0.0199487
0.0199573
0.0199728
0.0199829
0.0200099
0.0200017
0.0200366
0.0200481
0.0200889
0.0200725
0.0328142
0.0199534
0.0199593
0.0199627
0.0199765
0.0199824
0.0199991
0.0200127
0.0200295
0.0200382
0.0200535
0.0200285
0.0202214
0.0301326
0.0198916
0.0199002
0.0199076
0.019927
0.0199373
0.0199675
0.0199717
0.0200157
0.0200053
0.0200701
0.0199972
0.0201211
0.0312738
0.0232095
0.0198839
0.0198911
0.0198979
0.0199169
0.019928
0.0199554
0.0199678
0.0200014
0.0200121
0.0200399
0.0200579
0.0200341
0.0202076
0.0283088
0.0198403
0.0198485
0.019857
0.0198803
0.0198931
0.0199288
0.0199385
0.0199843
0.0199848
0.0200347
0.0200256
0.0200405
0.0200704
0.0306696
0.0198269
0.0198352
0.0198437
0.0198678
0.0198811
0.0199184
0.019929
0.0199781
0.0199738
0.02004
0.019998
0.0201099
0.0199538
0.020293
0.0361959
0.0197991
0.0198083
0.0198177
0.0198442
0.0198582
0.0198999
0.0199099
0.019964
0.0199574
0.0200268
0.0199894
0.0200802
0.0199976
0.0201036
0.0320329
0.0197897
0.0197992
0.0198088
0.0198361
0.0198501
0.0198935
0.0199024
0.0199612
0.0199491
0.0200322
0.0199736
0.0201048
0.0199607
0.020219
0.0318018
0.0197802
0.01979
0.0197998
0.0198279
0.019842
0.0198866
0.0198954
0.0199561
0.0199438
0.0200287
0.0199709
0.0201039
0.019957
0.0201894
0.0311458
0.0216514
0.0220563
0.0234331
0.0191307
0.0191598
0.0190462
0.0192356
0.0276829
0.0220409
0.0188955
0.0188939
0.0189379
0.0188947
0.0190137
0.019151
0.0296488
0.0221904
0.019042
0.0190504
0.0190193
0.0190515
0.0189827
0.018975
0.0190631
0.0191661
0.0274841
0.0243077
0.0189039
0.0189088
0.0189252
0.0189328
0.0189604
0.0189948
0.0189354
0.0189698
0.0190155
0.0192555
0.0399763
0.0189571
0.0189633
0.0189592
0.0189728
0.0189662
0.0189724
0.0190066
0.0189917
0.0190335
0.0188591
0.0192527
0.0377012
0.0188656
0.0188749
0.0188858
0.0189023
0.0189108
0.0189356
0.0189364
0.0189762
0.0189882
0.0190342
0.0190164
0.0317616
0.018871
0.0188783
0.0188836
0.0188996
0.0189074
0.0189267
0.0189457
0.0189652
0.0189781
0.018994
0.0189718
0.0191683
0.0290794
0.0188019
0.0188105
0.0188203
0.0188429
0.0188564
0.0188914
0.0189
0.0189485
0.0189425
0.0190113
0.0189385
0.0190653
0.0302202
0.0221555
0.0187869
0.0187951
0.0188043
0.0188269
0.018842
0.0188748
0.0188927
0.0189323
0.0189515
0.0189781
0.0189975
0.0189775
0.0191533
0.0272555
0.0187354
0.0187451
0.0187564
0.0187837
0.0188009
0.0188425
0.0188578
0.0189107
0.0189178
0.0189702
0.0189628
0.0189849
0.0190158
0.0296163
0.0187161
0.0187262
0.0187376
0.0187662
0.0187843
0.0188279
0.0188441
0.0189
0.0188999
0.0189733
0.0189344
0.0190534
0.0188969
0.019238
0.0351446
0.0186829
0.0186939
0.0187065
0.0187379
0.0187573
0.0188055
0.0188213
0.0188824
0.0188795
0.0189579
0.0189264
0.0190213
0.0189403
0.0190487
0.0309802
0.01867
0.0186814
0.0186944
0.018727
0.0187465
0.0187969
0.0188118
0.0188776
0.0188692
0.0189625
0.0189102
0.0190531
0.0188957
0.0191625
0.0307483
0.0186586
0.0186702
0.0186835
0.0187171
0.018737
0.0187888
0.018804
0.0188721
0.0188645
0.0189583
0.0189062
0.0190447
0.0188983
0.0191339
0.0300923
0.020602
0.0210069
0.0223839
0.0180805
0.018109
0.0179955
0.0181857
0.0266347
0.0209913
0.0178405
0.0178399
0.0178851
0.0178397
0.0179628
0.0181004
0.0286002
0.0211408
0.0179852
0.0179946
0.0179624
0.0179983
0.0179284
0.0179223
0.0180111
0.0181168
0.0264351
0.0232585
0.0178403
0.0178454
0.0178635
0.0178712
0.0179014
0.0179375
0.0178808
0.0179164
0.0179632
0.0182017
0.0389107
0.0178877
0.0178943
0.0178912
0.0179078
0.0179037
0.0179112
0.0179528
0.0179364
0.0179818
0.0178062
0.0182053
0.0366547
0.0177849
0.0177939
0.0178074
0.017828
0.0178458
0.0178755
0.017876
0.0179183
0.0179313
0.0179828
0.0179648
0.0307132
0.0177855
0.0177934
0.0178008
0.0178208
0.0178336
0.0178577
0.0178799
0.0179028
0.0179199
0.0179382
0.0179184
0.018119
0.0280308
0.0177073
0.017717
0.0177294
0.0177559
0.0177739
0.0178144
0.0178276
0.0178813
0.0178787
0.0179546
0.0178833
0.0180133
0.0291707
0.0211058
0.0176847
0.0176945
0.0177063
0.0177332
0.0177531
0.0177921
0.0178153
0.0178599
0.017879
0.0179152
0.0179399
0.0179248
0.0181027
0.0262067
0.0176242
0.0176357
0.01765
0.0176823
0.0177048
0.0177534
0.0177748
0.0178346
0.0178443
0.0179058
0.017904
0.0179308
0.017965
0.0285677
0.0175982
0.0176102
0.017625
0.017659
0.0176828
0.017734
0.017757
0.0178223
0.0178314
0.0179096
0.0178732
0.0180003
0.017842
0.0181883
0.0340971
0.0175583
0.0175714
0.0175878
0.0176251
0.0176507
0.0177071
0.0177304
0.0178016
0.0178085
0.0178921
0.0178651
0.0179642
0.0178876
0.0179979
0.0299318
0.0175412
0.017555
0.0175719
0.0176109
0.0176369
0.0176958
0.0177183
0.0177942
0.0177946
0.0178952
0.017847
0.0179967
0.0178418
0.0181121
0.0296994
0.017527
0.0175413
0.0175588
0.0175989
0.0176256
0.0176861
0.017709
0.0177866
0.0177863
0.0178891
0.0178427
0.0179876
0.0178434
0.0180837
0.0290429
0.0195581
0.0199628
0.0213399
0.0170351
0.017064
0.0169499
0.017141
0.0255918
0.0199471
0.0167897
0.0167887
0.0168366
0.0167889
0.0169157
0.0170546
0.0275566
0.0200963
0.0169318
0.0169422
0.0169094
0.0169491
0.0168782
0.0168739
0.0169631
0.0170713
0.0253909
0.0222146
0.0167783
0.0167837
0.0168039
0.0168122
0.0168473
0.0168833
0.0168285
0.0168667
0.0169156
0.0171601
0.0378927
0.0168203
0.0168275
0.016825
0.0168446
0.016843
0.016856
0.016896
0.0168831
0.0169339
0.0167578
0.0171558
0.0356135
0.0167079
0.0167166
0.0167312
0.0167541
0.0167742
0.0168114
0.0168154
0.0168615
0.0168774
0.0169347
0.0169166
0.0296699
0.0166988
0.0167076
0.016717
0.0167406
0.0167573
0.0167873
0.0168143
0.0168424
0.0168644
0.0168857
0.0168691
0.0170736
0.0269872
0.0166084
0.0166196
0.0166348
0.0166657
0.0166887
0.0167358
0.0167548
0.0168154
0.0168175
0.0168986
0.0168315
0.0169653
0.028126
0.0200612
0.016577
0.0165885
0.0166034
0.0166355
0.0166607
0.0167071
0.0167366
0.0167889
0.0168138
0.0168589
0.0168862
0.0168766
0.0170569
0.0251634
0.0165058
0.0165193
0.0165373
0.0165754
0.016604
0.0166609
0.0166896
0.0167586
0.0167756
0.016845
0.0168489
0.0168802
0.0169177
0.0275239
0.016472
0.0164864
0.016505
0.0165455
0.0165759
0.0166362
0.0166668
0.016742
0.0167558
0.0168463
0.0168139
0.016951
0.016791
0.0171434
0.0330554
0.016424
0.0164399
0.0164608
0.016505
0.0165379
0.0166041
0.0166357
0.0167177
0.0167326
0.0168262
0.0168058
0.0169111
0.0168391
0.016952
0.028889
0.0164024
0.0164189
0.0164406
0.016487
0.0165205
0.0165897
0.0166209
0.0167089
0.016718
0.0168291
0.0167856
0.0169443
0.016791
0.0170667
0.0286557
0.0163844
0.016402
0.0164245
0.0164724
0.016507
0.016578
0.0166101
0.0166998
0.0167096
0.0168218
0.0167809
0.0169341
0.0167927
0.0170379
0.0279988
0.0185199
0.0189248
0.0203018
0.0159948
0.0160244
0.0159096
0.0161023
0.0245553
0.0189088
0.0157436
0.015742
0.015793
0.0157424
0.0158738
0.0160134
0.0265189
0.0190576
0.0158826
0.0158939
0.0158606
0.0159046
0.015832
0.0158307
0.0159199
0.0160309
0.0243524
0.0211762
0.0157178
0.0157237
0.0157466
0.0157552
0.0157951
0.015834
0.0157811
0.0158215
0.0158712
0.0161132
0.0368249
0.0157536
0.0157619
0.0157601
0.0157835
0.015784
0.0158013
0.0158438
0.0158332
0.0158894
0.0157138
0.0161213
0.0345796
0.0156274
0.0156373
0.0156545
0.0156804
0.0157051
0.0157474
0.0157522
0.0158023
0.0158268
0.0158921
0.0158739
0.028633
0.0156093
0.0156196
0.0156309
0.0156592
0.0156804
0.0157165
0.0157485
0.0157844
0.0158189
0.0158391
0.0158246
0.0160332
0.0259492
0.0155047
0.0155175
0.015536
0.015572
0.0156009
0.0156557
0.0156812
0.0157513
0.0157618
0.0158483
0.0157841
0.0159219
0.0270877
0.0190226
0.0154631
0.0154767
0.0154951
0.0155332
0.0155646
0.0156197
0.0156565
0.0157187
0.0157508
0.0158043
0.0158362
0.0158331
0.0160153
0.0241256
0.0153796
0.0153955
0.0154176
0.0154624
0.0154981
0.0155647
0.0156017
0.0156818
0.0157068
0.015786
0.0157968
0.0158338
0.0158756
0.0264861
0.0153365
0.0153535
0.015377
0.0154246
0.0154628
0.0155339
0.0155732
0.0156603
0.015682
0.0157851
0.0157571
0.0159062
0.0157444
0.0161043
0.03202
0.0152797
0.0152987
0.0153246
0.0153769
0.015418
0.0154956
0.0155369
0.0156316
0.0156558
0.0157613
0.0157485
0.015862
0.0157953
0.0159115
0.0278519
0.0152518
0.0152719
0.0152993
0.0153541
0.0153966
0.0154778
0.015519
0.015621
0.0156388
0.0157635
0.0157256
0.0158959
0.0157442
0.0160267
0.0276176
0.0152298
0.0152514
0.0152801
0.0153368
0.0153805
0.0154639
0.0155061
0.0156102
0.0156294
0.0157547
0.0157203
0.0158844
0.0157465
0.0159973
0.026961
0.0174881
0.0178934
0.0192706
0.0149606
0.0149911
0.0148755
0.0150715
0.023526
0.0178771
0.0147027
0.0147003
0.0147558
0.0147053
0.0148384
0.0149778
0.025488
0.0180253
0.0148374
0.0148502
0.0148156
0.0148608
0.0147901
0.014793
0.0148819
0.0149965
0.0233202
0.0201449
0.0146587
0.0146649
0.0146913
0.0147007
0.0147468
0.014789
0.0147386
0.0147818
0.0148339
0.0150922
0.03586
0.0146873
0.0146974
0.0146964
0.0147251
0.0147272
0.01475
0.014798
0.0147925
0.0148527
0.0146747
0.0150757
0.0335508
0.0145451
0.014556
0.0145767
0.0146063
0.014637
0.0146866
0.0146995
0.0147638
0.0147792
0.0148514
0.0148339
0.0276018
0.0145156
0.0145279
0.0145417
0.0145758
0.014602
0.0146464
0.0146858
0.0147286
0.0147582
0.0147931
0.014784
0.0149994
0.0249184
0.0143957
0.0144104
0.0144327
0.0144744
0.01451
0.0145739
0.0146065
0.014686
0.0147002
0.0147993
0.0147408
0.0148834
0.0260559
0.0179907
0.0143417
0.0143575
0.01438
0.0144247
0.0144636
0.0145283
0.0145745
0.0146476
0.014688
0.0147519
0.0147903
0.0147948
0.0149792
0.0230948
0.0142455
0.0142638
0.0142905
0.0143424
0.0143863
0.0144638
0.0145106
0.0146028
0.0146381
0.0147286
0.0147483
0.0147917
0.0148394
0.0254559
0.0141922
0.0142118
0.0142404
0.0142958
0.014343
0.0144253
0.0144755
0.0145769
0.0146077
0.0147264
0.0147032
0.0148641
0.0147051
0.0150728
0.0309923
0.0141257
0.0141478
0.0141795
0.0142402
0.0142909
0.0143803
0.0144335
0.0145425
0.0145777
0.0146973
0.0146929
0.014817
0.0147574
0.0148768
0.0268222
0.0140904
0.0141144
0.0141483
0.0142122
0.0142648
0.0143586
0.0144119
0.0145292
0.0145575
0.0146987
0.0146664
0.0148517
0.0147023
0.014993
0.026587
0.0140638
0.01409
0.0141258
0.014192
0.0142462
0.0143423
0.0143969
0.0145165
0.0145467
0.0146881
0.0146606
0.0148387
0.0147053
0.014963
0.0259298
0.0164645
0.0168699
0.0182472
0.0139332
0.0139645
0.013847
0.0140467
0.0225041
0.0168528
0.0136677
0.0136637
0.0137233
0.0136649
0.0138081
0.0139486
0.0244647
0.0170005
0.0137963
0.0138109
0.013776
0.0138309
0.0137552
0.0137617
0.0138494
0.0139683
0.0222948
0.0191189
0.0136005
0.0136067
0.0136414
0.0136532
0.0137044
0.013749
0.0137013
0.0137456
0.0137955
0.0140403
0.034719
0.0136198
0.0136323
0.0136325
0.0136681
0.0136726
0.0137012
0.013754
0.0137527
0.0138206
0.0136405
0.0140724
0.0325358
0.0134611
0.0134733
0.0134974
0.0135317
0.0135684
0.0136265
0.0136429
0.0137135
0.0137363
0.0138193
0.0138043
0.0265807
0.0134166
0.0134312
0.0134481
0.0134884
0.0135207
0.0135739
0.013622
0.0136734
0.0137139
0.0137575
0.0137543
0.0139734
0.0238954
0.0132808
0.0132977
0.013324
0.0133724
0.0134149
0.0134891
0.0135304
0.0136222
0.0136438
0.0137542
0.0136971
0.0138495
0.0250314
0.0169665
0.0132131
0.0132314
0.0132582
0.01331
0.0133571
0.0134323
0.0134895
0.0135746
0.0136271
0.0137021
0.0137492
0.013761
0.0139493
0.0220723
0.0131035
0.0131245
0.0131561
0.0132156
0.0132683
0.0133571
0.0134152
0.0135211
0.0135691
0.0136728
0.013704
0.0137553
0.0138089
0.0244333
0.0130391
0.0130617
0.0130958
0.0131594
0.0132162
0.0133105
0.0133732
0.0134893
0.0135328
0.0136688
0.0136535
0.013832
0.0136661
0.0140481
0.0299731
0.012963
0.0129882
0.013026
0.0130954
0.0131563
0.0132584
0.0133246
0.0134486
0.0134982
0.0136334
0.0136429
0.0137771
0.013725
0.0138482
0.0258012
0.01292
0.0129476
0.0129887
0.013062
0.0131254
0.0132324
0.0132991
0.0134324
0.0134747
0.0136336
0.0136087
0.0138124
0.0136656
0.0139665
0.0255646
0.0128893
0.0129192
0.0129629
0.0130388
0.0131041
0.0132136
0.0132818
0.0134174
0.0134621
0.0136199
0.0136014
0.0137967
0.0136696
0.013935
0.024907
0.0154503
0.0158556
0.0172327
0.0129129
0.0129455
0.0128257
0.0130294
0.021491
0.0158368
0.0126395
0.0126336
0.0126978
0.0126354
0.012784
0.0129263
0.0234497
0.0159839
0.0127598
0.0127766
0.0127389
0.0127991
0.0127246
0.012735
0.0128215
0.0129464
0.0212772
0.018104
0.0125507
0.0125566
0.0125888
0.0125968
0.0126673
0.0127156
0.0126668
0.0127121
0.0127642
0.0130585
0.0338993
0.0125511
0.0125654
0.0125661
0.0126069
0.0126184
0.0126557
0.0127126
0.0127181
0.0127741
0.0126105
0.013024
0.0315238
0.012374
0.012388
0.0124151
0.0124556
0.0124974
0.0125646
0.0125883
0.0126681
0.0126965
0.0128116
0.0127729
0.025565
0.0123121
0.0123291
0.0123497
0.0123968
0.012436
0.0124992
0.0125568
0.0126193
0.0126699
0.0127226
0.012726
0.0129529
0.0228805
0.0121597
0.012179
0.0122093
0.0122648
0.0123149
0.0124001
0.0124513
0.012557
0.0125891
0.012713
0.0126698
0.0128237
0.0240157
0.0159507
0.0120775
0.0120982
0.0121296
0.0121889
0.0122446
0.0123312
0.0124003
0.0124995
0.0125649
0.0126555
0.012714
0.012737
0.0129276
0.0210582
0.0119544
0.0119781
0.0120145
0.0120818
0.0121436
0.0122444
0.012315
0.0124361
0.0124974
0.0126177
0.0126655
0.0127245
0.0127848
0.0234187
0.0118788
0.0119044
0.0119438
0.0120156
0.0120822
0.0121892
0.0122654
0.0123973
0.0124563
0.0126077
0.0125987
0.0128002
0.0126367
0.0130307
0.0289642
0.0117934
0.0118217
0.0118652
0.0119433
0.0120145
0.0121296
0.0122097
0.0123499
0.0124157
0.0125667
0.0125901
0.0127398
0.0126994
0.0128268
0.0247898
0.0117454
0.0117749
0.011822
0.0119046
0.0119789
0.0120991
0.0121802
0.0123302
0.0123891
0.0125665
0.012558
0.0127779
0.0126353
0.0129473
0.024551
0.0117143
0.0117448
0.0117933
0.0118786
0.0119547
0.0120776
0.0121604
0.0123126
0.0123746
0.012551
0.0125514
0.0127604
0.0126414
0.0129145
0.0238938
0.0144465
0.014852
0.0162284
0.0119
0.0119344
0.0118119
0.01202
0.0204879
0.0148303
0.0116187
0.0116114
0.0116795
0.0116141
0.0117656
0.0119117
0.022444
0.0149762
0.0117256
0.0117453
0.0117064
0.0117743
0.0116964
0.011714
0.0117997
0.011934
0.0202687
0.0170961
0.0114993
0.0115065
0.0115418
0.011559
0.0116187
0.0116814
0.0116395
0.0116943
0.0117365
0.0120004
0.032648
0.0114792
0.0114961
0.0114995
0.0115471
0.0115612
0.0116091
0.0116715
0.0116889
0.0117669
0.0115837
0.0120586
0.0305283
0.0112822
0.0112985
0.0113287
0.0113759
0.0114234
0.0115014
0.0115343
0.0116255
0.0116575
0.0117755
0.0117477
0.0245595
0.0112015
0.011221
0.0112453
0.0112997
0.0113464
0.011421
0.0114883
0.0115649
0.0116264
0.0116921
0.011698
0.0119368
0.0218746
0.011032
0.0110538
0.011088
0.0111508
0.0112088
0.0113058
0.0113683
0.0114882
0.0115344
0.0116712
0.0116397
0.0117996
0.0230086
0.0149438
0.0109352
0.0109585
0.0109941
0.0110609
0.0111253
0.0112242
0.0113059
0.011421
0.0115012
0.0116083
0.0116807
0.011715
0.0119126
0.0200542
0.0107998
0.0108257
0.0108664
0.0109412
0.0110119
0.0111251
0.0112088
0.0113462
0.0114231
0.0115605
0.0116181
0.0116963
0.0117661
0.0224145
0.0107143
0.0107422
0.0107862
0.0108655
0.0109416
0.0110612
0.0111513
0.0113001
0.0113765
0.0115475
0.0115597
0.011775
0.0116153
0.0120212
0.0279674
0.0106231
0.0106526
0.0106993
0.0107854
0.0108664
0.010994
0.0110882
0.0112455
0.011329
0.0114997
0.0115426
0.011707
0.0116807
0.0118128
0.023789
0.010576
0.0106054
0.0106529
0.0107424
0.0108265
0.0109592
0.0110548
0.0112219
0.0112995
0.011497
0.0115077
0.0117465
0.011613
0.011936
0.0235484
0.0105454
0.0105754
0.010623
0.0107139
0.0107997
0.0109351
0.0110324
0.0112019
0.0112827
0.0114793
0.0114999
0.0117262
0.0116206
0.0119015
0.0228912
0.013455
0.0138607
0.0152356
0.0108941
0.0109313
0.010805
0.0110195
0.019496
0.013834
0.0106065
0.0105976
0.0106682
0.0106
0.0107525
0.0109052
0.0214481
0.013978
0.0106912
0.0107148
0.0106752
0.0107523
0.0106745
0.0106986
0.0107827
0.0109273
0.0192696
0.0161021
0.0104464
0.0104555
0.0104927
0.0105166
0.0105748
0.0106528
0.0106142
0.01068
0.0107258
0.0110753
0.0320636
0.0104025
0.0104222
0.0104285
0.0104835
0.0105027
0.0105615
0.0106314
0.0106646
0.010754
0.010572
0.0109765
0.0295311
0.0101844
0.0102031
0.0102361
0.0102911
0.0103439
0.0104351
0.0104758
0.0105844
0.0106192
0.0107505
0.0107138
0.0235578
0.0100841
0.0101061
0.010134
0.010196
0.0102501
0.0103374
0.0104154
0.010508
0.0105836
0.010662
0.0106795
0.0109264
0.0208786
0.00989783
0.00992201
0.00995972
0.0100299
0.0100952
0.0102047
0.0102786
0.0104149
0.0104742
0.0106281
0.0106104
0.0107802
0.0220111
0.0139472
0.00978779
0.00981347
0.00985262
0.0099265
0.00999888
0.0101102
0.0102046
0.010337
0.0104341
0.0105595
0.0106504
0.0106976
0.0109054
0.0190611
0.00964221
0.00967022
0.00971407
0.00979523
0.00987365
0.00999874
0.0100951
0.0102497
0.0103433
0.0105018
0.0105738
0.0106741
0.0107524
0.0214214
0.00955236
0.0095805
0.00962615
0.00971105
0.00979548
0.00992681
0.0100302
0.0101964
0.0102914
0.0104836
0.0105171
0.0107527
0.0106011
0.0110204
0.0269841
0.00946363
0.00949226
0.00953762
0.00962526
0.00971404
0.00985248
0.00995987
0.010134
0.0102363
0.0104287
0.0104931
0.0106756
0.0106691
0.0108057
0.0228013
0.00941948
0.00944735
0.00949274
0.00958065
0.00967088
0.00981414
0.00992306
0.010107
0.0102042
0.0104233
0.0104568
0.0107161
0.0105991
0.0109328
0.0225588
0.00939034
0.0094188
0.00946354
0.00955188
0.009642
0.0097877
0.00989801
0.0100841
0.0101847
0.0104028
0.010447
0.0106919
0.0106081
0.0108955
0.0219014
0.0124765
0.0128829
0.0142552
0.00989522
0.00993598
0.00980458
0.0100279
0.018516
0.0128485
0.00959949
0.0095906
0.00966127
0.00959344
0.00974201
0.00990593
0.0204623
0.0129893
0.00965679
0.0096836
0.0096444
0.00973107
0.00965543
0.00968539
0.00977109
0.0099277
0.0182775
0.0151066
0.00938899
0.00940086
0.00943873
0.00947239
0.0095271
0.00962655
0.00959277
0.00969043
0.0096703
0.00994872
0.0304078
0.00931888
0.00934151
0.00935057
0.00941353
0.00943907
0.00951032
0.00959032
0.00964248
0.00972809
0.00956386
0.0100801
0.0285707
0.00907834
0.0090998
0.00913514
0.00919855
0.00925585
0.00936233
0.00941028
0.00953753
0.00958038
0.00973943
0.00972327
0.0225806
0.00895944
0.00898381
0.00901486
0.00908425
0.00914536
0.0092457
0.00933487
0.00944587
0.00953627
0.0096311
0.00964633
0.00991767
0.0198941
0.00875869
0.00878477
0.00882485
0.00890171
0.00897301
0.00909499
0.00917961
0.00933421
0.00940753
0.00958086
0.00957407
0.00976343
0.0210242
0.0129619
0.00863872
0.00866611
0.00870745
0.00878697
0.00886553
0.00898832
0.00909479
0.00924499
0.00936048
0.0095066
0.00962158
0.00968267
0.00990582
0.0180799
0.00848987
0.0085176
0.00856139
0.00864651
0.00873012
0.00886541
0.00897275
0.00914482
0.0092549
0.00943779
0.00952596
0.00965478
0.00974183
0.0204399
0.00840633
0.008433
0.00847552
0.00855939
0.00864646
0.00878717
0.00890197
0.00908453
0.00919872
0.00941371
0.00947277
0.00973137
0.00959415
0.0100287
0.0260171
0.00832357
0.0083501
0.00839133
0.00847508
0.00856123
0.00870731
0.00882486
0.00901474
0.00913519
0.00935062
0.00943882
0.0096444
0.00966156
0.00980484
0.0218278
0.0082847
0.00831019
0.00835072
0.00843322
0.00851824
0.00866678
0.00878567
0.00898466
0.00910089
0.00934253
0.00940204
0.00968472
0.0095918
0.00993729
0.0215822
0.00825774
0.00828406
0.00832349
0.00840584
0.00848973
0.00863855
0.00875862
0.0089593
0.00907846
0.0093192
0.00938956
0.00965749
0.00960071
0.00989636
0.0209248
0.0115136
0.0119203
0.0132886
0.0089018
0.00894701
0.00881027
0.00904273
0.0175493
0.011874
0.0085943
0.0085863
0.0086552
0.0085948
0.00872938
0.00891055
0.0194856
0.0120086
0.00861915
0.00864908
0.00861092
0.00870534
0.00863482
0.0086706
0.00875407
0.00892144
0.0172952
0.0141343
0.00832345
0.00833832
0.00837564
0.00842029
0.00847305
0.0085917
0.00855314
0.00865609
0.00868068
0.0090935
0.0303817
0.00822578
0.00825103
0.00826261
0.00833353
0.00836538
0.00844928
0.00853603
0.00860853
0.00872013
0.00856403
0.00894704
0.0276004
0.00796245
0.00798661
0.0080232
0.0080952
0.00815579
0.00827796
0.00833252
0.00848196
0.00853002
0.00871487
0.0086692
0.0215954
0.00782788
0.00785438
0.00788737
0.00796323
0.00802985
0.00814307
0.00824276
0.00837408
0.00847985
0.00860283
0.00864868
0.0089178
0.0189211
0.00761664
0.00764441
0.00768515
0.00776707
0.00784176
0.00797512
0.00806841
0.00824201
0.00833022
0.00853126
0.00854667
0.00875064
0.0200501
0.0119886
0.00749701
0.00752338
0.00756327
0.00764513
0.00772692
0.00785858
0.00797476
0.00814235
0.00827636
0.00844671
0.00858885
0.0086697
0.00891188
0.0171127
0.00735864
0.00738404
0.00742292
0.00750387
0.00758504
0.00772671
0.00784148
0.00802929
0.00815479
0.00836419
0.00847194
0.0086349
0.00873025
0.0194723
0.00728655
0.00731034
0.00734708
0.00742441
0.0075041
0.00764535
0.00776739
0.0079634
0.00809536
0.00833368
0.00842035
0.00870532
0.00859463
0.00904309
0.0250691
0.00721336
0.00723678
0.00727142
0.00734664
0.00742276
0.00756314
0.00768509
0.0078873
0.00802318
0.00826255
0.00837546
0.0086103
0.00865428
0.00880987
0.0208694
0.00718133
0.00720358
0.00723742
0.00731055
0.00738476
0.00752409
0.00764542
0.00785539
0.00798785
0.00825223
0.00833949
0.00864995
0.00858722
0.00894806
0.0206197
0.00715733
0.0071806
0.00721324
0.00728595
0.00735831
0.00749666
0.00761664
0.00782799
0.0079626
0.00822591
0.00832366
0.00861927
0.00859495
0.0089025
0.0199627
0.0105681
0.0109749
0.0123371
0.0079106
0.00796026
0.0078195
0.00805893
0.0165975
0.0109101
0.00758349
0.00757897
0.00764239
0.00760268
0.00770156
0.00791258
0.0185169
0.0110328
0.00757158
0.0076048
0.00756805
0.00766867
0.00760421
0.00764876
0.00773003
0.00790915
0.0163192
0.0131629
0.00724244
0.00726075
0.007296
0.00735251
0.00740287
0.0075397
0.00750543
0.00763082
0.00763489
0.00792608
0.0285152
0.00711858
0.00714629
0.00715919
0.0072376
0.00727433
0.00737235
0.00746646
0.00755893
0.00768414
0.00755457
0.00809264
0.0266656
0.0068347
0.00686091
0.00689684
0.00697662
0.00703834
0.0071761
0.00723555
0.00740943
0.00746159
0.00769453
0.00764652
0.0206298
0.00669106
0.00671874
0.00675174
0.00683194
0.00690094
0.00702554
0.0071333
0.0072851
0.00740857
0.00755882
0.00762731
0.00790775
0.0179592
0.00648172
0.00650778
0.00654452
0.00662734
0.00670169
0.0068432
0.00694113
0.00713282
0.00723428
0.00746449
0.00750265
0.00772944
0.0190908
0.0110268
0.00638021
0.00640355
0.0064369
0.00651206
0.0065875
0.00672157
0.00684265
0.00702486
0.00717479
0.00737089
0.00753866
0.00765039
0.00791762
0.0161589
0.00625923
0.00628093
0.0063119
0.0063836
0.00645234
0.00658735
0.00670149
0.00690042
0.00703741
0.0072735
0.00740221
0.00760689
0.00771299
0.0185199
0.00620369
0.00622364
0.00625221
0.00631849
0.00638386
0.00651232
0.0066276
0.00683213
0.00697679
0.00723777
0.00735262
0.00766681
0.00759227
0.00805759
0.0241425
0.00614263
0.00616198
0.00618831
0.00625175
0.00631177
0.00643666
0.00654434
0.00675156
0.00689665
0.00715909
0.00729549
0.0075662
0.00763814
0.00781792
0.0199287
0.00611892
0.00613714
0.00616271
0.00622395
0.0062817
0.00640429
0.00650884
0.00671986
0.00686218
0.00714761
0.00726192
0.00760554
0.00757937
0.00796124
0.0196733
0.00609887
0.00611808
0.00614241
0.0062031
0.00625881
0.00637967
0.00648144
0.0066907
0.00683442
0.00711847
0.00724238
0.0075715
0.00758408
0.00791094
0.0190169
0.00964228
0.0100506
0.0114036
0.00691712
0.00697325
0.00682588
0.00706927
0.0156658
0.00995797
0.00656515
0.00656395
0.00661292
0.00658941
0.00666924
0.00690805
0.0175575
0.010056
0.00651522
0.00655174
0.00651347
0.00661891
0.00656281
0.00660984
0.00668774
0.00687433
0.0153472
0.0122112
0.0061471
0.00616897
0.00619927
0.00626934
0.0063128
0.00647281
0.00643872
0.00658833
0.00660192
0.00711225
0.0286529
0.00600389
0.00603352
0.00604479
0.00612928
0.00616703
0.00627907
0.00637827
0.00649631
0.00665112
0.00654379
0.00687234
0.0257253
0.0057048
0.00573275
0.00576523
0.00585087
0.00590869
0.00606118
0.00612084
0.0063216
0.00637164
0.00663572
0.0065693
0.0196629
0.00557109
0.00559594
0.00562239
0.00570192
0.00576831
0.00590128
0.00601149
0.00618179
0.00631901
0.00649326
0.00659256
0.00687534
0.0170134
0.00538601
0.0054082
0.00543523
0.0055094
0.00557044
0.00571116
0.00580611
0.00601122
0.00611967
0.00637797
0.00644022
0.00668907
0.0181532
0.0100744
0.00531179
0.00533066
0.00535411
0.00541788
0.00547651
0.0055986
0.00571079
0.00590069
0.00606011
0.00627865
0.00647274
0.00661136
0.0069106
0.0152195
0.00521421
0.00523135
0.00525209
0.00531044
0.00535958
0.00547635
0.00557017
0.00576787
0.00590796
0.0061665
0.00631229
0.00656388
0.00667101
0.0175848
0.00517814
0.0051935
0.00521237
0.00526499
0.00531073
0.00541811
0.00550961
0.00570223
0.00585101
0.00612968
0.00626969
0.00661929
0.00658899
0.00707027
0.0232465
0.00513092
0.00514571
0.00516231
0.00521191
0.00525197
0.00535382
0.00543512
0.0056222
0.00576511
0.0060448
0.006199
0.00651279
0.00661198
0.00682537
0.0190108
0.00511669
0.00513028
0.00514639
0.00519381
0.00523203
0.00533134
0.00540918
0.00559705
0.00573408
0.00603498
0.00617036
0.00655315
0.00656502
0.00697517
0.0187475
0.00510131
0.00511575
0.00513062
0.00517746
0.00521375
0.00531113
0.00538554
0.00557055
0.00570438
0.00600355
0.00614671
0.00651478
0.00656548
0.00691706
0.0180939
0.00872816
0.0091424
0.0104802
0.00589112
0.00596044
0.00580116
0.00604134
0.0147526
0.00900799
0.00550854
0.00551174
0.00554612
0.00554109
0.00557308
0.00584804
0.016597
0.00905389
0.00543521
0.00547649
0.00543186
0.00554296
0.00548059
0.005524
0.00557747
0.00576863
0.014358
0.0112366
0.00502484
0.00504987
0.00507113
0.00515545
0.00518178
0.0053707
0.00532635
0.0055023
0.00545266
0.0058766
0.0266273
0.00487689
0.00490747
0.00491325
0.00500164
0.00503138
0.00515472
0.00524915
0.0053916
0.00555152
0.00548354
0.00601033
0.0248542
0.00458001
0.00460433
0.00462474
0.0047112
0.00475824
0.00492445
0.00497217
0.00519623
0.0052289
0.00555924
0.00546795
0.0187288
0.00448418
0.00450422
0.00451827
0.00458731
0.00463506
0.00476561
0.00486832
0.00505218
0.00519421
0.00539136
0.00549855
0.00577004
0.0160841
0.00433105
0.00434823
0.00436262
0.00442432
0.00446255
0.00458774
0.0046604
0.00486828
0.00497109
0.00524848
0.00532466
0.0055778
0.0172444
0.00911774
0.00428971
0.00430374
0.00431583
0.00436544
0.0044016
0.00450306
0.00458739
0.00476506
0.00492306
0.00515416
0.00536969
0.00552479
0.0058492
0.0142857
0.00421682
0.00422924
0.00423918
0.00428303
0.00430956
0.00440151
0.0044622
0.00463471
0.00475749
0.005031
0.00518125
0.00548111
0.00557364
0.0166749
0.00420051
0.00421133
0.00422022
0.00425865
0.00428336
0.00436556
0.00442456
0.00458769
0.00471137
0.00500235
0.00515602
0.00554443
0.00554223
0.00604345
0.0223811
0.00416741
0.00417756
0.00418439
0.0042197
0.0042389
0.00431542
0.00436235
0.00451799
0.00462454
0.00491326
0.00507116
0.00543199
0.00554654
0.00580149
0.0181102
0.00416249
0.00417149
0.00417812
0.00421155
0.00422979
0.0043043
0.00434916
0.00450543
0.00460581
0.00490936
0.00505183
0.00547889
0.0055139
0.00596389
0.0178394
0.00415181
0.00416155
0.00416684
0.00419957
0.00421612
0.00428874
0.00433029
0.00448349
0.00457938
0.00487618
0.00502416
0.00543445
0.00550868
0.0058906
0.0171955
0.00782367
0.00825482
0.00957921
0.00470692
0.00479979
0.00460897
0.00489025
0.0138658
0.00806132
0.00425083
0.00425224
0.00425808
0.00426354
0.00425636
0.00462781
0.0156534
0.00798901
0.00416229
0.00420454
0.00413778
0.0042527
0.00416491
0.00420305
0.00424029
0.00448733
0.0133418
0.0102812
0.00370396
0.00372856
0.00373254
0.00382791
0.00382594
0.00405675
0.00398954
0.00420302
0.00411863
0.00478108
0.0262401
0.00358487
0.00360649
0.00359022
0.00367326
0.00368727
0.00382533
0.00391091
0.0040938
0.00428154
0.00422893
0.00487196
0.0241445
0.00333114
0.00334813
0.00334807
0.00342163
0.00343578
0.00360298
0.00362782
0.00387898
0.00387702
0.00428855
0.00413127
0.0178262
0.0032913
0.0033037
0.00330014
0.00335203
0.00337021
0.00348047
0.00355239
0.00373822
0.00387573
0.00409252
0.00419756
0.00448824
0.0152172
0.00318335
0.00319411
0.00319316
0.00323709
0.00324444
0.00334256
0.00337198
0.00355202
0.0036263
0.00390985
0.00398636
0.00423973
0.016421
0.00817924
0.00318027
0.0031884
0.00318756
0.00321985
0.00322886
0.00330001
0.00334198
0.00347992
0.00360109
0.00382443
0.00405491
0.00420328
0.00462807
0.0133659
0.00313584
0.00314279
0.00314087
0.00316779
0.00316845
0.00322873
0.00324408
0.00336982
0.00343478
0.00368688
0.00382506
0.00416519
0.00425623
0.0158131
0.00314096
0.00314665
0.0031448
0.00316713
0.00316811
0.00322001
0.00323727
0.00335243
0.00342191
0.00367427
0.00382882
0.00425471
0.00426528
0.00489313
0.0215777
0.00312304
0.0031282
0.00312489
0.00314429
0.00314055
0.00318714
0.0031927
0.00329986
0.00334777
0.00359035
0.00373286
0.00413827
0.00425913
0.00460967
0.0172062
0.00312756
0.00313177
0.00312868
0.00314682
0.00314321
0.00318879
0.00319482
0.00330484
0.0033495
0.00360874
0.00373108
0.00420812
0.00425567
0.00480568
0.0169899
0.00312169
0.00312658
0.00312241
0.00313979
0.00313497
0.00317903
0.00318213
0.00329003
0.00332999
0.00358369
0.00370306
0.00416097
0.00425088
0.00470558
0.0163724
0.00722931
0.00774331
0.00911665
0.00443804
0.00459077
0.00438595
0.00454439
0.0136533
0.00752726
0.00381932
0.00385855
0.0038816
0.00400467
0.00376192
0.00417136