/*--------------------------------*- C++ -*----------------------------------*\
| =========                 |                                                 |
| \\      /  F ield         | OpenFOAM: The Open Source CFD Toolbox           |
|  \\    /   O peration     | Version:  2.1.1                                 |
|   \\  /    A nd           | Web:      www.OpenFOAM.org                      |
|    \\/     M anipulation  |                                                 |
\*---------------------------------------------------------------------------*/
FoamFile
{
    version     2.0;
    format      ascii;
    class       volScalarField;
    location    "0.0025";
    object      p;
}
// * * * * * * * * * * * * * * * * * * * * * * * * * * * * * * * * * * * * * //

dimensions      [0 2 -2 0 0 0 0];

internalField   nonuniform List<scalar> 
10266
(
0.0545079
0.0549119
0.0562864
0.0519917
0.0520213
0.0519052
0.0520972
0.0605276
0.0548987
0.0517866
0.051781
0.0518255
0.0517788
0.0518888
0.0520224
0.0624941
0.0550477
0.0519302
0.0519372
0.0519033
0.0519303
0.0518617
0.051852
0.0519275
0.0520287
0.0603302
0.0571541
0.0518401
0.0518426
0.0518509
0.0518533
0.0518658
0.0518906
0.0518352
0.0518461
0.0518901
0.0521175
0.0728157
0.0519005
0.0519018
0.0518922
0.0518964
0.0518821
0.0518838
0.0518936
0.0518851
0.0518993
0.0517332
0.0521166
0.07053
0.0518659
0.0518674
0.0518685
0.0518719
0.0518717
0.0518783
0.0518709
0.0518762
0.0518865
0.0518994
0.0518905
0.0645926
0.0518922
0.0518927
0.0518891
0.0518902
0.0518845
0.0518863
0.0518828
0.0518847
0.0518764
0.0518854
0.0518464
0.0520293
0.0619258
0.0518796
0.0518806
0.0518793
0.0518815
0.0518781
0.0518822
0.0518753
0.051883
0.0518711
0.051894
0.0518357
0.0519281
0.0630602
0.0550106
0.0518931
0.0518935
0.0518909
0.0518915
0.0518867
0.0518885
0.0518824
0.0518865
0.0518788
0.0518843
0.0518913
0.0518527
0.0520232
0.0601062
0.0518889
0.0518895
0.0518873
0.0518886
0.0518837
0.0518868
0.0518785
0.0518849
0.0518724
0.0518828
0.0518666
0.0518626
0.0518897
0.0624525
0.0518963
0.0518966
0.0518938
0.0518946
0.0518889
0.0518918
0.0518821
0.0518909
0.0518728
0.0518974
0.0518542
0.0519314
0.0517797
0.0520982
0.0679814
0.0518953
0.0518957
0.0518929
0.051894
0.0518878
0.0518915
0.0518803
0.05189
0.0518697
0.0518934
0.0518521
0.0519046
0.0518266
0.0519063
0.0638151
0.0518987
0.051899
0.051896
0.0518971
0.0518904
0.0518944
0.0518818
0.0518939
0.0518688
0.0519032
0.0518439
0.0519386
0.0517821
0.0520225
0.0635911
0.0518985
0.0518989
0.0518959
0.0518972
0.0518902
0.0518945
0.0518812
0.0518937
0.0518676
0.0519022
0.0518418
0.0519318
0.0517882
0.0519933
0.0629342
0.0534406
0.053845
0.0552195
0.0509262
0.0509564
0.0508394
0.0510308
0.0594613
0.053832
0.0507196
0.0507196
0.0507588
0.0507117
0.0508218
0.0509555
0.0614276
0.0539809
0.0508636
0.0508669
0.0508369
0.050864
0.0507953
0.0507855
0.050861
0.0509622
0.0592638
0.0560873
0.0507711
0.0507714
0.0507826
0.0507856
0.0507991
0.0508235
0.0507682
0.0507792
0.0508231
0.0510491
0.0717425
0.0508339
0.0508349
0.0508255
0.0508299
0.0508152
0.0508171
0.0508272
0.0508184
0.0508325
0.0506667
0.0510513
0.0694645
0.0507978
0.0507994
0.0508007
0.0508041
0.0508044
0.0508108
0.0508037
0.0508093
0.0508196
0.0508327
0.0508238
0.0635265
0.0508242
0.0508247
0.0508212
0.0508223
0.0508169
0.0508188
0.0508158
0.0508175
0.0508094
0.0508187
0.0507795
0.0509628
0.0608596
0.0508108
0.0508118
0.0508107
0.0508131
0.0508099
0.0508144
0.0508076
0.0508159
0.0508038
0.0508275
0.0507686
0.0508616
0.0619938
0.0539438
0.050824
0.0508243
0.0508218
0.0508227
0.0508182
0.0508204
0.0508147
0.0508192
0.0508113
0.0508176
0.0508242
0.0507863
0.0509563
0.0590398
0.050819
0.0508197
0.0508176
0.0508193
0.0508148
0.0508184
0.0508104
0.0508173
0.0508052
0.050816
0.0507999
0.0507963
0.0508227
0.0613863
0.050826
0.0508264
0.0508238
0.050825
0.0508197
0.0508232
0.0508138
0.0508231
0.0508052
0.050831
0.0507866
0.0508651
0.0507128
0.051032
0.0669153
0.0508244
0.0508251
0.0508225
0.0508241
0.0508183
0.0508225
0.0508118
0.0508221
0.0508021
0.0508269
0.0507839
0.0508383
0.05076
0.0508406
0.062749
0.0508276
0.0508282
0.0508254
0.050827
0.0508206
0.0508253
0.0508131
0.050826
0.0508009
0.0508364
0.0507728
0.0508684
0.050721
0.0509578
0.0625248
0.0508273
0.0508279
0.0508252
0.0508269
0.0508203
0.0508252
0.0508124
0.0508258
0.0507997
0.0508359
0.0507731
0.0508656
0.0507213
0.0509279
0.0618677
0.0523736
0.052778
0.0541524
0.0498588
0.0498876
0.0497723
0.049964
0.058395
0.0527654
0.0496509
0.0496435
0.0496899
0.0496444
0.0497547
0.0498884
0.060361
0.052914
0.0497982
0.0498052
0.0497713
0.0497975
0.0497288
0.0497189
0.0497943
0.0498955
0.0581972
0.0550206
0.0497039
0.0497092
0.0497157
0.049718
0.0497321
0.0497563
0.0497011
0.0497122
0.0497564
0.0499846
0.070689
0.0497678
0.0497692
0.0497591
0.0497633
0.0497483
0.0497503
0.0497606
0.0497515
0.0497657
0.0495999
0.0499822
0.0683978
0.0497296
0.0497312
0.049733
0.0497362
0.0497372
0.0497433
0.0497363
0.0497422
0.0497526
0.0497657
0.0497564
0.0624599
0.0497564
0.0497569
0.0497533
0.0497546
0.0497493
0.0497513
0.0497488
0.0497503
0.0497423
0.0497518
0.0497124
0.049896
0.0597928
0.0497421
0.049743
0.0497422
0.0497447
0.049742
0.0497466
0.0497399
0.0497488
0.0497364
0.0497609
0.0497014
0.0497948
0.0609271
0.0528769
0.0497549
0.0497552
0.049753
0.049754
0.0497499
0.0497524
0.0497469
0.0497516
0.0497438
0.0497508
0.0497569
0.0497196
0.0498892
0.0579731
0.0497493
0.0497501
0.0497483
0.0497503
0.0497461
0.04975
0.0497425
0.0497497
0.049738
0.0497491
0.0497329
0.0497296
0.0497556
0.0603198
0.0497559
0.0497565
0.0497542
0.0497557
0.0497507
0.0497545
0.0497456
0.0497555
0.0497373
0.0497643
0.049719
0.0497986
0.0496454
0.0499653
0.0658489
0.0497541
0.0497549
0.0497526
0.0497545
0.049749
0.0497537
0.0497434
0.0497543
0.0497343
0.0497605
0.049717
0.0497727
0.0496911
0.0497737
0.0616824
0.0497571
0.0497578
0.0497553
0.049757
0.0497511
0.0497562
0.0497443
0.0497582
0.0497327
0.0497707
0.0497106
0.0498066
0.0496447
0.0498891
0.0614579
0.0497568
0.0497575
0.0497549
0.0497569
0.0497507
0.0497561
0.0497437
0.049758
0.0497315
0.0497697
0.0497058
0.0498
0.0496525
0.0498604
0.0608006
0.0513068
0.0517109
0.0530853
0.0487933
0.0488231
0.0487061
0.0488973
0.0573283
0.0516985
0.0485843
0.0485866
0.0486236
0.0485771
0.0486874
0.0488212
0.059294
0.0518469
0.0487312
0.0487351
0.0487045
0.0487307
0.0486619
0.0486519
0.0487273
0.0488284
0.0571303
0.0539536
0.0486349
0.0486331
0.0486468
0.0486502
0.0486648
0.0486889
0.0486337
0.048645
0.0486889
0.0489153
0.0696091
0.0487007
0.0487007
0.0486919
0.0486962
0.0486812
0.0486831
0.0486938
0.0486845
0.0486986
0.048533
0.048917
0.0673312
0.0486613
0.0486629
0.048665
0.0486682
0.0486699
0.0486761
0.0486692
0.0486751
0.0486855
0.0486988
0.0486894
0.0613932
0.0486886
0.048689
0.0486855
0.0486868
0.0486817
0.0486839
0.048682
0.0486832
0.0486751
0.0486848
0.0486453
0.0488291
0.0587259
0.0486734
0.0486744
0.0486739
0.0486765
0.0486741
0.0486789
0.048672
0.0486813
0.048669
0.0486942
0.048634
0.0487279
0.0598601
0.0518099
0.0486856
0.0486862
0.0486842
0.0486854
0.0486817
0.0486843
0.0486791
0.048684
0.0486766
0.0486836
0.0486895
0.0486526
0.048822
0.0569063
0.0486798
0.0486808
0.0486793
0.0486814
0.0486776
0.0486817
0.0486746
0.0486821
0.0486706
0.048682
0.0486656
0.0486627
0.0486883
0.0592533
0.048686
0.0486867
0.0486847
0.0486863
0.0486818
0.0486859
0.0486773
0.0486878
0.0486693
0.0486972
0.0486511
0.0487317
0.0485781
0.0488987
0.0647823
0.0486841
0.048685
0.0486828
0.0486849
0.0486799
0.0486849
0.048675
0.0486866
0.0486662
0.0486933
0.0486479
0.0487058
0.0486249
0.0487076
0.0606155
0.048687
0.0486877
0.0486853
0.0486873
0.0486818
0.0486871
0.0486758
0.0486903
0.0486642
0.048702
0.048634
0.0487365
0.0485882
0.0488247
0.0603909
0.0486867
0.0486874
0.048685
0.0486871
0.0486813
0.048687
0.048675
0.0486901
0.0486629
0.0487025
0.0486365
0.048733
0.0485859
0.0487949
0.0597337
0.0502396
0.0506436
0.0520181
0.0477245
0.0477525
0.047638
0.0478299
0.0562612
0.0506311
0.0475148
0.0475056
0.0475536
0.0475095
0.04762
0.0477537
0.0582268
0.0507798
0.0476654
0.0476707
0.0476382
0.0476638
0.0475948
0.0475848
0.0476603
0.0477614
0.0560633
0.0528867
0.0475685
0.0475772
0.0475809
0.0475827
0.0475976
0.0476215
0.0475663
0.0475778
0.0476219
0.0478495
0.0685515
0.0476345
0.0476367
0.0476258
0.0476292
0.047614
0.0476158
0.0476268
0.0476175
0.0476317
0.0474662
0.0478486
0.0662647
0.0475931
0.0475951
0.0475973
0.0476003
0.0476025
0.0476087
0.0476016
0.0476079
0.0476185
0.0476318
0.0476221
0.0603264
0.0476206
0.047621
0.0476179
0.0476191
0.0476142
0.0476162
0.0476143
0.0476161
0.0476079
0.0476178
0.047578
0.0477621
0.0576591
0.0476047
0.0476059
0.0476057
0.0476083
0.0476063
0.0476112
0.0476047
0.0476143
0.0476018
0.0476273
0.0475667
0.0476609
0.058793
0.0507428
0.0476164
0.0476171
0.0476155
0.0476167
0.0476134
0.0476161
0.0476115
0.0476165
0.0476091
0.0476163
0.0476221
0.0475857
0.0477547
0.0558393
0.0476105
0.0476116
0.0476103
0.0476126
0.0476092
0.0476135
0.0476067
0.0476146
0.047603
0.0476148
0.0475984
0.0475958
0.047621
0.0581864
0.0476164
0.0476171
0.0476153
0.047617
0.047613
0.0476172
0.0476091
0.04762
0.0476012
0.0476303
0.0475837
0.0476649
0.0475106
0.0478313
0.0637152
0.0476144
0.0476152
0.0476133
0.0476155
0.0476109
0.0476161
0.0476067
0.047619
0.0475984
0.0476273
0.0475821
0.0476397
0.047555
0.0476395
0.0595481
0.0476171
0.0476177
0.0476156
0.0476176
0.0476125
0.0476181
0.0476072
0.0476225
0.0475965
0.0476382
0.0475782
0.047672
0.0475076
0.0477542
0.0593234
0.0476169
0.0476175
0.0476152
0.0476174
0.047612
0.0476179
0.0476064
0.0476224
0.0475951
0.0476367
0.0475704
0.0476675
0.0475165
0.0477262
0.058666
0.0491722
0.0495762
0.0509509
0.0466578
0.0466859
0.0465712
0.0467628
0.0551941
0.0495638
0.0464474
0.0464394
0.0464862
0.0464421
0.0465526
0.0466864
0.0571598
0.0497129
0.0465983
0.0466031
0.0465712
0.0465967
0.0465276
0.0465178
0.0465932
0.0466945
0.0549966
0.05182
0.0465001
0.0465083
0.0465128
0.0465149
0.0465303
0.0465541
0.046499
0.0465106
0.0465547
0.046782
0.0674805
0.046567
0.0465691
0.0465585
0.046562
0.0465467
0.0465486
0.0465599
0.0465503
0.0465646
0.0463992
0.0467819
0.0651979
0.0465245
0.0465267
0.0465291
0.0465323
0.0465349
0.0465413
0.0465342
0.0465406
0.0465515
0.0465648
0.046555
0.0592595
0.0465526
0.0465532
0.0465501
0.0465514
0.0465465
0.0465488
0.0465468
0.046549
0.0465406
0.0465507
0.0465108
0.0466951
0.0565921
0.0465359
0.0465374
0.0465372
0.0465401
0.0465384
0.0465436
0.0465373
0.046547
0.0465343
0.0465602
0.0464994
0.0465939
0.0577259
0.0496757
0.0465476
0.0465484
0.0465468
0.0465482
0.0465451
0.0465481
0.0465434
0.046549
0.0465415
0.0465491
0.0465547
0.0465187
0.0466874
0.0547723
0.0465415
0.0465426
0.0465413
0.0465439
0.0465407
0.0465455
0.0465387
0.0465472
0.0465355
0.0465477
0.0465312
0.0465288
0.0465538
0.0571194
0.0465468
0.0465476
0.0465459
0.0465479
0.0465441
0.0465488
0.0465406
0.0465523
0.0465332
0.0465632
0.0465161
0.0465981
0.0464432
0.0467643
0.0626481
0.0465447
0.0465456
0.0465438
0.0465463
0.046542
0.0465477
0.0465382
0.0465515
0.0465305
0.0465604
0.0465143
0.0465729
0.0464876
0.0465727
0.0584808
0.0465472
0.0465479
0.0465458
0.0465481
0.0465433
0.0465494
0.0465384
0.0465548
0.0465283
0.0465711
0.0465098
0.0466045
0.0464414
0.0466875
0.0582561
0.0465471
0.0465477
0.0465454
0.0465479
0.0465427
0.0465493
0.0465377
0.0465549
0.046527
0.0465698
0.0465024
0.0466008
0.0464492
0.0466595
0.0575987
0.0481046
0.0485092
0.049884
0.0455926
0.0456227
0.0455056
0.0456962
0.0541271
0.0484966
0.0453814
0.0453841
0.0454211
0.0453749
0.0454853
0.0456191
0.0560926
0.0486455
0.04553
0.0455342
0.0455037
0.0455295
0.0454604
0.0454507
0.045526
0.0456273
0.0539295
0.0507528
0.0454306
0.0454289
0.0454429
0.0454469
0.045463
0.0454866
0.0454316
0.0454434
0.0454875
0.045715
0.066415
0.0454987
0.0454984
0.0454901
0.0454944
0.0454793
0.0454813
0.0454922
0.0454836
0.0454974
0.0453321
0.0457146
0.064131
0.0454557
0.0454576
0.0454604
0.0454642
0.045467
0.0454737
0.0454664
0.0454733
0.0454844
0.0454976
0.0454878
0.0581925
0.0454847
0.0454854
0.0454821
0.0454837
0.0454786
0.0454814
0.045479
0.0454819
0.0454731
0.0454836
0.0454435
0.045628
0.055525
0.0454672
0.0454688
0.0454684
0.0454718
0.04547
0.0454757
0.0454694
0.0454795
0.0454668
0.0454931
0.0454321
0.0455268
0.0566587
0.0486084
0.045479
0.0454799
0.0454781
0.04548
0.0454767
0.0454804
0.0454755
0.0454818
0.0454739
0.0454821
0.0454873
0.0454517
0.0456201
0.0537051
0.0454723
0.0454737
0.0454721
0.0454755
0.0454719
0.0454775
0.0454705
0.0454797
0.0454678
0.0454806
0.0454639
0.0454618
0.0454865
0.0560524
0.0454772
0.0454783
0.0454765
0.0454792
0.0454752
0.0454807
0.0454721
0.0454849
0.0454652
0.045496
0.0454483
0.045531
0.0453759
0.0456976
0.0615811
0.0454749
0.0454762
0.0454741
0.0454775
0.0454727
0.0454796
0.0454696
0.045484
0.0454622
0.0454927
0.045445
0.0455057
0.0454219
0.0455067
0.0574138
0.045477
0.0454782
0.0454758
0.045479
0.0454739
0.0454811
0.0454696
0.0454872
0.0454596
0.0455014
0.0454321
0.0455354
0.045385
0.0456236
0.0571893
0.0454771
0.045478
0.0454755
0.0454788
0.0454733
0.0454811
0.0454689
0.0454873
0.0454583
0.0455018
0.0454331
0.0455328
0.0453831
0.0455945
0.0565321
0.0470373
0.0474419
0.0488168
0.0445255
0.0445554
0.0444385
0.044629
0.0530601
0.0474295
0.0443138
0.044316
0.0443535
0.0443075
0.044418
0.0445517
0.0550252
0.0475779
0.0444628
0.0444675
0.0444366
0.0444623
0.0443932
0.0443835
0.0444587
0.04456
0.052862
0.0496852
0.0443628
0.0443614
0.0443751
0.0443791
0.0443956
0.0444191
0.0443642
0.0443759
0.04442
0.0446472
0.065346
0.0444312
0.044431
0.0444227
0.0444271
0.0444117
0.0444142
0.0444254
0.0444159
0.0444299
0.0442648
0.0446475
0.0630638
0.0443872
0.0443893
0.0443921
0.0443962
0.044399
0.0444061
0.0443986
0.0444057
0.0444171
0.0444303
0.0444205
0.0571253
0.0444168
0.0444176
0.044414
0.0444161
0.0444107
0.0444141
0.0444112
0.0444147
0.0444055
0.0444164
0.0443761
0.0445608
0.0544576
0.0443983
0.0444
0.0443996
0.0444035
0.0444014
0.0444079
0.0444014
0.044412
0.044399
0.044426
0.0443647
0.0444596
0.0555913
0.0475409
0.0444105
0.0444116
0.0444096
0.0444121
0.0444084
0.0444129
0.0444074
0.0444146
0.0444063
0.044415
0.0444198
0.0443846
0.0445527
0.0526377
0.0444028
0.0444045
0.0444029
0.0444068
0.0444028
0.0444095
0.044402
0.0444122
0.0444
0.0444133
0.0443965
0.0443948
0.0444191
0.0549852
0.0444078
0.0444094
0.0444074
0.0444107
0.0444062
0.0444129
0.0444037
0.0444175
0.0443972
0.0444289
0.0443807
0.044464
0.0443085
0.0446302
0.0605138
0.044405
0.0444068
0.0444045
0.0444086
0.0444033
0.0444115
0.0444008
0.0444164
0.044394
0.044426
0.0443784
0.0444391
0.0443528
0.0444389
0.0563465
0.044407
0.0444085
0.0444061
0.04441
0.0444045
0.044413
0.0444008
0.0444196
0.0443914
0.044436
0.0443726
0.0444704
0.0443078
0.044554
0.056122
0.0444071
0.0444084
0.0444058
0.0444099
0.0444038
0.0444131
0.0444001
0.0444196
0.0443898
0.0444347
0.0443658
0.0444665
0.0443146
0.0445262
0.0554648
0.0459699
0.0463742
0.047749
0.0434566
0.043485
0.0433701
0.0435614
0.0519929
0.0463624
0.043245
0.0432386
0.0432839
0.0432399
0.0433506
0.0434843
0.0539579
0.0465107
0.0433967
0.0434013
0.0433697
0.0433951
0.0433259
0.0433162
0.0433914
0.0434927
0.0517947
0.0486179
0.043296
0.0433031
0.043309
0.0433115
0.0433282
0.0433515
0.0432965
0.0433085
0.0433526
0.0435803
0.0642814
0.0433644
0.0433663
0.0433561
0.0433599
0.0433442
0.0433468
0.0433577
0.0433487
0.0433625
0.0431975
0.0435796
0.0619965
0.0433191
0.0433216
0.0433241
0.0433283
0.0433308
0.0433385
0.0433306
0.0433383
0.0433497
0.043363
0.0433531
0.0560581
0.0433489
0.0433499
0.0433462
0.0433487
0.0433429
0.0433468
0.0433434
0.0433477
0.043338
0.0433493
0.0433087
0.0434936
0.0533904
0.0433293
0.0433313
0.0433308
0.0433352
0.0433328
0.0433399
0.0433332
0.0433444
0.0433312
0.0433588
0.0432972
0.0433924
0.0545239
0.0464736
0.0433422
0.0433435
0.0433414
0.0433443
0.0433402
0.0433453
0.0433394
0.0433475
0.0433386
0.0433479
0.0433523
0.0433174
0.0434853
0.0515706
0.0433334
0.0433353
0.0433336
0.043338
0.0433336
0.0433413
0.0433333
0.0433446
0.0433318
0.0433459
0.0433291
0.0433274
0.0433518
0.053918
0.0433389
0.0433406
0.0433384
0.0433422
0.0433374
0.043345
0.0433352
0.0433501
0.0433291
0.0433616
0.0433128
0.0433967
0.0432411
0.0435631
0.0594466
0.0433353
0.0433373
0.0433348
0.0433396
0.0433339
0.0433432
0.0433318
0.0433486
0.0433256
0.0433586
0.0433104
0.0433718
0.0432855
0.043372
0.0552794
0.0433373
0.0433392
0.0433366
0.0433413
0.0433353
0.0433449
0.0433319
0.043352
0.0433229
0.0433685
0.0433044
0.0434029
0.0432409
0.0434871
0.0550548
0.0433371
0.0433389
0.0433361
0.0433411
0.0433345
0.0433449
0.043331
0.043352
0.0433213
0.0433673
0.0432979
0.0433994
0.043247
0.0434591
0.0543973
0.0449024
0.0453067
0.0466815
0.0423894
0.0424176
0.0423027
0.042494
0.0509256
0.0452951
0.0421776
0.0421712
0.0422163
0.0421724
0.0422832
0.0424168
0.0528905
0.0454436
0.0423294
0.0423338
0.0423024
0.0423278
0.0422584
0.0422489
0.042324
0.0424254
0.0507274
0.0475507
0.0422281
0.0422354
0.0422413
0.0422438
0.0422607
0.0422839
0.0422289
0.042241
0.0422851
0.0425124
0.0632113
0.0422968
0.0422989
0.0422887
0.0422925
0.0422767
0.0422794
0.0422901
0.0422816
0.0422952
0.0421303
0.0425126
0.0609295
0.0422508
0.0422535
0.0422559
0.0422604
0.0422627
0.0422708
0.0422626
0.0422708
0.0422823
0.0422957
0.0422857
0.054991
0.0422811
0.0422823
0.0422786
0.0422812
0.0422753
0.0422794
0.0422757
0.0422805
0.0422705
0.042282
0.0422413
0.0424264
0.0523231
0.0422605
0.0422626
0.0422621
0.0422668
0.0422642
0.0422719
0.0422649
0.0422767
0.0422632
0.0422915
0.0422296
0.0423251
0.0534566
0.0454064
0.042274
0.0422755
0.0422732
0.0422763
0.042272
0.0422777
0.0422713
0.0422801
0.0422708
0.0422805
0.0422847
0.0422501
0.0424179
0.0505034
0.0422643
0.0422663
0.0422644
0.0422692
0.0422646
0.042273
0.0422645
0.0422768
0.0422635
0.0422784
0.0422615
0.0422601
0.0422844
0.0528509
0.0422702
0.0422719
0.0422695
0.0422738
0.0422686
0.042277
0.0422665
0.0422826
0.0422608
0.042294
0.0422448
0.0423294
0.0421737
0.0424962
0.0583796
0.0422659
0.0422679
0.0422653
0.0422707
0.0422647
0.0422749
0.0422627
0.0422809
0.042257
0.0422906
0.0422415
0.0423044
0.0422194
0.0423057
0.0542125
0.0422679
0.0422699
0.0422672
0.0422725
0.0422661
0.0422768
0.0422631
0.0422845
0.0422543
0.0422992
0.0422293
0.0423345
0.0421815
0.0424223
0.053988
0.0422672
0.0422693
0.0422664
0.042272
0.0422652
0.0422766
0.0422621
0.0422844
0.0422528
0.0422996
0.0422296
0.0423314
0.0421805
0.0423933
0.0533305
0.0438353
0.0442397
0.0456146
0.0413235
0.041353
0.0412362
0.0414269
0.0498582
0.0442274
0.0411111
0.0411131
0.0411505
0.0411051
0.0412157
0.0413493
0.0518231
0.0443763
0.0412609
0.0412645
0.0412346
0.0412603
0.0411909
0.0411815
0.0412566
0.041358
0.0496601
0.0464836
0.0411596
0.0411594
0.0411724
0.0411759
0.0411931
0.0412163
0.0411613
0.0411735
0.0412177
0.0414454
0.0621461
0.0412287
0.0412292
0.0412205
0.0412249
0.0412092
0.0412119
0.0412231
0.0412138
0.0412277
0.041063
0.041445
0.0598624
0.0411825
0.0411849
0.0411875
0.0411924
0.0411945
0.0412032
0.0411947
0.0412032
0.0412147
0.0412283
0.0412182
0.0539237
0.0412134
0.0412147
0.0412109
0.0412137
0.0412075
0.0412119
0.0412081
0.0412131
0.0412028
0.0412145
0.0411738
0.0413591
0.0512558
0.0411918
0.041194
0.0411932
0.0411983
0.0411955
0.0412035
0.0411965
0.0412091
0.0411951
0.0412241
0.041162
0.0412578
0.0523892
0.0443391
0.0412058
0.0412073
0.0412048
0.0412083
0.0412038
0.0412099
0.0412036
0.0412125
0.0412031
0.0412129
0.0412171
0.0411828
0.0413505
0.0494361
0.0411951
0.0411972
0.0411952
0.0412005
0.0411958
0.0412048
0.0411959
0.041209
0.0411952
0.0412109
0.0411939
0.0411927
0.041217
0.0517836
0.0412013
0.0412032
0.0412007
0.0412054
0.0411999
0.041209
0.041198
0.0412151
0.0411928
0.0412266
0.041177
0.0412622
0.0411065
0.0414288
0.0573124
0.0411965
0.0411987
0.041196
0.0412019
0.0411956
0.0412067
0.0411939
0.0412133
0.0411887
0.0412234
0.0411745
0.0412374
0.0411511
0.0412382
0.0531454
0.0411986
0.0412007
0.0411979
0.0412038
0.0411971
0.0412088
0.0411943
0.041217
0.0411861
0.041233
0.0411677
0.0412693
0.0411066
0.0413535
0.0529208
0.0411972
0.0411996
0.0411967
0.0412031
0.041196
0.0412085
0.0411932
0.0412169
0.0411846
0.0412325
0.0411625
0.041265
0.0411125
0.0413254
0.0522633
0.0427683
0.0431728
0.0445475
0.0402551
0.0402837
0.0401685
0.0403594
0.0487909
0.0431601
0.040043
0.0400365
0.040082
0.0400378
0.0401484
0.040282
0.0507558
0.0433088
0.0401942
0.0402
0.0401675
0.0401929
0.0401234
0.040114
0.0401892
0.0402907
0.0485927
0.0454162
0.0400928
0.040099
0.0401056
0.0401082
0.0401254
0.0401488
0.0400935
0.0401062
0.0401502
0.040378
0.0610779
0.0401612
0.0401629
0.040153
0.0401572
0.0401415
0.0401441
0.0401553
0.0401468
0.0401604
0.0399956
0.0403777
0.058795
0.0401144
0.0401168
0.0401192
0.0401244
0.0401263
0.0401355
0.0401266
0.0401357
0.040147
0.0401609
0.0401507
0.0528563
0.0401456
0.0401469
0.040143
0.040146
0.0401398
0.0401444
0.0401404
0.0401456
0.0401352
0.0401471
0.0401063
0.0402917
0.0501885
0.0401229
0.0401251
0.0401244
0.0401299
0.0401272
0.0401369
0.0401279
0.0401414
0.0401269
0.0401568
0.0400943
0.0401905
0.0513217
0.0432717
0.0401374
0.040139
0.0401365
0.0401403
0.0401357
0.0401421
0.0401344
0.0401446
0.0401354
0.0401453
0.0401495
0.0401154
0.040283
0.0483688
0.0401259
0.0401282
0.0401263
0.040132
0.0401271
0.0401367
0.0401271
0.0401412
0.0401269
0.0401435
0.0401263
0.0401253
0.0401496
0.0507162
0.0401324
0.0401344
0.0401319
0.0401371
0.0401314
0.0401411
0.0401297
0.0401475
0.0401247
0.040159
0.0401091
0.0401947
0.0400388
0.0403617
0.0562451
0.0401271
0.0401295
0.0401267
0.0401332
0.0401267
0.0401386
0.0401253
0.0401455
0.0401203
0.0401556
0.0401059
0.0401699
0.0400846
0.0401714
0.0520782
0.0401292
0.0401316
0.0401288
0.0401352
0.0401283
0.0401408
0.0401257
0.0401494
0.0401178
0.0401643
0.0400939
0.0402002
0.0400464
0.040288
0.0518537
0.0401277
0.0401303
0.0401274
0.0401343
0.040127
0.0401403
0.0401244
0.0401491
0.0401163
0.0401647
0.0400942
0.040197
0.0400457
0.0402591
0.0511962
0.0417014
0.0421057
0.0434804
0.0391892
0.0392189
0.0391019
0.0392922
0.0477236
0.0420928
0.0389769
0.0389789
0.0390164
0.0389705
0.039081
0.0392146
0.0496885
0.0422413
0.0391256
0.0391306
0.0390996
0.0391252
0.0390558
0.0390466
0.0391218
0.0392234
0.0475253
0.0443487
0.0390242
0.0390226
0.0390366
0.0390403
0.0390578
0.0390813
0.039026
0.0390387
0.0390826
0.0393107
0.0600105
0.0390927
0.0390928
0.0390844
0.0390892
0.0390739
0.0390763
0.0390884
0.0390787
0.0390929
0.0389281
0.0393103
0.0577276
0.0390459
0.0390482
0.0390507
0.0390563
0.039058
0.0390679
0.0390585
0.039068
0.0390792
0.0390935
0.0390831
0.0517888
0.0390776
0.0390789
0.0390749
0.039078
0.0390717
0.0390763
0.0390726
0.039078
0.0390676
0.0390796
0.0390387
0.0392244
0.049121
0.0390541
0.0390564
0.0390558
0.0390615
0.0390584
0.0390674
0.0390596
0.0390738
0.0390588
0.0390894
0.0390264
0.0391231
0.0502542
0.0422041
0.039069
0.0390707
0.0390682
0.0390722
0.0390674
0.0390743
0.039068
0.0390773
0.0390677
0.0390775
0.039082
0.039048
0.0392157
0.0473013
0.0390569
0.0390593
0.0390574
0.0390635
0.0390586
0.0390687
0.0390591
0.0390736
0.0390587
0.039076
0.0390586
0.0390579
0.0390821
0.0496488
0.0390636
0.0390657
0.0390633
0.0390688
0.0390629
0.0390733
0.0390615
0.0390798
0.0390568
0.0390915
0.0390415
0.0391273
0.0389716
0.0392941
0.0551776
0.0390578
0.0390603
0.0390577
0.0390646
0.039058
0.0390704
0.0390567
0.0390776
0.0390521
0.0390883
0.0390389
0.0391026
0.0390162
0.0391036
0.0510108
0.0390601
0.0390626
0.0390599
0.0390668
0.0390597
0.0390727
0.0390572
0.0390816
0.0390498
0.0390979
0.0390319
0.0391343
0.038972
0.0392189
0.0507862
0.0390585
0.0390613
0.0390585
0.0390658
0.0390582
0.039072
0.0390558
0.0390812
0.0390481
0.0390972
0.0390267
0.0391301
0.0389775
0.0391908
0.0501287
0.0406344
0.0410385
0.0424131
0.0381215
0.0381512
0.0380343
0.0382246
0.0466562
0.0410255
0.0379098
0.0379117
0.0379491
0.0379033
0.0380137
0.0381475
0.0486213
0.0411742
0.0380577
0.0380628
0.0380318
0.0380575
0.0379883
0.0379792
0.0380546
0.0381564
0.0464581
0.0432814
0.0379566
0.0379548
0.037969
0.0379727
0.0379902
0.038014
0.0379582
0.0379714
0.0380151
0.0382436
0.0589441
0.0380246
0.0380248
0.0380164
0.0380213
0.0380063
0.0380083
0.0380208
0.0380117
0.0380257
0.0378607
0.0382426
0.0566602
0.0379779
0.0379801
0.0379826
0.0379883
0.0379897
0.0380002
0.0379903
0.0380006
0.0380114
0.0380262
0.0380154
0.0507213
0.0380094
0.0380108
0.0380067
0.03801
0.0380038
0.0380086
0.0380049
0.0380105
0.0379999
0.0380121
0.0379711
0.0381572
0.0480535
0.0379855
0.0379879
0.0379872
0.0379932
0.0379901
0.0380004
0.0379911
0.038006
0.0379906
0.0380221
0.0379586
0.0380557
0.0491865
0.0411367
0.0380005
0.0380023
0.0379998
0.0380041
0.0379992
0.0380063
0.0379991
0.0380093
0.038
0.0380096
0.0380144
0.0379806
0.0381484
0.0462339
0.037988
0.0379905
0.0379886
0.0379949
0.03799
0.0380005
0.0379904
0.0380056
0.0379903
0.0380086
0.0379908
0.0379904
0.0380147
0.0485814
0.0379947
0.037997
0.0379946
0.0380004
0.0379945
0.0380051
0.0379931
0.0380119
0.0379888
0.0380238
0.0379736
0.0380597
0.0379041
0.0382267
0.0541102
0.0379886
0.0379913
0.0379887
0.037996
0.0379892
0.038002
0.0379881
0.0380097
0.0379838
0.0380203
0.0379704
0.0380349
0.0379494
0.0380366
0.0499433
0.0379911
0.0379938
0.0379911
0.0379982
0.0379909
0.0380044
0.0379887
0.0380136
0.0379815
0.038029
0.0379585
0.0380652
0.0379108
0.0381528
0.0497187
0.0379897
0.0379924
0.0379895
0.0379971
0.0379894
0.0380036
0.0379871
0.0380131
0.0379797
0.038029
0.0379584
0.0380617
0.0379104
0.0381242
0.0490611
0.039567
0.0399711
0.0413457
0.037052
0.0370806
0.0369657
0.0371564
0.0455888
0.0399585
0.0368414
0.0368346
0.0368804
0.036836
0.0369466
0.0370807
0.0475544
0.0401075
0.0369903
0.0369959
0.0369639
0.0369896
0.0369207
0.0369118
0.0369876
0.0370899
0.0453914
0.0422146
0.0368901
0.0368964
0.0369028
0.0369053
0.0369226
0.0369467
0.0368906
0.0369041
0.0369475
0.0371738
0.0578658
0.036957
0.0369589
0.0369489
0.0369535
0.0369385
0.0369401
0.0369537
0.0369443
0.0369586
0.0367935
0.0371774
0.0555929
0.0369102
0.0369125
0.0369147
0.0369205
0.0369215
0.0369329
0.0369221
0.036933
0.0369433
0.0369591
0.0369476
0.049654
0.0369413
0.0369425
0.0369385
0.0369419
0.0369358
0.0369407
0.0369372
0.0369429
0.0369322
0.0369445
0.0369034
0.0370904
0.0469863
0.0369172
0.0369195
0.0369187
0.0369249
0.0369215
0.036932
0.0369228
0.0369382
0.0369221
0.0369548
0.0368906
0.0369886
0.048119
0.0400699
0.0369322
0.0369339
0.0369313
0.0369357
0.0369308
0.0369381
0.0369313
0.0369414
0.0369321
0.0369417
0.0369468
0.0369132
0.0370814
0.0451669
0.0369193
0.0369217
0.0369198
0.0369263
0.0369213
0.0369321
0.0369218
0.0369376
0.0369219
0.0369408
0.036923
0.0369229
0.0369473
0.0475139
0.0369261
0.0369283
0.0369259
0.0369319
0.0369258
0.0369368
0.0369247
0.0369439
0.0369207
0.036956
0.0369059
0.036992
0.0368367
0.0371587
0.0530426
0.0369198
0.0369224
0.0369198
0.0369272
0.0369203
0.0369335
0.0369195
0.0369415
0.0369156
0.0369527
0.0369034
0.0369671
0.0368809
0.0369685
0.0488757
0.0369224
0.036925
0.0369222
0.0369295
0.0369221
0.036936
0.0369201
0.0369455
0.0369135
0.0369626
0.0368963
0.0369978
0.0368374
0.0370836
0.0486508
0.0369208
0.0369235
0.0369205
0.0369283
0.0369206
0.0369351
0.0369185
0.0369448
0.0369115
0.0369612
0.036891
0.0369945
0.0368423
0.0370559
0.0479933
0.0384995
0.0389038
0.0402785
0.0359849
0.0360144
0.0358982
0.0360883
0.0445214
0.0388917
0.0357755
0.0357774
0.0358149
0.035769
0.0358796
0.0360144
0.046488
0.0390416
0.035921
0.0359254
0.0358953
0.0359212
0.035853
0.0358446
0.035921
0.0360242
0.0443251
0.0411487
0.0358217
0.0358201
0.0358343
0.0358376
0.035855
0.0358794
0.0358228
0.0358369
0.0358811
0.0361216
0.0568623
0.035888
0.0358885
0.03588
0.0358852
0.0358706
0.0358723
0.0358864
0.0358772
0.0358922
0.0357267
0.0360964
0.0545241
0.035842
0.0358444
0.0358466
0.0358525
0.0358531
0.0358649
0.0358534
0.0358653
0.0358747
0.0358917
0.0358786
0.0485867
0.0358729
0.0358742
0.0358701
0.0358736
0.0358675
0.0358725
0.0358692
0.0358751
0.0358643
0.0358771
0.0358356
0.0360244
0.0459193
0.0358488
0.0358511
0.0358503
0.0358565
0.035853
0.0358639
0.0358543
0.0358703
0.0358534
0.0358874
0.0358225
0.0359216
0.0470516
0.0390033
0.0358639
0.0358654
0.0358628
0.0358672
0.0358623
0.0358699
0.0358631
0.0358733
0.0358642
0.0358737
0.0358792
0.0358459
0.036015
0.0441001
0.0358508
0.0358531
0.0358511
0.0358576
0.0358525
0.0358637
0.0358533
0.0358694
0.0358535
0.035873
0.0358551
0.0358554
0.03588
0.0464465
0.0358577
0.0358597
0.035857
0.0358632
0.0358571
0.0358684
0.0358563
0.0358758
0.0358525
0.035888
0.0358381
0.035924
0.0357696
0.0360907
0.0519752
0.035851
0.0358535
0.0358508
0.0358583
0.0358515
0.035865
0.0358509
0.0358732
0.0358473
0.0358845
0.0358354
0.0358991
0.0358137
0.035901
0.0478082
0.0358536
0.0358561
0.0358532
0.0358608
0.0358533
0.0358676
0.0358516
0.0358772
0.0358454
0.0358944
0.035828
0.0359293
0.0357707
0.0360159
0.0475831
0.0358518
0.0358545
0.0358515
0.0358594
0.0358517
0.0358666
0.0358499
0.0358764
0.0358432
0.0358927
0.0358222
0.0359272
0.0357752
0.0359886
0.0469259
0.0374331
0.0378373
0.0392118
0.0349154
0.0349436
0.0348293
0.0350192
0.0434545
0.0378259
0.0347081
0.0347033
0.0347474
0.034702
0.0348129
0.0349492
0.0454229
0.0379776
0.034852
0.0348566
0.0348263
0.0348522
0.0347852
0.0347772
0.034855
0.0349599
0.0432602
0.0400819
0.0347553
0.0347596
0.0347677
0.0347701
0.0347871
0.034812
0.0347547
0.0347689
0.0348085
0.0350037
0.055571
0.0348195
0.0348211
0.0348116
0.0348167
0.0348025
0.0348041
0.0348192
0.0348096
0.0348239
0.0346593
0.0350741
0.0534658
0.0347742
0.0347767
0.0347787
0.0347846
0.0347847
0.0347965
0.034784
0.0347972
0.034805
0.0348266
0.034815
0.0475232
0.0348044
0.0348056
0.0348016
0.0348052
0.0347993
0.0348042
0.0348014
0.0348072
0.0347961
0.0348098
0.0347678
0.0349596
0.0448531
0.0347803
0.0347827
0.0347819
0.0347882
0.0347846
0.0347957
0.0347861
0.0348021
0.0347841
0.0348198
0.0347539
0.0348551
0.0459847
0.0379382
0.0347952
0.0347968
0.0347942
0.0347988
0.0347939
0.0348016
0.0347949
0.0348051
0.0347964
0.0348055
0.0348115
0.0347784
0.0349499
0.0430344
0.0347817
0.0347843
0.0347823
0.034789
0.0347839
0.0347953
0.034785
0.0348012
0.0347849