/*--------------------------------*- C++ -*----------------------------------*\
| =========                 |                                                 |
| \\      /  F ield         | OpenFOAM: The Open Source CFD Toolbox           |
|  \\    /   O peration     | Version:  2.1.1                                 |
|   \\  /    A nd           | Web:      www.OpenFOAM.org                      |
|    \\/     M anipulation  |                                                 |
\*---------------------------------------------------------------------------*/
FoamFile
{
    version     2.0;
    format      ascii;
    class       volVectorField;
    location    "0.0025";
    object      U;
}
// * * * * * * * * * * * * * * * * * * * * * * * * * * * * * * * * * * * * * //

dimensions      [0 1 -1 0 0 0 0];

internalField   nonuniform List<vector> 
10266
(
(-6.91446e-07 -0.00498057 0.021718)
(-0.000706068 -0.00468281 0.019741)
(-0.00150407 -0.00127522 0.010438)
(-3.66898e-05 -0.000260582 0.088386)
(9.33827e-05 -0.000268025 0.0890389)
(-0.000116004 -0.000172381 0.0939223)
(0.000342388 -0.000494404 0.0753153)
(0.00143304 -0.00588847 0.0290376)
(0.000470807 -0.00324458 0.0180583)
(-9.59564e-06 0.000184788 0.112809)
(-5.56126e-05 0.000220734 0.113249)
(-3.59825e-05 0.000100644 0.116077)
(-0.000150711 0.000384283 0.113455)
(-0.000189399 -0.000277968 0.0887097)
(0.0003912 -0.000336184 0.0721628)
(0.00185189 -0.00882101 0.0308863)
(-0.000454582 -0.00451708 0.019288)
(-4.85369e-06 -0.000161463 0.112265)
(6.13256e-05 -0.000157312 0.112512)
(3.88058e-05 -0.000118004 0.113398)
(0.000127176 -0.000144976 0.114671)
(0.000177882 4.83084e-05 0.114005)
(-9.44896e-05 0.000266466 0.112203)
(-3.04506e-05 -0.000370161 0.0877122)
(0.000400751 -0.000396437 0.0738461)
(0.000608616 -0.00602834 0.031359)
(-0.0018545 -0.00423154 0.0149281)
(-7.73895e-06 6.7542e-05 0.111947)
(-1.74179e-05 7.15341e-05 0.112102)
(-3.05005e-05 2.6455e-05 0.1123)
(-3.37768e-05 4.65719e-05 0.112567)
(-6.6107e-05 -6.64597e-05 0.113067)
(5.36926e-05 -4.1259e-05 0.114183)
(0.00010006 8.70553e-05 0.11352)
(-0.000132517 0.000306421 0.112428)
(-0.000230621 -0.000347373 0.0888155)
(0.000587526 -0.000468537 0.0705793)
(-0.0116418 0.00240387 0.0164848)
(1.67961e-07 -8.96655e-05 0.112148)
(2.40721e-05 -8.48116e-05 0.112232)
(2.07035e-05 -7.18424e-05 0.11231)
(3.2856e-05 -6.09103e-05 0.112283)
(2.32267e-05 -4.39898e-05 0.112177)
(-2.08862e-05 -8.38803e-06 0.112186)
(1.416e-06 -9.86509e-05 0.112617)
(3.73176e-06 -4.43821e-05 0.113705)
(0.000291255 5.23791e-05 0.113538)
(-0.000566318 0.000566662 0.112564)
(0.000466686 -0.000587454 0.0706146)
(-0.00860958 0.00416685 0.0188819)
(-3.41397e-06 3.28742e-07 0.112292)
(-1.09839e-06 5.91399e-07 0.112322)
(-6.56888e-06 -1.16819e-05 0.112349)
(-1.84112e-06 -7.56074e-06 0.112317)
(-8.3179e-06 -2.49419e-05 0.112194)
(7.19839e-07 -1.55959e-05 0.112)
(1.74953e-06 4.79536e-06 0.111808)
(-4.93546e-05 -6.34605e-06 0.111755)
(-1.88565e-05 1.84081e-05 0.11259)
(-5.30238e-05 -0.000291956 0.113551)
(0.000347603 0.000229597 0.0888128)
(-0.000615523 -0.00141419 0.0271113)
(6.1191e-07 -5.8871e-05 0.11237)
(1.23844e-05 -5.64294e-05 0.112372)
(1.26527e-05 -5.19348e-05 0.112366)
(1.97483e-05 -4.50922e-05 0.112327)
(1.71049e-05 -3.79079e-05 0.11224)
(1.39351e-05 -2.76136e-05 0.112108)
(1.42739e-05 -2.14599e-05 0.111929)
(1.97703e-05 -2.02129e-05 0.11168)
(5.82644e-06 4.89369e-05 0.111765)
(4.41521e-05 -4.26984e-06 0.113721)
(-0.000307106 0.000132431 0.112436)
(0.000396133 -0.000401023 0.0738483)
(0.00141583 -0.00215769 0.0296252)
(-8.71346e-07 -2.40057e-05 0.112435)
(5.73288e-06 -2.3595e-05 0.112426)
(4.64443e-06 -2.52304e-05 0.112405)
(1.19644e-05 -2.33281e-05 0.112359)
(8.97598e-06 -2.35177e-05 0.112285)
(1.7448e-05 -2.0593e-05 0.11219)
(1.09254e-05 -1.14629e-05 0.11208)
(2.10291e-05 -1.4751e-05 0.111933)
(-5.32719e-06 -2.37378e-06 0.111817)
(9.83132e-05 -1.85739e-06 0.112625)
(-8.75201e-05 -0.000100856 0.113524)
(0.000370012 3.02632e-05 0.0877122)
(0.000428702 -0.00447331 0.0268194)
(0.000426323 -0.00252191 0.0166214)
(1.05668e-06 -4.42414e-05 0.112489)
(1.11952e-05 -4.29075e-05 0.112476)
(1.29454e-05 -4.01119e-05 0.11245)
(2.14017e-05 -3.63983e-05 0.112404)
(1.97283e-05 -3.10179e-05 0.112342)
(2.58165e-05 -2.63204e-05 0.112267)
(2.01127e-05 -1.80922e-05 0.112191)
(2.70789e-05 -1.44058e-05 0.112111)
(1.51073e-05 -1.41847e-06 0.112004)
(8.04973e-06 2.03673e-05 0.112189)
(4.06844e-05 -5.4479e-05 0.114183)
(-0.000267054 9.37345e-05 0.1122)
(0.000335721 -0.000391707 0.0721603)
(0.0015791 -0.0026968 0.0314634)
(4.83058e-07 -2.51508e-05 0.112544)
(9.84359e-06 -2.49203e-05 0.11253)
(1.11407e-05 -2.39943e-05 0.112501)
(2.10427e-05 -2.33246e-05 0.112458)
(1.90573e-05 -1.97078e-05 0.112404)
(3.03723e-05 -2.02192e-05 0.112342)
(2.30072e-05 -9.68065e-06 0.112285)
(3.74181e-05 -1.76406e-05 0.112241)
(2.43548e-05 7.6154e-06 0.112195)
(4.35745e-05 -2.39524e-05 0.112177)
(6.57535e-05 6.55971e-05 0.113064)
(-4.88038e-05 -0.000178527 0.114)
(0.000277291 0.000189182 0.0887056)
(-0.000176135 -0.00433809 0.0269377)
(1.29893e-06 -3.02307e-05 0.112596)
(1.23474e-05 -2.96125e-05 0.112581)
(1.45363e-05 -2.76301e-05 0.112551)
(2.56734e-05 -2.64362e-05 0.11251)
(2.28338e-05 -2.1873e-05 0.112459)
(3.58382e-05 -2.21494e-05 0.112405)
(2.27988e-05 -1.28144e-05 0.112359)
(4.45548e-05 -2.04676e-05 0.112327)
(6.8799e-06 8.81239e-07 0.112315)
(6.07623e-05 -3.37852e-05 0.112279)
(-4.70358e-05 3.30228e-05 0.112561)
(0.000144528 -0.000127974 0.114662)
(-0.000384899 0.000150139 0.113443)
(0.000494104 -0.000342541 0.0753071)
(-0.00657718 -0.00230391 0.022102)
(1.02146e-06 -1.62058e-05 0.112649)
(1.24418e-05 -1.6088e-05 0.112631)
(1.43187e-05 -1.50015e-05 0.112598)
(2.67997e-05 -1.51304e-05 0.112554)
(2.3356e-05 -1.18273e-05 0.112502)
(3.94424e-05 -1.36106e-05 0.11245)
(2.47455e-05 -5.34983e-06 0.112404)
(5.13311e-05 -1.33327e-05 0.112366)
(1.08841e-05 5.84358e-06 0.112346)
(7.16248e-05 -2.13899e-05 0.112305)
(-2.70104e-05 2.98887e-05 0.112291)
(0.000117707 -3.93483e-05 0.113383)
(-0.000100772 3.55368e-05 0.116057)
(0.000172246 0.000115985 0.0939069)
(-0.00668722 0.00298232 0.025071)
(1.38769e-06 -1.46099e-05 0.112698)
(1.35509e-05 -1.43893e-05 0.112673)
(1.54951e-05 -1.3437e-05 0.112633)
(2.88452e-05 -1.33487e-05 0.112583)
(2.43544e-05 -1.09453e-05 0.11253)
(4.23252e-05 -1.2161e-05 0.112476)
(2.30489e-05 -6.72362e-06 0.112425)
(5.58694e-05 -1.33489e-05 0.112371)
(-1.27812e-06 1.9244e-07 0.112319)
(8.47778e-05 -2.50615e-05 0.112227)
(-7.18341e-05 1.65295e-05 0.112094)
(0.000157045 -6.20655e-05 0.112497)
(-0.000220956 5.49195e-05 0.113226)
(0.000267687 -9.40286e-05 0.0890219)
(0.00152406 -0.00108461 0.0320659)
(9.85133e-07 -1.86824e-06 0.11273)
(1.36141e-05 -1.99785e-06 0.112699)
(1.53576e-05 -1.87127e-06 0.112651)
(2.92905e-05 -1.97386e-06 0.112597)
(2.45457e-05 -1.29595e-06 0.112544)
(4.36807e-05 -1.75387e-06 0.112489)
(2.35202e-05 7.19111e-08 0.112435)
(5.83501e-05 -1.33492e-06 0.112369)
(-1.15461e-06 2.57736e-06 0.11229)
(8.94705e-05 -9.37037e-07 0.112145)
(-6.78393e-05 6.87183e-06 0.111943)
(0.000161366 4.10719e-06 0.112258)
(-0.000185132 8.84947e-06 0.112798)
(0.000259897 3.57412e-05 0.0883785)
(0.00147878 0.000150899 0.0293288)
(-5.86568e-07 -0.00498067 0.0217182)
(-0.000705989 -0.00468284 0.0197416)
(-0.0015041 -0.00127513 0.0104384)
(-3.6205e-05 -0.000259131 0.0883906)
(9.3568e-05 -0.000267356 0.0890436)
(-0.000115881 -0.000171456 0.0939276)
(0.000342982 -0.00049401 0.0753194)
(0.0014333 -0.0058883 0.0290386)
(0.000471055 -0.00324472 0.0180589)
(-1.05178e-05 0.000186519 0.112813)
(-5.61124e-05 0.000222536 0.113254)
(-3.68548e-05 0.000101684 0.116081)
(-0.000152511 0.000385664 0.11346)
(-0.000190126 -0.000277121 0.0887133)
(0.000390863 -0.000336031 0.072166)
(0.00185181 -0.0088209 0.0308872)
(-0.000454446 -0.0045171 0.0192884)
(-4.30306e-06 -0.000156429 0.11227)
(6.11083e-05 -0.00015189 0.112516)
(3.87143e-05 -0.000114188 0.113402)
(0.000127733 -0.000140955 0.114676)
(0.000177873 5.00462e-05 0.11401)
(-9.43546e-05 0.000268767 0.112207)
(-3.05019e-05 -0.000369313 0.0877159)
(0.000401391 -0.000396254 0.0738497)
(0.000609004 -0.00602864 0.0313601)
(-0.00185474 -0.00423162 0.0149284)
(-8.26242e-06 7.25824e-05 0.111949)
(-1.91612e-05 7.599e-05 0.112103)
(-3.27981e-05 3.14622e-05 0.112302)
(-3.76751e-05 5.04757e-05 0.112569)
(-6.85107e-05 -6.23452e-05 0.11307)
(5.32374e-05 -3.82295e-05 0.114186)
(9.83761e-05 8.86472e-05 0.113524)
(-0.000133879 0.000307871 0.112432)
(-0.000231684 -0.000347245 0.0888191)
(0.000587833 -0.000468973 0.0705825)
(-0.0116421 0.0024034 0.0164866)
(1.68674e-07 -8.59773e-05 0.112149)
(2.38387e-05 -8.0943e-05 0.112234)
(2.0094e-05 -6.79202e-05 0.112312)
(3.25079e-05 -5.67738e-05 0.112285)
(2.22604e-05 -3.90798e-05 0.11218)
(-2.32797e-05 -4.42191e-06 0.112189)
(-2.78024e-07 -9.60366e-05 0.11262)
(2.82318e-06 -4.24469e-05 0.11371)
(0.000289411 5.34764e-05 0.113543)
(-0.000566943 0.00056714 0.11257)
(0.000466986 -0.000587432 0.0706178)
(-0.00860988 0.00416714 0.0188828)
(-3.81584e-06 1.05238e-05 0.112291)
(-2.64936e-06 1.04219e-05 0.112321)
(-8.63064e-06 -2.7426e-06 0.112348)
(-4.73692e-06 7.0376e-07 0.112317)
(-1.08854e-05 -1.86495e-05 0.112195)
(-2.05156e-06 -1.01465e-05 0.112001)
(-1.99115e-06 9.42549e-06 0.111811)
(-5.22511e-05 -2.88871e-06 0.111758)
(-2.14797e-05 2.08334e-05 0.112594)
(-5.41308e-05 -0.000290286 0.113556)
(0.000347288 0.000230531 0.0888164)
(-0.000615707 -0.00141431 0.027113)
(2.46899e-07 -5.10798e-05 0.112367)
(1.09091e-05 -4.8827e-05 0.11237)
(1.04904e-05 -4.44632e-05 0.112365)
(1.67638e-05 -3.83713e-05 0.112326)
(1.33364e-05 -3.13718e-05 0.11224)
(9.88789e-06 -2.28946e-05 0.112109)
(1.05819e-05 -1.68839e-05 0.11193)
(1.6648e-05 -1.72174e-05 0.111683)
(2.19281e-06 5.17836e-05 0.111768)
(4.2215e-05 -3.39069e-06 0.113725)
(-0.0003085 0.000133759 0.112441)
(0.000396077 -0.000401494 0.0738521)
(0.00141626 -0.00215732 0.0296261)
(-1.46938e-06 -1.58345e-05 0.112431)
(3.85678e-06 -1.56713e-05 0.112422)
(1.70027e-06 -1.74998e-05 0.112401)
(8.14303e-06 -1.63526e-05 0.112356)
(4.41573e-06 -1.69399e-05 0.112282)
(1.27303e-05 -1.48917e-05 0.112189)
(5.47018e-06 -6.18683e-06 0.11208)
(1.6399e-05 -1.1166e-05 0.111934)
(-1.00829e-05 1.26096e-06 0.111819)
(9.56643e-05 -2.17018e-07 0.112628)
(-8.91311e-05 -9.92422e-05 0.113528)
(0.000369296 3.02806e-05 0.087716)
(0.000428863 -0.00447332 0.02682)
(0.000426283 -0.00252215 0.0166219)
(4.42699e-07 -3.69721e-05 0.112484)
(9.27982e-06 -3.58168e-05 0.112471)
(9.83693e-06 -3.3169e-05 0.112445)
(1.72706e-05 -2.99984e-05 0.1124)
(1.46925e-05 -2.49864e-05 0.112338)
(2.04673e-05 -2.10929e-05 0.112265)
(1.43046e-05 -1.35132e-05 0.11219)
(2.23064e-05 -1.03382e-05 0.112112)
(9.52705e-06 1.2031e-06 0.112005)
(4.0791e-06 2.27594e-05 0.112192)
(3.76586e-05 -5.41066e-05 0.114187)
(-0.000269242 9.35186e-05 0.112205)
(0.000335796 -0.00039161 0.0721635)
(0.001579 -0.00269687 0.0314645)
(-2.9563e-07 -1.83234e-05 0.112536)
(7.64128e-06 -1.82424e-05 0.112522)
(7.50703e-06 -1.7524e-05 0.112494)
(1.63129e-05 -1.73628e-05 0.112452)
(1.3327e-05 -1.40897e-05 0.112398)
(2.42016e-05 -1.52864e-05 0.112339)
(1.63915e-05 -5.21479e-06 0.112283)
(3.08178e-05 -1.39014e-05 0.112241)
(1.79183e-05 1.01089e-05 0.112195)
(3.86947e-05 -2.30151e-05 0.112179)
(6.15268e-05 6.79207e-05 0.113068)
(-5.06131e-05 -0.000178626 0.114005)
(0.000276699 0.000189712 0.0887091)
(-0.000176684 -0.00433853 0.0269385)
(5.38618e-07 -2.48162e-05 0.112588)
(1.00754e-05 -2.4345e-05 0.112572)
(1.07124e-05 -2.25059e-05 0.112544)
(2.06904e-05 -2.15992e-05 0.112503)
(1.67684e-05 -1.73198e-05 0.112453)
(2.93337e-05 -1.81045e-05 0.112401)
(1.57896e-05 -9.11563e-06 0.112356)
(3.78005e-05 -1.74701e-05 0.112326)
(-1.51265e-06 3.58132e-06 0.112316)
(5.66198e-05 -3.35727e-05 0.112282)
(-5.10091e-05 3.67118e-05 0.112563)
(0.000140437 -0.000128687 0.114666)
(-0.000386342 0.00015175 0.113448)
(0.000493425 -0.000343516 0.0753111)
(-0.0065773 -0.00230335 0.0221024)
(2.12712e-07 -1.20041e-05 0.11264)
(9.94886e-06 -1.20179e-05 0.112622)
(1.02542e-05 -1.10403e-05 0.112589)
(2.14981e-05 -1.13788e-05 0.112546)
(1.68325e-05 -8.29369e-06 0.112496)
(3.24141e-05 -1.05077e-05 0.112445)
(1.70765e-05 -2.49076e-06 0.1124)
(4.37221e-05 -1.12841e-05 0.112364)
(1.65261e-06 7.85276e-06 0.112346)
(6.77217e-05 -2.08424e-05 0.112307)
(-3.21389e-05 3.21697e-05 0.112293)
(0.000113853 -3.92857e-05 0.113388)
(-0.000101902 3.64025e-05 0.116061)
(0.000170697 0.000115846 0.0939121)
(-0.00668708 0.00298239 0.0250718)
(5.68717e-07 -1.22017e-05 0.112688)
(1.10382e-05 -1.19897e-05 0.112664)
(1.13521e-05 -1.11018e-05 0.112624)
(2.34343e-05 -1.1093e-05 0.112575)
(1.76393e-05 -8.79818e-06 0.112523)
(3.51446e-05 -1.03213e-05 0.112471)
(1.49832e-05 -4.97946e-06 0.112421)
(4.82658e-05 -1.22041e-05 0.112369)
(-1.11849e-05 1.74524e-06 0.112319)
(8.09384e-05 -2.48999e-05 0.112229)
(-7.6325e-05 1.82528e-05 0.112095)
(0.000151592 -6.16904e-05 0.112502)
(-0.000222652 5.56107e-05 0.113231)
(0.000267241 -9.39841e-05 0.0890266)
(0.0015245 -0.00108442 0.0320669)
(3.26644e-07 -1.19458e-06 0.11272)
(1.1048e-05 -1.16499e-06 0.112688)
(1.11493e-05 -1.01645e-06 0.112641)
(2.38011e-05 -1.19921e-06 0.112589)
(1.76056e-05 -5.24412e-07 0.112537)
(3.6249e-05 -1.14384e-06 0.112484)
(1.51556e-05 6.36271e-07 0.11243)
(5.0555e-05 -9.81832e-07 0.112366)
(-1.13835e-05 2.94269e-06 0.11229)
(8.57773e-05 -8.60895e-07 0.112147)
(-7.2771e-05 7.34115e-06 0.111945)
(0.000156545 3.74709e-06 0.112263)
(-0.000186581 9.98437e-06 0.112802)
(0.000258901 3.54793e-05 0.0883835)
(0.00147929 0.00015073 0.0293297)
(-3.71476e-07 -0.00498064 0.0217188)
(-0.000705737 -0.00468287 0.019742)
(-0.00150426 -0.00127507 0.0104386)
(-3.57206e-05 -0.00025747 0.0883944)
(9.37496e-05 -0.000266319 0.0890473)
(-0.000115912 -0.000170299 0.0939317)
(0.000343533 -0.000493423 0.0753227)
(0.00143333 -0.00588847 0.0290397)
(0.000471209 -0.00324486 0.0180597)
(-1.10358e-05 0.000187866 0.112816)
(-5.65053e-05 0.000223575 0.113257)
(-3.78888e-05 0.000102381 0.116085)
(-0.000154077 0.000386749 0.113464)
(-0.000190692 -0.00027644 0.088716)
(0.000390739 -0.000335854 0.0721685)
(0.00185183 -0.00882085 0.0308882)
(-0.000454427 -0.00451712 0.0192892)
(-4.10449e-06 -0.000152424 0.112274)
(6.08472e-05 -0.000148279 0.11252)
(3.88284e-05 -0.000111393 0.113406)
(0.000128239 -0.000137714 0.11468)
(0.000177952 5.14437e-05 0.114014)
(-9.41411e-05 0.000270446 0.112211)
(-3.05264e-05 -0.00036884 0.0877189)
(0.000401854 -0.000396209 0.0738525)
(0.000609035 -0.00602879 0.0313612)
(-0.00185474 -0.00423173 0.0149289)
(-9.12477e-06 7.63335e-05 0.11195)
(-2.0803e-05 7.96831e-05 0.112104)
(-3.42529e-05 3.53648e-05 0.112303)
(-4.06619e-05 5.34777e-05 0.112571)
(-7.05887e-05 -5.91883e-05 0.113073)
(5.28203e-05 -3.58606e-05 0.114189)
(9.69343e-05 8.96824e-05 0.113527)
(-0.000135177 0.000308953 0.112436)
(-0.000232692 -0.00034714 0.0888218)
(0.000587368 -0.000469148 0.070585)
(-0.0116429 0.00240427 0.0164856)
(3.42056e-07 -8.29797e-05 0.112151)
(2.37501e-05 -7.73689e-05 0.112236)
(1.95496e-05 -6.5009e-05 0.112314)
(3.22628e-05 -5.36045e-05 0.112287)
(2.16409e-05 -3.56357e-05 0.112182)
(-2.52016e-05 -1.56436e-06 0.112192)
(-1.67052e-06 -9.3983e-05 0.112623)
(2.12091e-06 -4.10662e-05 0.113713)
(0.000287974 5.43279e-05 0.113546)
(-0.00056732 0.000567649 0.112574)
(0.000467949 -0.000587478 0.0706202)
(-0.00861017 0.00416733 0.0188837)
(-4.1547e-06 1.82582e-05 0.112292)
(-4.41588e-06 1.78159e-05 0.112322)
(-1.05165e-05 4.36338e-06 0.112348)
(-7.17805e-06 7.22943e-06 0.112318)
(-1.32647e-05 -1.36234e-05 0.112195)
(-3.8721e-06 -5.88378e-06 0.112002)
(-4.9362e-06 1.28921e-05 0.111813)
(-5.47991e-05 -2.62452e-07 0.11176)
(-2.35193e-05 2.28149e-05 0.112596)
(-5.49289e-05 -0.000288992 0.113559)
(0.000347591 0.000231318 0.088819)
(-0.000615818 -0.00141425 0.0271138)
(1.15961e-07 -4.56938e-05 0.112365)
(1.02036e-05 -4.34629e-05 0.112368)
(9.08836e-06 -3.87912e-05 0.112363)
(1.44465e-05 -3.34257e-05 0.112325)
(1.04624e-05 -2.62789e-05 0.11224)
(6.41439e-06 -1.91872e-05 0.112109)
(7.55345e-06 -1.35465e-05 0.11193)
(1.44556e-05 -1.50656e-05 0.111684)
(-5.93655e-07 5.42154e-05 0.11177)
(4.0672e-05 -2.89522e-06 0.113728)
(-0.000309575 0.000134879 0.112444)
(0.000396134 -0.000402057 0.0738547)
(0.00141659 -0.00215744 0.029627)
(-1.90447e-06 -8.88864e-06 0.112427)
(2.37021e-06 -9.03035e-06 0.112418)
(-6.05887e-07 -1.14152e-05 0.112398)
(5.13066e-06 -1.07543e-05 0.112354)
(8.0463e-07 -1.18304e-05 0.112281)
(9.16302e-06 -1.04078e-05 0.112188)
(9.77958e-07 -1.84864e-06 0.11208)
(1.29473e-05 -8.19663e-06 0.111935)
(-1.37814e-05 3.99557e-06 0.111821)
(9.34899e-05 1.05289e-06 0.112631)
(-9.02581e-05 -9.79052e-05 0.113531)
(0.000368603 3.02396e-05 0.0877188)
(0.000429023 -0.00447348 0.0268206)
(0.000426276 -0.00252219 0.0166225)
(2.77068e-08 -3.12192e-05 0.112479)
(7.71427e-06 -3.02781e-05 0.112467)
(7.39407e-06 -2.77412e-05 0.112441)
(1.39822e-05 -2.49943e-05 0.112397)
(1.07096e-05 -2.02413e-05 0.112336)
(1.6221e-05 -1.68771e-05 0.112264)
(9.76112e-06 -1.00497e-05 0.112189)
(1.85046e-05 -6.82516e-06 0.112112)
(5.04931e-06 2.87565e-06 0.112005)
(1.15253e-06 2.46283e-05 0.112195)
(3.5209e-05 -5.37542e-05 0.114189)
(-0.000270955 9.33377e-05 0.112209)
(0.000335896 -0.000391373 0.072166)
(0.00157905 -0.00269715 0.0314655)
(-8.79085e-07 -1.30022e-05 0.11253)
(5.83001e-06 -1.30789e-05 0.112516)
(4.66735e-06 -1.25052e-05 0.112489)
(1.26204e-05 -1.26797e-05 0.112447)
(8.92918e-06 -9.6803e-06 0.112394)
(1.93523e-05 -1.136e-05 0.112336)
(1.11966e-05 -1.67932e-06 0.112281)
(2.5566e-05 -1.12555e-05 0.11224)
(1.25728e-05 1.24928e-05 0.112196)
(3.52264e-05 -2.24132e-05 0.112181)
(5.8367e-05 6.9936e-05 0.113071)
(-5.20864e-05 -0.000178719 0.114009)
(0.000276172 0.00019025 0.0887117)
(-0.000177121 -0.00433878 0.026939)
(-2.02202e-08 -2.05832e-05 0.112581)
(8.20773e-06 -2.01865e-05 0.112566)
(7.78966e-06 -1.84074e-05 0.112538)
(1.67934e-05 -1.77155e-05 0.112498)
(1.20283e-05 -1.36842e-05 0.112449)
(2.42113e-05 -1.48964e-05 0.112398)
(9.95947e-06 -6.18777e-06 0.112353)
(3.28393e-05 -1.54627e-05 0.112325)
(-8.04238e-06 6.15994e-06 0.112316)
(5.33216e-05 -3.33674e-05 0.112284)
(-5.40736e-05 3.96742e-05 0.112565)
(0.000137167 -0.00012929 0.11467)
(-0.000387483 0.000153261 0.113452)
(0.000492581 -0.000344132 0.0753143)
(-0.00657743 -0.00230345 0.0221032)
(-4.03706e-07 -8.76463e-06 0.112632)
(8.00292e-06 -8.82588e-06 0.112614)
(7.13931e-06 -7.91758e-06 0.112582)
(1.73423e-05 -8.43267e-06 0.11254)
(1.17582e-05 -5.51034e-06 0.11249)
(2.68542e-05 -8.07495e-06 0.112441)
(1.06768e-05 -2.72309e-07 0.112397)
(3.81124e-05 -9.95963e-06 0.112362)
(-5.50405e-06 9.77185e-06 0.112346)
(6.46259e-05 -2.03103e-05 0.112309)
(-3.60921e-05 3.36744e-05 0.112295)
(0.000110943 -3.94373e-05 0.113392)
(-0.000102678 3.74154e-05 0.116065)
(0.000169246 0.000115817 0.0939161)
(-0.00668688 0.00298296 0.0250725)
(-2.99013e-08 -1.02967e-05 0.11268)
(9.05324e-06 -1.00704e-05 0.112656)
(8.18301e-06 -9.25826e-06 0.112616)
(1.91978e-05 -9.29932e-06 0.112569)
(1.23853e-05 -7.1223e-06 0.112517)
(2.94557e-05 -8.8712e-06 0.112467)
(8.04284e-06 -3.56228e-06 0.112418)
(4.30074e-05 -1.14979e-05 0.112366)
(-1.85174e-05 3.42026e-06 0.112319)
(7.7251e-05 -2.47567e-05 0.112231)
(-8.01113e-05 1.99383e-05 0.112096)
(0.000147869 -6.13557e-05 0.112505)
(-0.000223746 5.60815e-05 0.113234)
(0.000266224 -9.40619e-05 0.0890302)
(0.00152462 -0.00108442 0.0320677)
(-5.63839e-09 -7.439e-07 0.112711)
(9.04049e-06 -5.19584e-07 0.11268)
(7.90905e-06 -3.74272e-07 0.112633)
(1.94777e-05 -6.06251e-07 0.112582)
(1.21875e-05 2.28012e-08 0.112531)
(3.04295e-05 -7.13619e-07 0.112479)
(8.0108e-06 1.03903e-06 0.112426)
(4.52093e-05 -7.28231e-07 0.112364)
(-1.91143e-05 3.33087e-06 0.11229)
(8.273e-05 -9.51775e-07 0.112148)
(-7.65654e-05 8.31129e-06 0.111946)
(0.000152446 3.59752e-06 0.112267)
(-0.000187772 1.05877e-05 0.112805)
(0.000257913 3.51619e-05 0.0883871)
(0.00147964 0.000150878 0.0293303)
(-3.58823e-07 -0.00498052 0.0217196)
(-0.000705661 -0.00468284 0.0197427)
(-0.00150424 -0.00127508 0.0104388)
(-3.55004e-05 -0.000256589 0.0883977)
(9.37671e-05 -0.000266028 0.0890503)
(-0.000115837 -0.000169179 0.0939351)
(0.000344348 -0.000492908 0.0753252)
(0.0014335 -0.00588879 0.0290406)
(0.000471242 -0.00324502 0.0180603)
(-1.19439e-05 0.000188735 0.112818)
(-5.70138e-05 0.000224482 0.113259)
(-3.83212e-05 0.000102893 0.116087)
(-0.000155219 0.000387526 0.113467)
(-0.00019106 -0.000276353 0.088718)
(0.000390895 -0.000336091 0.0721705)
(0.00185191 -0.0088209 0.0308889)
(-0.000454434 -0.00451711 0.0192897)
(-3.88197e-06 -0.000149286 0.112277)
(6.05014e-05 -0.000144798 0.112523)
(3.87958e-05 -0.000109125 0.113409)
(0.000128745 -0.000135283 0.114683)
(0.000178014 5.2397e-05 0.114017)
(-9.41252e-05 0.000271483 0.112215)
(-3.06905e-05 -0.000368852 0.0877211)
(0.000402076 -0.000396265 0.0738545)
(0.00060903 -0.00602903 0.0313618)
(-0.00185477 -0.00423183 0.0149293)
(-9.66965e-06 7.90429e-05 0.111951)
(-2.22405e-05 8.25411e-05 0.112105)
(-3.57701e-05 3.83298e-05 0.112304)
(-4.31105e-05 5.59401e-05 0.112573)
(-7.22585e-05 -5.69967e-05 0.113075)
(5.24346e-05 -3.40312e-05 0.114191)
(9.56329e-05 9.03938e-05 0.113529)
(-0.000136401 0.000309786 0.112438)
(-0.000233455 -0.000346849 0.0888237)
(0.000587258 -0.000468979 0.0705867)
(-0.0116428 0.00240359 0.0164867)
(7.04191e-07 -8.04025e-05 0.112153)
(2.36699e-05 -7.44605e-05 0.112237)
(1.91483e-05 -6.25867e-05 0.112315)
(3.19912e-05 -5.08509e-05 0.112289)
(2.10278e-05 -3.33499e-05 0.112183)
(-2.66821e-05 2.78496e-07 0.112194)
(-2.96745e-06 -9.25755e-05 0.112625)
(1.48282e-06 -3.99744e-05 0.113715)
(0.000286764 5.4977e-05 0.113548)
(-0.000567763 0.000567931 0.112576)
(0.000468197 -0.000587174 0.0706221)
(-0.0086104 0.0041674 0.0188837)
(-4.37794e-06 2.39797e-05 0.112291)
(-6.04009e-06 2.31627e-05 0.112322)
(-1.221e-05 9.53263e-06 0.112349)
(-9.75617e-06 1.19845e-05 0.112318)
(-1.58388e-05 -9.56293e-06 0.112195)
(-5.14077e-06 -2.44873e-06 0.112002)
(-7.0035e-06 1.57497e-05 0.111814)
(-5.68364e-05 1.75463e-06 0.111762)
(-2.52494e-05 2.45234e-05 0.112598)
(-5.56487e-05 -0.000287836 0.113561)
(0.000347339 0.000232081 0.088821)
(-0.000615751 -0.00141399 0.0271137)
(1.41797e-07 -4.22186e-05 0.112363)
(9.58207e-06 -4.00039e-05 0.112366)
(8.10446e-06 -3.4974e-05 0.112361)
(1.3073e-05 -2.99834e-05 0.112324)
(8.53248e-06 -2.21695e-05 0.112239)
(3.73561e-06 -1.59589e-05 0.11211)
(4.84215e-06 -1.08672e-05 0.111932)
(1.2674e-05 -1.32691e-05 0.111685)
(-2.66388e-06 5.61322e-05 0.111772)
(3.93464e-05 -2.50041e-06 0.11373)
(-0.000310741 0.000135919 0.112447)
(0.000395743 -0.00040229 0.0738566)
(0.00141679 -0.00215749 0.0296274)
(-2.269e-06 -2.89796e-06 0.112424)
(1.08158e-06 -3.38033e-06 0.112415)
(-2.31914e-06 -6.13809e-06 0.112395)
(2.85205e-06 -5.96267e-06 0.112352)
(-1.97734e-06 -7.73987e-06 0.112279)
(6.46899e-06 -6.79886e-06 0.112187)
(-2.51538e-06 1.49623e-06 0.11208)
(1.01517e-05 -5.54878e-06 0.111936)
(-1.68973e-05 5.84206e-06 0.111822)
(9.19266e-05 2.24549e-06 0.112633)
(-9.11339e-05 -9.67217e-05 0.113533)
(0.000367924 3.04005e-05 0.087721)
(0.000428925 -0.00447338 0.0268209)
(0.000426344 -0.0025223 0.0166228)
(-2.59684e-07 -2.66861e-05 0.112476)
(6.38051e-06 -2.58873e-05 0.112464)
(5.55284e-06 -2.33443e-05 0.112438)
(1.14248e-05 -2.09719e-05 0.112395)
(7.60175e-06 -1.64692e-05 0.112334)
(1.27962e-05 -1.34978e-05 0.112263)
(6.08756e-06 -7.46569e-06 0.112188)
(1.52183e-05 -4.28828e-06 0.112113)
(1.53346e-06 4.22238e-06 0.112006)
(-7.82425e-07 2.60702e-05 0.112197)
(3.31509e-05 -5.33942e-05 0.114191)
(-0.000272265 9.33803e-05 0.112212)
(0.000335947 -0.0003911 0.0721678)
(0.0015789 -0.00269714 0.0314661)
(-1.3155e-06 -8.84643e-06 0.112526)
(4.40576e-06 -9.00157e-06 0.112512)
(2.58713e-06 -8.50779e-06 0.112484)
(9.71983e-06 -8.96107e-06 0.112444)
(5.50563e-06 -6.24103e-06 0.112391)
(1.54698e-05 -8.26837e-06 0.112334)
(6.85974e-06 1.09489e-06 0.112279)
(2.1526e-05 -9.58135e-06 0.11224)
(8.35637e-06 1.5098e-05 0.112197)
(3.26951e-05 -2.19579e-05 0.112182)
(5.61527e-05 7.15787e-05 0.113073)
(-5.31786e-05 -0.000178787 0.114012)
(0.000275802 0.000190731 0.0887138)
(-0.00017746 -0.00433909 0.0269396)
(-3.75105e-07 -1.71665e-05 0.112576)
(6.71586e-06 -1.67522e-05 0.112561)
(5.59045e-06 -1.50694e-05 0.112533)
(1.36785e-05 -1.45648e-05 0.112494)
(8.29312e-06 -1.07843e-05 0.112445)
(2.01194e-05 -1.23649e-05 0.112396)
(4.86411e-06 -3.90468e-06 0.112352)
(2.93761e-05 -1.41975e-05 0.112324)
(-1.27838e-05 8.72133e-06 0.112317)
(5.0418e-05 -3.31304e-05 0.112286)
(-5.65908e-05 4.22101e-05 0.112566)
(0.000134674 -0.000129861 0.114673)
(-0.000388361 0.000154449 0.113455)
(0.00049191 -0.000344742 0.0753169)
(-0.00657751 -0.00230335 0.0221036)
(-8.24126e-07 -6.2353e-06 0.112626)
(6.50012e-06 -6.27143e-06 0.112609)
(4.77562e-06 -5.45393e-06 0.112577)
(1.40033e-05 -6.13769e-06 0.112535)
(7.7147e-06 -3.399e-06 0.112486)
(2.23514e-05 -6.22768e-06 0.112438)
(5.0711e-06 1.37796e-06 0.112394)
(3.43437e-05 -9.00707e-06 0.11236)
(-1.07575e-05 1.15054e-05 0.112346)
(6.20602e-05 -1.98865e-05 0.11231)
(-3.91024e-05 3.52068e-05 0.112296)
(0.000108521 -3.94756e-05 0.113395)
(-0.000103229 3.7729e-05 0.116067)
(0.000168093 0.000115681 0.0939194)
(-0.00668667 0.00298326 0.025073)
(-4.38028e-07 -8.64894e-06 0.112674)
(7.4955e-06 -8.45938e-06 0.11265)
(5.72414e-06 -7.73409e-06 0.112611)
(1.57304e-05 -7.8105e-06 0.112564)
(8.20195e-06 -5.73622e-06 0.112513)
(2.49008e-05 -7.57103e-06 0.112464)
(2.05158e-06 -2.30681e-06 0.112415)
(3.96314e-05 -1.08199e-05 0.112365)
(-2.37966e-05 4.97915e-06 0.11232)
(7.41694e-05 -2.46581e-05 0.112233)
(-8.31173e-05 2.11944e-05 0.112097)
(0.000144177 -6.12749e-05 0.112508)
(-0.000224849 5.62467e-05 0.113236)
(0.000265658 -9.42909e-05 0.0890331)
(0.00152481 -0.00108442 0.0320684)
(-3.99987e-07 -1.25255e-07 0.112705)
(7.41403e-06 9.15718e-10 0.112674)
(5.42335e-06 9.6113e-08 0.112627)
(1.60008e-05 -1.3849e-07 0.112577)
(7.95513e-06 4.72019e-07 0.112526)
(2.57953e-05 -2.93519e-07 0.112476)
(1.7816e-06 1.40426e-06 0.112424)
(4.17506e-05 -5.6588e-07 0.112362)
(-2.49579e-05 3.66438e-06 0.11229)
(7.98957e-05 -1.31209e-06 0.11215)
(-7.96106e-05 8.85572e-06 0.111947)
(0.000148941 3.17148e-06 0.11227)
(-0.000188797 1.13088e-05 0.112807)
(0.000256823 3.48206e-05 0.0883898)
(0.00147982 0.000150982 0.0293308)
(-3.7319e-07 -0.00498043 0.0217202)
(-0.000705754 -0.00468279 0.0197433)
(-0.00150422 -0.00127509 0.010439)
(-3.53857e-05 -0.000256268 0.0884005)
(9.36306e-05 -0.000265373 0.0890528)
(-0.00011594 -0.000168124 0.0939376)
(0.000345055 -0.000492476 0.0753273)
(0.00143372 -0.00588907 0.0290411)
(0.000471286 -0.00324501 0.0180606)
(-1.22206e-05 0.000189042 0.11282)
(-5.75076e-05 0.0002248 0.113261)
(-3.92579e-05 0.000103143 0.116089)
(-0.000156295 0.000388035 0.113469)
(-0.000191489 -0.000276521 0.0887196)
(0.000390636 -0.000336391 0.0721719)
(0.00185193 -0.00882104 0.0308893)
(-0.000454523 -0.00451718 0.0192898)
(-3.82544e-06 -0.000147188 0.11228)
(6.01468e-05 -0.000143112 0.112525)
(3.88615e-05 -0.000107482 0.113412)
(0.000129166 -0.000133424 0.114685)
(0.000177902 5.29854e-05 0.114019)
(-9.44048e-05 0.000272252 0.112217)
(-3.10768e-05 -0.000368382 0.0877228)
(0.000401615 -0.000395684 0.0738558)
(0.000608918 -0.00602913 0.031362)
(-0.00185481 -0.00423199 0.0149293)
(-1.03805e-05 8.12544e-05 0.111951)
(-2.3229e-05 8.47893e-05 0.112105)
(-3.65643e-05 4.05132e-05 0.112305)
(-4.52345e-05 5.78546e-05 0.112574)
(-7.37339e-05 -5.54279e-05 0.113077)
(5.20895e-05 -3.24326e-05 0.114193)
(9.4514e-05 9.11062e-05 0.113531)
(-0.000137468 0.000310773 0.11244)
(-0.000234141 -0.000345947 0.0888251)
(0.000586691 -0.000468566 0.0705879)
(-0.0116433 0.00240423 0.0164861)
(7.91945e-07 -7.7889e-05 0.112154)
(2.33158e-05 -7.14869e-05 0.112239)
(1.89081e-05 -6.05072e-05 0.112316)
(3.17902e-05 -4.84976e-05 0.11229)
(2.0566e-05 -3.14959e-05 0.112184)
(-2.78553e-05 1.57657e-06 0.112195)
(-4.18629e-06 -9.13478e-05 0.112627)
(9.12412e-07 -3.89431e-05 0.113717)
(0.000285707 5.55388e-05 0.11355)
(-0.000568065 0.000568261 0.112579)
(0.00046754 -0.000586838 0.0706235)
(-0.00861082 0.00416742 0.0188837)
(-4.55107e-06 2.81521e-05 0.112291)
(-7.48561e-06 2.72704e-05 0.112321)
(-1.36384e-05 1.32942e-05 0.112349)
(-1.21006e-05 1.55923e-05 0.112318)
(-1.83632e-05 -6.65064e-06 0.112196)
(-6.1059e-06 1.47622e-07 0.112003)
(-8.39257e-06 1.8214e-05 0.111815)
(-5.85836e-05 3.25559e-06 0.111763)
(-2.67849e-05 2.60718e-05 0.1126)
(-5.63081e-05 -0.000286798 0.113563)
(0.000346272 0.00023268 0.0888224)
(-0.00061608 -0.0014139 0.0271137)
(2.27145e-07 -4.0149e-05 0.112362)
(8.82357e-06 -3.79095e-05 0.112365)
(7.37287e-06 -3.26129e-05 0.11236)
(1.20292e-05 -2.76614e-05 0.112323)
(7.06314e-06 -1.92764e-05 0.112238)
(2.12056e-06 -1.3362e-05 0.112109)
(2.53556e-06 -8.83717e-06 0.111933)
(1.12008e-05 -1.18737e-05 0.111686)
(-4.17047e-06 5.78038e-05 0.111773)
(3.82422e-05 -2.01869e-06 0.113732)
(-0.000311927 0.000136923 0.112449)
(0.000394936 -0.000401892 0.073858)
(0.00141661 -0.00215723 0.0296276)
(-2.48285e-06 2.30147e-06 0.112422)
(-7.89059e-08 1.58262e-06 0.112413)
(-3.52386e-06 -1.31065e-06 0.112393)
(1.04511e-06 -1.73347e-06 0.11235)
(-4.22142e-06 -4.05427e-06 0.112278)
(4.6433e-06 -3.69887e-06 0.112186)
(-5.10082e-06 3.87827e-06 0.11208)
(8.04569e-06 -3.44564e-06 0.111936)
(-1.93394e-05 7.26683e-06 0.111823)
(9.06844e-05 3.37403e-06 0.112635)
(-9.19025e-05 -9.56698e-05 0.113535)
(0.000367362 3.07302e-05 0.0877227)
(0.000428953 -0.00447327 0.0268213)
(0.000426344 -0.00252237 0.0166232)
(-3.67521e-07 -2.29915e-05 0.112473)
(5.2512e-06 -2.21814e-05 0.112461)
(4.08773e-06 -1.95676e-05 0.112436)
(9.24114e-06 -1.76586e-05 0.112393)
(5.00612e-06 -1.32931e-05 0.112332)
(9.87753e-06 -1.06975e-05 0.112262)
(2.78317e-06 -5.70006e-06 0.112188)
(1.2779e-05 -2.8036e-06 0.112112)
(-9.54922e-07 5.37445e-06 0.112007)
(-2.22219e-06 2.71168e-05 0.112198)
(3.14697e-05 -5.30503e-05 0.114193)
(-0.000273249 9.35877e-05 0.112214)
(0.000336075 -0.000390891 0.0721693)
(0.00157889 -0.00269713 0.0314667)
(-1.53744e-06 -5.66444e-06 0.112522)
(3.32853e-06 -5.87079e-06 0.112508)
(9.91731e-07 -5.40688e-06 0.112481)